NUFEB Simulation 

       2 atoms 
       1 atom types 
       2 bacilli

   0.000000e-04   50e-6  xlo xhi 
   0.000000e-04   50e-6  ylo yhi 
   0.000000e-04   10e-6  zlo zhi 

 Atoms 

     1 1 1 150 30e-6 24e-6 2e-6 1
     2 1 1 150 31e-6 24e-6 2e-6 1

 Bacilli
     
     1 0 0 7.2e-23 0 0 0 2e-6 0 0 1e-6
     2 0 0 7.2e-23 0 0 0 0 0 0 1e-6
