LAMMPS (5 Nov 2016)
# NUFEB simulation

atom_style	bio
atom_modify	map array sort 1000 5.0e-7
boundary	ff ff ff
newton		off
#processors  2 1 1

comm_modify	vel yes
read_data_bio atom.in
  orthogonal box = (0 0 0) to (0.0001 0.0001 0.0001)
  1 by 1 by 1 MPI processor grid
  reading atoms ...
  3 atoms
  10 nutrients

group AOB type 1
1 atoms in group AOB
group NOB type 2
1 atoms in group NOB
group COMM type 3
1 atoms in group COMM

neighbor	5.0e-7 bin
neigh_modify	delay 0 one 5000

#pair_style none
pair_style  gran/hooke/history 0.000200 NULL 0.000050 NULL 0.0 1

pair_coeff  * *
timestep 36

fix 1 all nve/limit 1e-8

#fix	 2 all gravity 1.47 vector 0 0 -1 # spherical 90.0 -180.0
#fix     3 all fdrag
fix 10 all viscous 0.1


fix xw all wall/gran hooke/history 2000 NULL 500.0 NULL 1.5 0 xplane  0.0   1.0e-04
fix yw all wall/gran hooke/history 2000 NULL 500.0 NULL 1.5 0 yplane  0.0   1.0e-04
fix zw all wall/gran hooke/history 2000 NULL 500.0 NULL 1.5 0 zplane  0.0   1.0e-04

variable kanc equal 50

fix xwa all walladh v_kanc xplane  0.0   1.0e-04
fix ywa all walladh v_kanc yplane  0.0   1.0e-04
fix zwa all walladh v_kanc zplane  0.0   1.0e-04

##############Ibm Variable Definitions##############

#Defining EPS density and ratio variables
variable EPSdens equal 30
variable EPSratio equal 1.25

variable ke equal 5e+10

#Defining kinetics variables
variable temp equal 298.15
variable gasTran equal 0.08205746
variable gvol equal 8e-14
variable rth equal 0.0083144
variable pressure equal 1
variable ph equal 7.0

#Defining diffusion variables
variable diffT equal 1e-7
variable tol equal 4e-11

##############Ibm functions##############

fix k1 all kinetics 25 25 25 v_temp v_rth v_gvol v_gasTran v_ph
fix g1 all diffusion exp v_diffT v_tol pp pp nd
#fix ki3 all kinetics/ph 1
fix ki2 all kinetics/thermo 1 fix open v_pressure
fix ki1 all kinetics/monod 1 v_EPSdens
fix d1 all divide 1 v_EPSdens 1 31231

#fix j1 all epsadh 1 v_ke 1
#fix e1 HET eps_extract 16 v_EPSratio v_EPSdens 1242242

##############Ibm compute##############

compute myMass all biomass
compute myNtypes all ntypes

##############Simulation outputs##############

#dump		id all custom 250 snapshot.bubblemd id type diameter x y z
dump            d0 all bio 500 biomass
thermo_style    custom step cpu atoms biomass c_myNtypes[*] c_myMass[2]
thermo		5
thermo_modify	lost ignore

run  5000
Neighbor list info ...
  2 neighbor list requests
  update every 1 steps, delay 0 steps, check yes
  max neighbors/atom: 5000, page size: 100000
  master list distance cutoff = 1.466e-06
  ghost atom cutoff = 1.466e-06
  binsize = 7.33e-07 -> bins = 137 137 137
Memory usage per processor = 18.9946 Mbytes
Step CPU Atoms biomass c_myNtypes[1] c_myNtypes[2] c_myNtypes[3] c_myMass[2] 
       0            0        3 4.1062866e-16            1            1            1 1.3687622e-16 
       5    55.295724        3 4.1151574e-16            1            1            1 1.3680775e-16 
      10     55.92586        3 4.1240621e-16            1            1            1 1.3673933e-16 
      15    56.613444        3 4.1330005e-16            1            1            1 1.3667093e-16 
      20    57.364789        3 4.1419729e-16            1            1            1 1.3660258e-16 
      25     58.31512        3 4.1509794e-16            1            1            1 1.3653425e-16 
      30    59.259978        3 4.1600201e-16            1            1            1 1.3646597e-16 
      35      60.2753        3 4.169095e-16            1            1            1 1.3639771e-16 
      40    61.224387        3 4.1782044e-16            1            1            1 1.3632949e-16 
      45    62.182848        3 4.1873483e-16            1            1            1 1.3626131e-16 
      50    63.144818        3 4.1965269e-16            1            1            1 1.3619316e-16 
      55    64.058621        3 4.2057403e-16            1            1            1 1.3612505e-16 
      60    65.002097        3 4.2149885e-16            1            1            1 1.3605697e-16 
      65    65.906418        3 4.2242718e-16            1            1            1 1.3598892e-16 
      70     66.70851        3 4.2335903e-16            1            1            1 1.3592091e-16 
      75    67.502708        3 4.242944e-16            1            1            1 1.3585293e-16 
      80    68.305136        3 4.252333e-16            1            1            1 1.3578499e-16 
      85    69.106052        3 4.2617576e-16            1            1            1 1.3571709e-16 
      90    70.144115        3 4.2712178e-16            1            1            1 1.3564921e-16 
      95    71.264437        3 4.2807138e-16            1            1            1 1.3558138e-16 
     100    72.323895        3 4.2902457e-16            1            1            1 1.3551357e-16 
     105     73.40941        3 4.2998135e-16            1            1            1 1.3544581e-16 
     110    74.537098        3 4.3094175e-16            1            1            1 1.3537807e-16 
     115    75.717509        3 4.3190578e-16            1            1            1 1.3531038e-16 
     120    76.952088        3 4.3287344e-16            1            1            1 1.3524271e-16 
     125    78.140591        3 4.3384475e-16            1            1            1 1.3517508e-16 
     130    79.112359        3 4.3481972e-16            1            1            1 1.3510749e-16 
     135    79.977083        3 4.3579837e-16            1            1            1 1.3503993e-16 
     140    80.835414        3 4.3678071e-16            1            1            1 1.349724e-16 
     145    81.816885        3 4.3776675e-16            1            1            1 1.3490491e-16 
     150    82.690394        4 4.3875651e-16            2            1            1 1.3483746e-16 
     155    83.572529        5 4.3974999e-16            2            1            2 1.3477004e-16 
     160    84.537562        5 4.4074721e-16            2            1            2 1.3470265e-16 
     165    85.430127        5 4.4174818e-16            2            1            2 1.346353e-16 
     170    86.272845        5 4.4275292e-16            2            1            2 1.3456799e-16 
     175    87.113019        5 4.4376144e-16            2            1            2 1.3450071e-16 
     180    87.967595        5 4.4477375e-16            2            1            2 1.3443346e-16 
     185    88.804303        5 4.4578987e-16            2            1            2 1.3436625e-16 
     190    89.633638        5 4.468098e-16            2            1            2 1.3429907e-16 
     195    90.475465        5 4.4783356e-16            2            1            2 1.3423193e-16 
     200    91.330013        5 4.4886117e-16            2            1            2 1.3416482e-16 
     205    92.185826        5 4.4989264e-16            2            1            2 1.3409775e-16 
     210    93.013396        5 4.5092798e-16            2            1            2 1.3403071e-16 
     215    93.851568        5 4.519672e-16            2            1            2 1.3396371e-16 
     220     94.69007        5 4.5301033e-16            2            1            2 1.3389674e-16 
     225    95.546553        5 4.5405736e-16            2            1            2 1.3382981e-16 
     230     96.40035        5 4.5510832e-16            2            1            2 1.3376291e-16 
     235     97.24189        5 4.5616322e-16            2            1            2 1.3369605e-16 
     240    98.053762        5 4.5722207e-16            2            1            2 1.3362922e-16 
     245    98.881481        5 4.5828488e-16            2            1            2 1.3356243e-16 
     250     99.71492        5 4.5935168e-16            2            1            2 1.3349567e-16 
     255    100.54921        5 4.6042247e-16            2            1            2 1.3342895e-16 
     260    101.43064        5 4.6149727e-16            2            1            2 1.3336226e-16 
     265    102.27012        5 4.6257609e-16            2            1            2 1.3329561e-16 
     270    103.11644        5 4.6365895e-16            2            1            2 1.3322899e-16 
     275    103.94806        5 4.6474585e-16            2            1            2 1.331624e-16 
     280     104.7581        5 4.6583682e-16            2            1            2 1.3309586e-16 
     285    105.61151        5 4.6693187e-16            2            1            2 1.3302934e-16 
     290    106.49046        5  4.68031e-16            2            1            2 1.3296287e-16 
     295    107.29202        5 4.6913425e-16            2            1            2 1.3289642e-16 
     300    108.19291        5 4.7024161e-16            2            1            2 1.3283002e-16 
     305    109.04075        5 4.7135311e-16            2            1            2 1.3276364e-16 
     310    109.95628        5 4.7246876e-16            2            1            2 1.3269731e-16 
     315    110.79721        5 4.7358857e-16            2            1            2  1.32631e-16 
     320    111.67321        5 4.7471256e-16            2            1            2 1.3256474e-16 
     325    112.63102        5 4.7584074e-16            2            1            2 1.3249851e-16 
     330    113.46479        5 4.7697313e-16            2            1            2 1.3243231e-16 
     335    114.31885        5 4.7810974e-16            2            1            2 1.3236615e-16 
     340    115.15514        5 4.7925058e-16            2            1            2 1.3230002e-16 
     345    116.01529        5 4.8039568e-16            2            1            2 1.3223393e-16 
     350    116.87402        5 4.8154504e-16            2            1            2 1.3216788e-16 
     355    117.70294        5 4.8269868e-16            2            1            2 1.3210186e-16 
     360    118.53956        5 4.8385662e-16            2            1            2 1.3203587e-16 
     365    119.38393        5 4.8501887e-16            2            1            2 1.3196993e-16 
     370     120.2478        5 4.8618544e-16            2            1            2 1.3190401e-16 
     375    121.17399        5 4.8735635e-16            2            1            2 1.3183813e-16 
     380    122.03033        5 4.8853162e-16            2            1            2 1.3177229e-16 
     385    122.87856        5 4.8971125e-16            2            1            2 1.3170648e-16 
     390    123.76616        5 4.9089528e-16            2            1            2 1.3164071e-16 
     395     124.6231        5 4.920837e-16            2            1            2 1.3157498e-16 
     400     125.4864        5 4.9327654e-16            2            1            2 1.3150928e-16 
     405     126.3557        5 4.9447381e-16            2            1            2 1.3144361e-16 
     410     127.2423        5 4.9567553e-16            2            1            2 1.3137798e-16 
     415    128.12697        5 4.968817e-16            2            1            2 1.3131239e-16 
     420    128.98544        5 4.9809236e-16            2            1            2 1.3124683e-16 
     425    129.83441        5 4.9930751e-16            2            1            2 1.3118131e-16 
     430    130.70089        5 5.0052717e-16            2            1            2 1.3111583e-16 
     435    131.59259        5 5.0175135e-16            2            1            2 1.3105038e-16 
     440    132.46621        5 5.0298007e-16            2            1            2 1.3098496e-16 
     445    133.34135        5 5.0421335e-16            2            1            2 1.3091958e-16 
     450    134.23094        5 5.054512e-16            2            1            2 1.3085424e-16 
     455    135.09046        5 5.0669364e-16            2            1            2 1.3078894e-16 
     460    135.97876        5 5.0794068e-16            2            1            2 1.3072367e-16 
     465    136.86944        5 5.0919234e-16            2            1            2 1.3065843e-16 
     470    137.76687        5 5.1044864e-16            2            1            2 1.3059323e-16 
     475    138.65232        5 5.1170959e-16            2            1            2 1.3052807e-16 
     480    139.52266        5 5.129752e-16            2            1            2 1.3046295e-16 
     485    140.41362        5 5.142455e-16            2            1            2 1.3039786e-16 
     490    141.32192        5 5.155205e-16            2            1            2 1.303328e-16 
     495    142.22546        5 5.1680022e-16            2            1            2 1.3026779e-16 
     500    143.10305        5 5.1808467e-16            2            1            2 1.3020281e-16 
     505    144.03414        5 5.1937387e-16            2            1            2 1.3013786e-16 
     510    144.97721        5 5.2066784e-16            2            1            2 1.3007296e-16 
     515    145.94896        5 5.2196659e-16            2            1            2 1.3000808e-16 
     520    146.83045        5 5.2327013e-16            2            1            2 1.2994325e-16 
     525    147.71411        5 5.245785e-16            2            1            2 1.2987845e-16 
     530    148.59615        5 5.2589169e-16            2            1            2 1.2981369e-16 
     535    149.48847        5 5.2720974e-16            2            1            2 1.2974896e-16 
     540    150.37745        5 5.2853265e-16            2            1            2 1.2968428e-16 
     545    151.28465        5 5.2986045e-16            2            1            2 1.2961963e-16 
     550    152.18083        5 5.3119315e-16            2            1            2 1.2955501e-16 
     555    153.06379        5 5.3253076e-16            2            1            2 1.2949043e-16 
     560    153.95498        5 5.3387331e-16            2            1            2 1.2942589e-16 
     565     154.8403        5 5.3522081e-16            2            1            2 1.2936139e-16 
     570    155.73405        5 5.3657327e-16            2            1            2 1.2929692e-16 
     575    156.63461        5 5.3793073e-16            2            1            2 1.2923249e-16 
     580    157.53663        5 5.3929319e-16            2            1            2 1.291681e-16 
     585    158.44749        5 5.4066067e-16            2            1            2 1.2910375e-16 
     590    159.34632        5 5.4203318e-16            2            1            2 1.2903943e-16 
     595    160.24534        5 5.4341076e-16            2            1            2 1.2897515e-16 
     600     161.1547        5 5.447934e-16            2            1            2 1.2891091e-16 
     605    162.05722        5 5.4618114e-16            2            1            2 1.288467e-16 
     610    162.96136        5 5.4757399e-16            2            1            2 1.2878253e-16 
     615      163.867        5 5.4897196e-16            2            1            2 1.287184e-16 
     620    164.79067        5 5.5037508e-16            2            1            2 1.2865431e-16 
     625    165.70579        5 5.5178336e-16            2            1            2 1.2859025e-16 
     630    166.63582        5 5.5319682e-16            2            1            2 1.2852624e-16 
     635    167.58879        5 5.5461548e-16            2            1            2 1.2846226e-16 
     640    168.50025        5 5.5603936e-16            2            1            2 1.2839832e-16 
     645    169.42644        5 5.5746847e-16            2            1            2 1.2833441e-16 
     650    170.37868        5 5.5890283e-16            2            1            2 1.2827055e-16 
     655    171.29642        5 5.6034247e-16            2            1            2 1.2820672e-16 
     660     172.2226        5 5.6178739e-16            2            1            2 1.2814293e-16 
     665    173.12522        5 5.6323763e-16            2            1            2 1.2807918e-16 
     670    173.99434        5 5.6469318e-16            2            1            2 1.2801547e-16 
     675    174.87022        5 5.6615409e-16            2            1            2 1.279518e-16 
     680    175.77541        5 5.6762036e-16            2            1            2 1.2788816e-16 
     685    176.66422        5 5.6909201e-16            2            1            2 1.2782456e-16 
     690    177.46015        5 5.7056906e-16            2            1            2 1.2776101e-16 
     695    178.26311        5 5.7205153e-16            2            1            2 1.2769749e-16 
     700    179.04278        5 5.7353944e-16            2            1            2 1.2763401e-16 
     705    179.78554        5 5.7503281e-16            2            1            2 1.2757057e-16 
     710    180.57222        5 5.7653166e-16            2            1            2 1.2750716e-16 
     715    181.32298        5  5.78036e-16            2            1            2 1.274438e-16 
     720    182.08565        5 5.7954585e-16            2            1            2 1.2738048e-16 
     725    182.86348        5 5.8106124e-16            2            1            2 1.2731719e-16 
     730    183.62014        5 5.8258219e-16            2            1            2 1.2725395e-16 
     735    184.40593        5 5.8410871e-16            2            1            2 1.2719074e-16 
     740     185.1467        5 5.8564082e-16            2            1            2 1.2712758e-16 
     745    185.93318        5 5.8717854e-16            2            1            2 1.2706445e-16 
     750    186.65736        5 5.8872189e-16            2            1            2 1.2700136e-16 
     755    187.38433        5 5.9027089e-16            2            1            2 1.2693832e-16 
     760     188.1181        5 5.9182557e-16            2            1            2 1.2687531e-16 
     765    188.85616        5 5.9338593e-16            2            1            2 1.2681234e-16 
     770    189.71262        5 5.9495201e-16            2            1            2 1.2674942e-16 
     775    190.48627        5 5.9652382e-16            2            1            2 1.2668653e-16 
     780    191.30918        5 5.9810137e-16            2            1            2 1.2662368e-16 
     785    192.10917        5 5.996847e-16            2            1            2 1.2656088e-16 
     790    192.87851        5 6.0127382e-16            2            1            2 1.2649811e-16 
     795    193.65864        5 6.0286875e-16            2            1            2 1.2643539e-16 
     800     194.3999        5 6.0446951e-16            2            1            2 1.2637271e-16 
     805     195.1435        5 6.0607612e-16            2            1            2 1.2631006e-16 
     810    195.90572        5 6.076886e-16            2            1            2 1.2624746e-16 
     815    196.66725        5 6.0930698e-16            2            1            2 1.261849e-16 
     820    197.45621        5 6.1093126e-16            2            1            2 1.2612238e-16 
     825    198.24811        5 6.1256149e-16            2            1            2 1.2605991e-16 
     830    199.07344        5 6.1419766e-16            2            1            2 1.2599747e-16 
     835    200.01914        5 6.1583981e-16            2            1            2 1.2593508e-16 
     840    200.79902        5 6.1748796e-16            2            1            2 1.2587272e-16 
     845    201.54818        5 6.1914212e-16            2            1            2 1.2581041e-16 
     850    202.28738        5 6.2080232e-16            2            1            2 1.2574814e-16 
     855    203.08619        5 6.2246858e-16            2            1            2 1.2568592e-16 
     860    203.85797        5 6.2414092e-16            2            1            2 1.2562373e-16 
     865    204.66752        5 6.2581936e-16            2            1            2 1.2556159e-16 
     870    205.50679        5 6.2750393e-16            2            1            2 1.2549949e-16 
     875    206.36091        5 6.2919464e-16            2            1            2 1.2543744e-16 
     880    207.16697        5 6.3089151e-16            2            1            2 1.2537542e-16 
     885    207.92811        5 6.3259457e-16            2            1            2 1.2531345e-16 
     890    208.72529        5 6.3430384e-16            2            1            2 1.2525152e-16 
     895    209.55645        5 6.3601934e-16            2            1            2 1.2518964e-16 
     900    210.38686        5 6.3774109e-16            2            1            2 1.251278e-16 
     905    211.14149        5 6.3946911e-16            2            1            2  1.25066e-16 
     910     211.9334        5 6.4120343e-16            2            1            2 1.2500425e-16 
     915    212.72118        5 6.4294407e-16            2            1            2 1.2494254e-16 
     920    213.53408        5 6.4469105e-16            2            1            2 1.2488087e-16 
     925    214.30927        5 6.4644439e-16            2            1            2 1.2481925e-16 
     930    215.11212        5 6.4820411e-16            2            1            2 1.2475767e-16 
     935    215.89778        5 6.4997025e-16            2            1            2 1.2469614e-16 
     940    216.71382        5 6.5174281e-16            2            1            2 1.2463465e-16 
     945    217.50126        5 6.5352182e-16            2            1            2 1.2457321e-16 
     950    218.30146        5 6.553073e-16            2            1            2 1.2451181e-16 
     955     219.1717        6 6.5709929e-16            2            1            3 1.2445046e-16 
     960    219.98321        6 6.5889779e-16            2            1            3 1.2438915e-16 
     965    220.79817        6 6.6070283e-16            2            1            3 1.2432789e-16 
     970    221.61754        6 6.6251444e-16            2            1            3 1.2426667e-16 
     975    222.43806        6 6.6433264e-16            2            1            3 1.242055e-16 
     980     223.2862        6 6.6615744e-16            2            1            3 1.2414437e-16 
     985    224.13642        6 6.6798889e-16            2            1            3 1.240833e-16 
     990    224.95248        7 6.6982699e-16            3            1            3 1.2402226e-16 
     995    225.87423        7 6.7167177e-16            3            1            3 1.2396128e-16 
    1000    226.84154        7 6.7352325e-16            3            1            3 1.2390034e-16 
    1005    227.84899        7 6.7538146e-16            3            1            3 1.2383945e-16 
    1010    228.80841        7 6.7724642e-16            3            1            3 1.237786e-16 
    1015    229.79763        7 6.7911816e-16            3            1            3 1.2371781e-16 
    1020    230.77556        7 6.809967e-16            3            1            3 1.2365706e-16 
    1025    231.57238        7 6.8288206e-16            3            1            3 1.2359635e-16 
    1030    232.40929        7 6.8477426e-16            3            1            3 1.235357e-16 
    1035    233.25775        7 6.8667333e-16            3            1            3 1.2347509e-16 
    1040    234.05598        7 6.885793e-16            3            1            3 1.2341454e-16 
    1045     234.9024        7 6.9049219e-16            3            1            3 1.2335403e-16 
    1050    235.89007        7 6.9241202e-16            3            1            3 1.2329357e-16 
    1055    236.83954        7 6.9433881e-16            3            1            3 1.2323315e-16 
    1060    237.79194        7 6.962726e-16            3            1            3 1.2317279e-16 
    1065    238.78892        7 6.982134e-16            3            1            3 1.2311248e-16 
    1070    239.73785        7 7.0016124e-16            3            1            3 1.2305222e-16 
    1075    240.54902        7 7.0211615e-16            3            1            3  1.22992e-16 
    1080    241.40525        7 7.0407815e-16            3            1            3 1.2293184e-16 
    1085    242.36131        7 7.0604726e-16            3            1            3 1.2287173e-16 
    1090    243.30088        7 7.0802351e-16            3            1            3 1.2281167e-16 
    1095    244.28363        7 7.1000692e-16            3            1            3 1.2275166e-16 
    1100    245.22739        7 7.1199753e-16            3            1            3 1.226917e-16 
    1105    246.18964        7 7.1399535e-16            3            1            3 1.2263179e-16 
    1110     247.2189        7 7.1600041e-16            3            1            3 1.2257193e-16 
    1115     248.2876        7 7.1801273e-16            3            1            3 1.2251213e-16 
    1120    249.33594        7 7.2003235e-16            3            1            3 1.2245237e-16 
    1125    250.27785        7 7.2205928e-16            3            1            3 1.2239267e-16 
    1130    251.16983        7 7.2409355e-16            3            1            3 1.2233302e-16 
    1135    252.12353        7 7.2613519e-16            3            1            3 1.2227343e-16 
    1140    253.12554        7 7.2818423e-16            3            1            3 1.2221389e-16 
    1145    254.10977        7 7.3024068e-16            3            1            3 1.221544e-16 
    1150    255.07338        7 7.3230458e-16            3            1            3 1.2209496e-16 
    1155    256.01135        7 7.3437595e-16            3            1            3 1.2203558e-16 
    1160    257.02596        7 7.3645482e-16            3            1            3 1.2197626e-16 
    1165    257.91069        7 7.3854122e-16            3            1            3 1.2191699e-16 
    1170    258.85337        7 7.4063516e-16            3            1            3 1.2185777e-16 
    1175     259.8497        7 7.4273668e-16            3            1            3 1.2179861e-16 
    1180    260.94046        7 7.4484581e-16            3            1            3 1.217395e-16 
    1185    261.98349        7 7.4696256e-16            3            1            3 1.2168045e-16 
    1190    262.96018        7 7.4908697e-16            3            1            3 1.2162146e-16 
    1195    263.93096        7 7.5121907e-16            3            1            3 1.2156252e-16 
    1200    264.85445        7 7.5335888e-16            3            1            3 1.2150364e-16 
    1205    265.78735        7 7.5550642e-16            3            1            3 1.2144481e-16 
    1210    266.79102        7 7.5766173e-16            3            1            3 1.2138604e-16 
    1215    267.85611        7 7.5982483e-16            3            1            3 1.2132734e-16 
    1220    268.96929        7 7.6199576e-16            3            1            3 1.2126868e-16 
    1225    269.97057        7 7.6417453e-16            3            1            3 1.2121009e-16 
    1230    270.98598        7 7.6636117e-16            3            1            3 1.2115156e-16 
    1235    271.93673        7 7.6855572e-16            3            1            3 1.2109308e-16 
    1240     272.8326        7 7.7075819e-16            3            1            3 1.2103466e-16 
    1245    274.00793        7 7.7296863e-16            3            1            3 1.2097631e-16 
    1250    275.19713        7 7.7518705e-16            3            1            3 1.2091801e-16 
    1255     276.2959        7 7.7741348e-16            3            1            3 1.2085977e-16 
    1260    277.29789        7 7.7964796e-16            3            1            3 1.208016e-16 
    1265    278.33092        7 7.8189051e-16            3            1            3 1.2074348e-16 
    1270    279.45876        7 7.8414116e-16            3            1            3 1.2068543e-16 
    1275    280.50043        8 7.8639993e-16            4            1            3 1.2062744e-16 
    1280    281.54566        8 7.8866686e-16            4            1            3 1.2056951e-16 
    1285     282.6274        8 7.9094197e-16            4            1            3 1.2051164e-16 
    1290    283.68941        8 7.932253e-16            4            1            3 1.2045384e-16 
    1295    284.79489        8 7.9551687e-16            4            1            3 1.203961e-16 
    1300    285.89347        8 7.9781671e-16            4            1            3 1.2033842e-16 
    1305    287.13592        8 8.0012485e-16            4            1            3 1.2028081e-16 
    1310    288.33948        8 8.0244132e-16            4            1            3 1.2022326e-16 
    1315    289.33512        8 8.0476615e-16            4            1            3 1.2016578e-16 
    1320    290.43162        8 8.0709937e-16            4            1            3 1.2010837e-16 
    1325    291.48502        8 8.0944101e-16            4            1            3 1.2005101e-16 
    1330    292.61233        8 8.1179109e-16            4            1            3 1.1999373e-16 
    1335    293.63724        8 8.1414965e-16            4            1            3 1.1993651e-16 
    1340    294.66244        8 8.1651671e-16            4            1            3 1.1987936e-16 
    1345    295.78309        8 8.1889232e-16            4            1            3 1.1982228e-16 
    1350    296.72859        8 8.2127649e-16            4            1            3 1.1976526e-16 
    1355    297.80316        8 8.2366925e-16            4            1            3 1.1970831e-16 
    1360    298.95354        8 8.2607065e-16            4            1            3 1.1965143e-16 
    1365    300.08585        8 8.284807e-16            4            1            3 1.1959463e-16 
    1370    301.22351        8 8.3089944e-16            4            1            3 1.1953789e-16 
    1375    302.37636        8 8.333269e-16            4            1            3 1.1948122e-16 
    1380    303.52661        8 8.3576311e-16            4            1            3 1.1942462e-16 
    1385    304.65507        8 8.382081e-16            4            1            3 1.1936809e-16 
    1390    305.80445        8 8.4066189e-16            4            1            3 1.1931164e-16 
    1395    306.97071        8 8.4312454e-16            4            1            3 1.1925526e-16 
    1400     307.9232        8 8.4559605e-16            4            1            3 1.1919895e-16 
    1405    308.88394        8 8.4807647e-16            4            1            3 1.1914271e-16 
    1410    309.82106        8 8.5056583e-16            4            1            3 1.1908655e-16 
    1415    310.70646        8 8.5306415e-16            4            1            3 1.1903046e-16 
    1420    311.55536        8 8.5557147e-16            4            1            3 1.1897445e-16 
    1425    312.46257        8 8.5808783e-16            4            1            3 1.1891851e-16 
    1430    313.36779        9 8.6061324e-16            4            1            4 1.1886265e-16 
    1435    314.31459        9 8.6314775e-16            4            1            4 1.1880686e-16 
    1440      315.289        9 8.6569139e-16            4            1            4 1.1875115e-16 
    1445     316.2656        9 8.6824419e-16            4            1            4 1.1869552e-16 
    1450     317.2201        9 8.7080617e-16            4            1            4 1.1863997e-16 
    1455    318.09392        9 8.7337738e-16            4            1            4 1.185845e-16 
    1460     318.9648        9 8.7595785e-16            4            1            4 1.185291e-16 
    1465     319.6149        9 8.7854761e-16            4            1            4 1.1847379e-16 
    1470    320.30174        9 8.8114668e-16            4            1            4 1.1841855e-16 
    1475    320.97219        9 8.8375512e-16            4            1            4 1.183634e-16 
    1480    321.67625        9 8.8637294e-16            4            1            4 1.1830833e-16 
    1485    322.34146        9 8.8900018e-16            4            1            4 1.1825334e-16 
    1490    323.04941        9 8.9163687e-16            4            1            4 1.1819843e-16 
    1495    323.75499        9 8.9428305e-16            4            1            4 1.1814361e-16 
    1500    324.43195        9 8.9693875e-16            4            1            4 1.1808887e-16 
    1505    325.11208        9 8.9960401e-16            4            1            4 1.1803422e-16 
    1510    325.78722        9 9.0227886e-16            4            1            4 1.1797965e-16 
    1515    326.49222        9 9.0496332e-16            4            1            4 1.1792517e-16 
    1520    327.18245        9 9.0765745e-16            4            1            4 1.1787077e-16 
    1525    327.85278        9 9.1036126e-16            4            1            4 1.1781647e-16 
    1530    328.53923        9 9.130748e-16            4            1            4 1.1776225e-16 
    1535      329.236        9 9.1579809e-16            4            1            4 1.1770812e-16 
    1540    329.92361        9 9.1853118e-16            4            1            4 1.1765408e-16 
    1545     330.6192        9 9.212741e-16            4            1            4 1.1760013e-16 
    1550    331.34916        9 9.2402688e-16            4            1            4 1.1754627e-16 
    1555     332.0335        9 9.2678956e-16            4            1            4 1.174925e-16 
    1560    332.71556        9 9.2956217e-16            4            1            4 1.1743882e-16 
    1565     333.4201        9 9.3234475e-16            4            1            4 1.1738524e-16 
    1570    334.09773        9 9.3513733e-16            4            1            4 1.1733175e-16 
    1575    334.81258        9 9.3793995e-16            4            1            4 1.1727836e-16 
    1580    335.52219        9 9.4075265e-16            4            1            4 1.1722506e-16 
    1585    336.23092        9 9.4357545e-16            4            1            4 1.1717186e-16 
    1590    336.96487        9 9.464084e-16            4            1            4 1.1711876e-16 
    1595     337.7089        9 9.4925153e-16            4            1            4 1.1706575e-16 
    1600    338.41009        9 9.5210488e-16            4            1            4 1.1701284e-16 
    1605    339.12323        9 9.5496848e-16            4            1            4 1.1696004e-16 
    1610    339.81771        9 9.5784237e-16            4            1            4 1.1690733e-16 
    1615    340.53899        9 9.6072659e-16            4            1            4 1.1685472e-16 
    1620    341.25759        9 9.6362117e-16            4            1            4 1.1680222e-16 
    1625    341.96914        9 9.6652614e-16            4            1            4 1.1674981e-16 
    1630    342.70043        9 9.6944156e-16            4            1            4 1.1669752e-16 
    1635    343.44126        9 9.7236745e-16            4            1            4 1.1664532e-16 
    1640      344.174        9 9.7530385e-16            4            1            4 1.1659323e-16 
    1645    344.90223        9 9.782508e-16            4            1            4 1.1654125e-16 
    1650    345.62479        9 9.8120833e-16            4            1            4 1.1648938e-16 
    1655    346.36936        9 9.8417649e-16            4            1            4 1.1643761e-16 
    1660    347.09307        9 9.871553e-16            4            1            4 1.1638595e-16 
    1665      347.831        9 9.9014482e-16            4            1            4 1.1633441e-16 
    1670    348.56789        9 9.9314507e-16            4            1            4 1.1628297e-16 
    1675    349.29399        9 9.9615609e-16            4            1            4 1.1623165e-16 
    1680    350.05094        9 9.9917793e-16            4            1            4 1.1618044e-16 
    1685    350.80476        9 1.0022106e-15            4            1            4 1.1612934e-16 
    1690    351.54836        9 1.0052542e-15            4            1            4 1.1607836e-16 
    1695    352.29564        9 1.0083087e-15            4            1            4 1.1602749e-16 
    1700     353.0379        9 1.0113742e-15            4            1            4 1.1597674e-16 
    1705    353.80154        9 1.0144506e-15            4            1            4 1.1592611e-16 
    1710    354.56681        9 1.0175382e-15            4            1            4 1.158756e-16 
    1715    355.32329        9 1.0206368e-15            4            1            4 1.158252e-16 
    1720    356.04971        9 1.0237465e-15            4            1            4 1.1577493e-16 
    1725    356.81588        9 1.0268674e-15            4            1            4 1.1572478e-16 
    1730    357.56027        9 1.0299995e-15            4            1            4 1.1567476e-16 
    1735    358.31677        9 1.0331428e-15            4            1            4 1.1562485e-16 
    1740    359.08744        9 1.0362975e-15            4            1            4 1.1557508e-16 
    1745    359.84038        9 1.0394634e-15            4            1            4 1.1552543e-16 
    1750    360.60042        9 1.0426407e-15            4            1            4 1.1547591e-16 
    1755    361.42262        9 1.0458294e-15            4            1            4 1.1542651e-16 
    1760     362.1829        9 1.0490296e-15            4            1            4 1.1537725e-16 
    1765    362.96171        9 1.0522412e-15            4            1            4 1.1532812e-16 
    1770    363.73474        9 1.0554644e-15            4            1            4 1.1527912e-16 
    1775    364.49362        9 1.0586991e-15            4            1            4 1.1523026e-16 
    1780    365.29819        9 1.0619455e-15            4            1            4 1.1518153e-16 
    1785    366.10547        9 1.0652035e-15            4            1            4 1.1513293e-16 
    1790     366.8821        9 1.0684731e-15            4            1            4 1.1508447e-16 
    1795    367.66714        9 1.0717545e-15            4            1            4 1.1503616e-16 
    1800    368.47417        9 1.0750477e-15            4            1            4 1.1498798e-16 
    1805    369.25816        9 1.0783527e-15            4            1            4 1.1493994e-16 
    1810    370.03254        9 1.0816696e-15            4            1            4 1.1489205e-16 
    1815    370.84757        9 1.0849984e-15            4            1            4 1.148443e-16 
    1820    371.61157        9 1.0883391e-15            4            1            4 1.1479669e-16 
    1825    372.46291        9 1.0916918e-15            4            1            4 1.1474923e-16 
    1830     373.2364        9 1.0950565e-15            4            1            4 1.1470192e-16 
    1835    374.03154       10 1.0984333e-15            4            1            5 1.1465476e-16 
    1840    374.84518       10 1.1018222e-15            4            1            5 1.1460775e-16 
    1845    375.68116       10 1.1052232e-15            4            1            5 1.1456089e-16 
    1850    376.49878       10 1.1086365e-15            4            1            5 1.1451418e-16 
    1855    377.32898       10 1.112062e-15            4            1            5 1.1446763e-16 
    1860    378.14339       10 1.1154998e-15            4            1            5 1.1442124e-16 
    1865    378.97406       10 1.1189499e-15            4            1            5 1.1437501e-16 
    1870    379.77098       10 1.1224124e-15            4            1            5 1.1432893e-16 
    1875    380.60596       10 1.1258874e-15            4            1            5 1.1428302e-16 
    1880    381.44801       10 1.1293747e-15            4            1            5 1.1423726e-16 
    1885    382.27928       10 1.1328746e-15            4            1            5 1.1419168e-16 
    1890    383.11854       10 1.1363871e-15            4            1            5 1.1414625e-16 
    1895    383.94488       10 1.1399121e-15            4            1            5  1.14101e-16 
    1900     384.8116       10 1.1434498e-15            4            1            5 1.1405591e-16 
    1905    385.65431       11 1.1470002e-15            5            1            5  1.14011e-16 
    1910    386.46447       11 1.1505633e-15            5            1            5 1.1396625e-16 
    1915    387.32112       11 1.1541392e-15            5            1            5 1.1392169e-16 
    1920    388.15359       11 1.157728e-15            5            1            5 1.1387729e-16 
    1925    389.02757       11 1.1613296e-15            5            1            5 1.1383308e-16 
    1930    389.91845       11 1.1649441e-15            5            1            5 1.1378904e-16 
    1935    390.79731       11 1.1685716e-15            5            1            5 1.1374518e-16 
    1940    391.69112       11 1.1722121e-15            5            1            5 1.1370151e-16 
    1945    392.53884       11 1.1758656e-15            5            1            5 1.1365802e-16 
    1950    393.41578       11 1.1795323e-15            5            1            5 1.1361472e-16 
    1955    394.29139       11 1.1832121e-15            5            1            5 1.135716e-16 
    1960    395.20346       11 1.1869051e-15            5            1            5 1.1352868e-16 
    1965    396.05815       11 1.1906113e-15            5            1            5 1.1348594e-16 
    1970    396.93866       11 1.1943309e-15            5            1            5 1.134434e-16 
    1975     397.8128       11 1.1980637e-15            5            1            5 1.1340106e-16 
    1980    398.69128       11  1.20181e-15            5            1            5 1.1335891e-16 
    1985    399.56457       11 1.2055697e-15            5            1            5 1.1331697e-16 
    1990    400.47923       11 1.2093429e-15            5            1            5 1.1327522e-16 
    1995    401.38503       11 1.2131296e-15            5            1            5 1.1323368e-16 
    2000    402.26772       11  1.21693e-15            5            1            5 1.1319234e-16 
    2005    403.15273       11 1.2207439e-15            5            1            5 1.1315121e-16 
    2010      404.097       11 1.2245715e-15            5            1            5 1.1311029e-16 
    2015    405.00889       11 1.2284129e-15            5            1            5 1.1306958e-16 
    2020    405.93596       12 1.232268e-15            6            1            5 1.1302909e-16 
    2025    406.83784       12 1.236137e-15            6            1            5 1.1298881e-16 
    2030    407.72701       12 1.2400198e-15            6            1            5 1.1294875e-16 
    2035     408.6194       12 1.2439166e-15            6            1            5 1.1290891e-16 
    2040    409.54198       12 1.2478273e-15            6            1            5 1.128693e-16 
    2045    410.44736       12 1.2517521e-15            6            1            5 1.1282991e-16 
    2050    411.36978       13 1.2556909e-15            7            1            5 1.1279074e-16 
    2055    412.31928       13 1.2596439e-15            7            1            5 1.1275181e-16 
    2060    413.26676       13 1.2636111e-15            7            1            5 1.127131e-16 
    2065    414.22676       13 1.2675925e-15            7            1            5 1.1267463e-16 
    2070     415.1518       13 1.2715881e-15            7            1            5 1.126364e-16 
    2075    416.07597       13 1.2755982e-15            7            1            5 1.1259841e-16 
    2080     417.0685       13 1.2796226e-15            7            1            5 1.1256066e-16 
    2085    418.05433       13 1.2836614e-15            7            1            5 1.1252315e-16 
    2090    419.00168       13 1.2877147e-15            7            1            5 1.1248589e-16 
    2095     419.9882       13 1.2917826e-15            7            1            5 1.1244888e-16 
    2100    420.95703       13 1.295865e-15            7            1            5 1.1241212e-16 
    2105    421.89426       13 1.2999622e-15            7            1            5 1.1237561e-16 
    2110    422.83606       13 1.304074e-15            7            1            5 1.1233936e-16 
    2115    423.79254       13 1.3082005e-15            7            1            5 1.1230337e-16 
    2120    424.77237       13 1.3123419e-15            7            1            5 1.1226764e-16 
    2125    425.73094       13 1.3164982e-15            7            1            5 1.1223218e-16 
    2130    426.73945       14 1.3206693e-15            7            1            6 1.1219698e-16 
    2135    427.67611       14 1.3248554e-15            7            1            6 1.1216205e-16 
    2140    428.65059       14 1.3290566e-15            7            1            6 1.121274e-16 
    2145     429.6118       14 1.3332728e-15            7            1            6 1.1209303e-16 
    2150    430.63308       14 1.3375041e-15            7            1            6 1.1205893e-16 
    2155    431.62058       14 1.3417507e-15            7            1            6 1.1202511e-16 
    2160    432.60026       14 1.3460125e-15            7            1            6 1.1199158e-16 
    2165    433.57642       14 1.3502895e-15            7            1            6 1.1195834e-16 
    2170    434.55972       14 1.354582e-15            7            1            6 1.1192538e-16 
    2175    435.51343       14 1.3588898e-15            7            1            6 1.1189273e-16 
    2180    436.50104       14 1.3632131e-15            7            1            6 1.1186036e-16 
    2185    437.54506       14 1.3675519e-15            7            1            6 1.118283e-16 
    2190    438.54098       14 1.3719063e-15            7            1            6 1.1179654e-16 
    2195    439.53999       14 1.3762764e-15            7            1            6 1.1176509e-16 
    2200     440.5482       14 1.3806621e-15            7            1            6 1.1173394e-16 
    2205    441.59451       14 1.3850636e-15            7            1            6 1.1170311e-16 
    2210    442.61989       15 1.3894808e-15            7            1            7 1.116726e-16 
    2215    443.68023       15 1.393914e-15            7            1            7 1.116424e-16 
    2220    444.68524       15 1.398363e-15            7            1            7 1.1161253e-16 
    2225    445.71654       15 1.4028281e-15            7            1            7 1.1158298e-16 
    2230    446.74091       15 1.4073091e-15            7            1            7 1.1155377e-16 
    2235    447.79866       15 1.4118063e-15            7            1            7 1.1152488e-16 
    2240     448.8772       15 1.4163196e-15            7            1            7 1.1149633e-16 
    2245    449.88165       15 1.4208492e-15            7            1            7 1.1146813e-16 
    2250    450.88796       15 1.425395e-15            7            1            7 1.1144026e-16 
    2255    451.97475       15 1.4299571e-15            7            1            7 1.1141275e-16 
    2260    453.01118       15 1.4345356e-15            7            1            7 1.1138558e-16 
    2265    454.03705       15 1.4391306e-15            7            1            7 1.1135877e-16 
    2270     455.0816       15 1.443742e-15            7            1            7 1.1133232e-16 
    2275    456.12285       15 1.4483701e-15            7            1            7 1.1130624e-16 
    2280    457.16023       15 1.4530148e-15            7            1            7 1.1128051e-16 
    2285      458.189       15 1.4576761e-15            7            1            7 1.1125516e-16 
    2290    459.25347       15 1.4623543e-15            7            1            7 1.1123018e-16 
    2295    460.33476       15 1.4670492e-15            7            1            7 1.1120559e-16 
    2300    461.43895       15 1.471761e-15            7            1            7 1.1118137e-16 
    2305    462.54514       15 1.4764897e-15            7            1            7 1.1115754e-16 
    2310    463.58543       15 1.4812355e-15            7            1            7 1.111341e-16 
    2315    464.62181       15 1.4859983e-15            7            1            7 1.1111105e-16 
    2320    465.69239       15 1.4907782e-15            7            1            7 1.1108841e-16 
    2325    466.75081       15 1.4955753e-15            7            1            7 1.1106617e-16 
    2330    467.85682       15 1.5003897e-15            7            1            7 1.1104433e-16 
    2335    468.93664       15 1.5052214e-15            7            1            7 1.1102291e-16 
    2340    469.97335       15 1.5100704e-15            7            1            7 1.110019e-16 
    2345    470.99798       15 1.5149369e-15            7            1            7 1.1098132e-16 
    2350    472.09596       15 1.5198209e-15            7            1            7 1.1096116e-16 
    2355    473.20877       15 1.5247225e-15            7            1            7 1.1094143e-16 
    2360    474.31976       15 1.5296417e-15            7            1            7 1.1092214e-16 
    2365    475.42501       15 1.5345786e-15            7            1            7 1.1090328e-16 
    2370    476.57572       15 1.5395332e-15            7            1            7 1.1088487e-16 
    2375    477.68836       15 1.5445057e-15            7            1            7 1.1086691e-16 
    2380    478.77618       15 1.5494961e-15            7            1            7 1.108494e-16 
    2385    479.88427       15 1.5545044e-15            7            1            7 1.1083235e-16 
    2390    481.04369       15 1.5595308e-15            7            1            7 1.1081577e-16 
    2395    482.20343       15 1.5645752e-15            7            1            7 1.1079965e-16 
    2400    483.32341       15 1.5696378e-15            7            1            7 1.1078401e-16 
    2405    484.46494       15 1.5747187e-15            7            1            7 1.1076885e-16 
    2410    485.61029       15 1.5798178e-15            7            1            7 1.1075417e-16 
    2415    486.76188       15 1.5849353e-15            7            1            7 1.1073998e-16 
    2420    487.87521       15 1.5900712e-15            7            1            7 1.1072629e-16 
    2425    489.02238       15 1.5952256e-15            7            1            7 1.107131e-16 
    2430     490.1879       15 1.6003986e-15            7            1            7 1.1070041e-16 
    2435    491.34361       15 1.6055902e-15            7            1            7 1.1068824e-16 
    2440    492.49696       15 1.6108006e-15            7            1            7 1.1067658e-16 
    2445    493.64601       15 1.6160296e-15            7            1            7 1.1066544e-16 
    2450    494.77486       15 1.6212776e-15            7            1            7 1.1065484e-16 
    2455    495.93148       15 1.6265444e-15            7            1            7 1.1064476e-16 
    2460    497.03958       15 1.6318302e-15            7            1            7 1.1063523e-16 
    2465    498.13456       15 1.6371351e-15            7            1            7 1.1062624e-16 
    2470    499.30321       15 1.6424591e-15            7            1            7 1.1061781e-16 
    2475    500.47916       15 1.6478023e-15            7            1            7 1.1060993e-16 
    2480    501.62821       16 1.6531647e-15            8            1            7 1.1060262e-16 
    2485    502.85787       16 1.6585465e-15            8            1            7 1.1059587e-16 
    2490    504.05203       16 1.6639477e-15            8            1            7 1.1058971e-16 
    2495    505.27621       16 1.6693684e-15            8            1            7 1.1058413e-16 
    2500    506.48642       16 1.6748086e-15            8            1            7 1.1057913e-16 
    2505    507.68781       16 1.6802685e-15            8            1            7 1.1057473e-16 
    2510    508.89251       16 1.685748e-15            8            1            7 1.1057094e-16 
    2515    510.09075       16 1.6912474e-15            8            1            7 1.1056775e-16 
    2520    511.28466       16 1.6967665e-15            8            1            7 1.1056518e-16 
    2525    512.51952       16 1.7023056e-15            8            1            7 1.1056323e-16 
    2530    513.71464       16 1.7078647e-15            8            1            7 1.1056191e-16 
    2535    514.89131       16 1.7134438e-15            8            1            7 1.1056123e-16 
    2540    516.11092       16 1.7190431e-15            8            1            7 1.1056113e-16 
    2545    517.32704       16 1.724662e-15            8            1            7 1.1056113e-16 
    2550    518.49654       16 1.7303005e-15            8            1            7 1.1056113e-16 
    2555    519.71019       16 1.7359588e-15            8            1            7 1.1056113e-16 
    2560     520.9387       16 1.7416368e-15            8            1            7 1.1056113e-16 
    2565    522.18271       16 1.7473346e-15            8            1            7 1.1056113e-16 
    2570    523.40179       16 1.7530524e-15            8            1            7 1.1056113e-16 
    2575    524.60548       16 1.7587902e-15            8            1            7 1.1056113e-16 
    2580    525.85424       16 1.764548e-15            8            1            7 1.1056113e-16 
    2585    527.06818       16 1.7703259e-15            8            1            7 1.1056113e-16 
    2590    528.34471       16 1.776124e-15            8            1            7 1.1056113e-16 
    2595    529.55956       16 1.7819424e-15            8            1            7 1.1056113e-16 
    2600    530.77213       16 1.7877811e-15            8            1            7 1.1056113e-16 
    2605    532.04446       16 1.7936405e-15            8            1            7 1.1056141e-16 
    2610    533.33208       16 1.7995201e-15            8            1            7 1.1056141e-16 
    2615    534.59246       16 1.8054203e-15            8            1            7 1.1056141e-16 
    2620    535.83114       16 1.811341e-15            8            1            7 1.1056141e-16 
    2625    537.15364       16 1.8172828e-15            8            1            7 1.1056169e-16 
    2630    538.43426       16 1.823245e-15            8            1            7 1.1056169e-16 
    2635    539.70375       16 1.8292283e-15            8            1            7 1.1056197e-16 
    2640    540.99672       16 1.8352323e-15            8            1            7 1.1056197e-16 
    2645    542.25701       16 1.8412572e-15            8            1            7 1.1056197e-16 
    2650    543.56162       16 1.8473035e-15            8            1            7 1.1056225e-16 
    2655    544.82077       16 1.8533707e-15            8            1            7 1.1056225e-16 
    2660     546.1734       16 1.8594593e-15            8            1            7 1.1056253e-16 
    2665      547.471       16 1.8655689e-15            8            1            7 1.1056253e-16 
    2670    548.78334       16 1.8717002e-15            8            1            7 1.1056281e-16 
    2675    550.11157       16 1.8778526e-15            8            1            7 1.1056281e-16 
    2680    551.41402       16 1.8840267e-15            8            1            7 1.105631e-16 
    2685    552.71102       16 1.8902222e-15            8            1            7 1.105631e-16 
    2690    554.01706       16 1.8964396e-15            8            1            7 1.1056338e-16 
    2695    555.32812       16 1.9026788e-15            8            1            7 1.1056366e-16 
    2700    556.62162       16 1.9089394e-15            8            1            7 1.1056366e-16 
    2705    557.93703       16 1.9152223e-15            8            1            7 1.1056395e-16 
    2710    559.20502       16 1.921527e-15            8            1            7 1.1056424e-16 
    2715    560.51444       16 1.9278536e-15            8            1            7 1.1056424e-16 
    2720    561.80661       16 1.9342025e-15            8            1            7 1.1056452e-16 
    2725    563.16797       17 1.9405736e-15            8            1            8 1.105648e-16 
    2730     564.5105       17 1.9469667e-15            8            1            8 1.105648e-16 
    2735    565.88121       17 1.9533824e-15            8            1            8 1.1056509e-16 
    2740    567.22913       17 1.9598206e-15            8            1            8 1.1056537e-16 
    2745    568.57391       17 1.9662812e-15            8            1            8 1.1056566e-16 
    2750    569.92168       17 1.9727644e-15            8            1            8 1.1056595e-16 
    2755    571.28041       17  1.97927e-15            8            1            8 1.1056595e-16 
    2760    572.67349       17 1.9857987e-15            8            1            8 1.1056624e-16 
    2765    574.08043       17 1.9923501e-15            8            1            8 1.1056653e-16 
    2770    575.49468       17 1.9989244e-15            8            1            8 1.1056681e-16 
    2775    576.88778       17 2.0055217e-15            8            1            8 1.1056711e-16 
    2780    578.26093       17 2.0121421e-15            8            1            8 1.1056739e-16 
    2785    579.65006       17 2.0187856e-15            8            1            8 1.1056767e-16 
    2790     580.9717       17 2.0254523e-15            8            1            8 1.1056796e-16 
    2795    582.35154       17 2.0321423e-15            8            1            8 1.1056824e-16 
    2800    583.70923       17 2.0388557e-15            8            1            8 1.1056853e-16 
    2805    585.16763       17 2.0455925e-15            8            1            8 1.1056883e-16 
    2810    586.60924       17 2.052353e-15            8            1            8 1.1056913e-16 
    2815     587.9975       17 2.059137e-15            8            1            8 1.1056941e-16 
    2820    589.40651       18 2.0659447e-15            9            1            8 1.105697e-16 
    2825     592.8292       19 2.0727777e-15            9            1            9 1.1057146e-16 
    2830    593.05538       19 2.0796351e-15            9            1            9 1.1057368e-16 
    2835    593.70147       19 2.0865157e-15            9            1            9 1.1057527e-16 
    2840    595.09709       19 2.0934195e-15            9            1            9 1.1057587e-16 
    2845    596.61107       19 2.100347e-15            9            1            9 1.1057616e-16 
    2850    598.04976       19 2.1072988e-15            9            1            9 1.1057646e-16 
    2855    599.46645       19 2.1142748e-15            9            1            9 1.1057675e-16 
    2860    600.92258       19 2.1212756e-15            9            1            9 1.1057735e-16 
    2865    602.34739       19 2.1283005e-15            9            1            9 1.1057766e-16 
    2870    603.77938       19 2.1353499e-15            9            1            9 1.1057794e-16 
    2875     605.1941       19 2.1424243e-15            9            1            9 1.1057854e-16 
    2880    606.66785       20 2.1495231e-15            9            1           10 1.1057883e-16 
    2885    608.13239       20 2.1566471e-15            9            1           10 1.1057942e-16 
    2890    609.66354       20 2.1637956e-15            9            1           10 1.1057973e-16 
    2895    611.12743       20 2.1709694e-15            9            1           10 1.105803e-16 
    2900    612.60276       20 2.178168e-15            9            1           10 1.1058061e-16 
    2905    614.03449       20 2.185392e-15            9            1           10 1.1058119e-16 
    2910    615.48359       20 2.192641e-15            9            1           10 1.1058148e-16 
    2915    616.93072       20 2.1999155e-15            9            1           10 1.1058204e-16 
    2920    618.37686       21 2.2072156e-15           10            1           10 1.1058262e-16 
    2925    619.82914       21 2.2145408e-15           10            1           10 1.1058291e-16 
    2930    621.30031       21 2.2218919e-15           10            1           10 1.105835e-16 
    2935    625.17888       22 2.2292713e-15           11            1           10 1.1058661e-16 
    2940    625.40772       22 2.2366768e-15           11            1           10 1.1059006e-16 
    2945     625.6416       22 2.2441077e-15           11            1           10 1.1059307e-16 
    2950     625.8785       22 2.2515642e-15           11            1           10 1.1059571e-16 
    2955    626.11263       22 2.2590465e-15           11            1           10 1.1059803e-16 
    2960     626.3485       22 2.2665546e-15           11            1           10 1.1060008e-16 
    2965    626.58535       22 2.2740888e-15           11            1           10 1.106019e-16 
    2970    626.81368       22 2.281649e-15           11            1           10 1.1060353e-16 
    2975    627.04803       22 2.2892355e-15           11            1           10 1.1060499e-16 
    2980    627.30913       22 2.2968477e-15           11            1           10 1.1060555e-16 
    2985    627.54095       22 2.3044864e-15           11            1           10 1.106061e-16 
    2990    627.78839       22 2.3121518e-15           11            1           10 1.1060666e-16 
    2995    628.02784       23 2.3198441e-15           11            1           11 1.1060722e-16 
    3000    628.30356       24 2.3275632e-15           12            1           11 1.1060778e-16 
    3005    628.53896       24 2.3353093e-15           12            1           11 1.1060833e-16 
    3010    628.78883       24 2.3430821e-15           12            1           11 1.1060861e-16 
    3015    629.05993       24 2.3508825e-15           12            1           11 1.1060917e-16 
    3020    630.28312       24 2.3587101e-15           12            1           11 1.1060975e-16 
    3025    631.47978       24 2.3665651e-15           12            1           11 1.1061034e-16 
    3030    632.71238       24 2.3744475e-15           12            1           11 1.1061094e-16 
    3035    633.91211       24 2.3823575e-15           12            1           11 1.1061153e-16 
    3040    635.12546       24 2.3902951e-15           12            1           11 1.106121e-16 
    3045    636.31258       24 2.3982605e-15           12            1           11 1.1061268e-16 
    3050    637.54222       25 2.4062537e-15           13            1           11 1.1061327e-16 
    3055    638.76371       25 2.4142748e-15           13            1           11 1.1061386e-16 
    3060    640.06262       25 2.422324e-15           13            1           11 1.1061445e-16 
    3065     641.3174       25 2.4304013e-15           13            1           11 1.1061506e-16 
    3070    642.57215       25 2.4385068e-15           13            1           11 1.1061563e-16 
    3075    643.78666       26 2.4466407e-15           14            1           11 1.1061623e-16 
    3080    645.44949       26 2.454803e-15           14            1           11 1.1061684e-16 
    3085    647.12763       26 2.4629938e-15           14            1           11 1.1061741e-16 
    3090    648.76956       26 2.4712136e-15           14            1           11 1.1061832e-16 
    3095    650.42569       26 2.4794618e-15           14            1           11 1.1061896e-16 
    3100    652.08442       26 2.4877388e-15           14            1           11 1.1061953e-16 
    3105    653.72361       26 2.496045e-15           14            1           11 1.1062037e-16 
    3110    655.41189       26 2.5043799e-15           14            1           11 1.1062093e-16 
    3115    657.14357       26 2.5127443e-15           14            1           11 1.1062179e-16 
    3120    658.74573       26 2.5211376e-15           14            1           11 1.1062237e-16 
    3125     660.3744       26 2.5295605e-15           14            1           11 1.1062325e-16 
    3130    662.03269       26 2.5380126e-15           14            1           11 1.1062384e-16 
    3135     663.7094       26 2.5464946e-15           14            1           11 1.1062474e-16 
    3140    665.36281       26 2.5550059e-15           14            1           11 1.1062536e-16 
    3145    667.06453       26 2.5635472e-15           14            1           11 1.1062628e-16 
    3150    668.70565       27 2.5721182e-15           14            1           12 1.1062691e-16 
    3155    670.37313       27 2.5807193e-15           14            1           12 1.1062787e-16 
    3160    672.03387       27 2.5893503e-15           14            1           12 1.1062851e-16 
    3165    673.68912       27 2.5980117e-15           14            1           12 1.1062949e-16 
    3170    675.34665       27 2.6067031e-15           14            1           12 1.1063015e-16 
    3175    676.99253       27 2.6154252e-15           14            1           12 1.1063116e-16 
    3180    678.67473       27 2.6241775e-15           14            1           12 1.1063184e-16 
    3185    680.34306       27 2.6329607e-15           14            1           12 1.1063288e-16 
    3190    682.01173       27 2.6417743e-15           14            1           12 1.1063358e-16 
    3195    683.67186       27 2.6506191e-15           14            1           12 1.1063464e-16 
    3200    685.32835       27 2.6594944e-15           14            1           12 1.1063536e-16 
    3205    687.01464       27 2.6684011e-15           14            1           12 1.1063645e-16 
    3210     688.6564       27 2.6773388e-15           14            1           12 1.1063741e-16 
    3215    690.32567       27 2.6863077e-15           14            1           12 1.1063838e-16 
    3220     692.0095       27 2.695308e-15           14            1           12 1.1063939e-16 
    3225    693.72457       27 2.7043398e-15           14            1           12 1.1064037e-16 
    3230    695.49243       28 2.7134031e-15           15            1           12 1.1064136e-16 
    3235    697.22544       28 2.7224982e-15           15            1           12 1.1064236e-16 
    3240    699.00598       28 2.7316249e-15           15            1           12 1.1064333e-16 
    3245    700.69201       28 2.7407837e-15           15            1           12 1.1064436e-16 
    3250    702.37114       28 2.7499743e-15           15            1           12 1.1064527e-16 
    3255    704.08511       28 2.7591974e-15           15            1           12 1.1064655e-16 
    3260    705.81146       28 2.7684525e-15           15            1           12 1.1064756e-16 
    3265    707.52094       28 2.7777398e-15           15            1           12 1.106485e-16 
    3270    709.21894       28  2.78706e-15           15            1           12 1.1064983e-16 
    3275    710.95068       28 2.7964125e-15           15            1           12 1.1065087e-16 
    3280    712.67518       28 2.8057976e-15           15            1           12 1.1065185e-16 
    3285    714.46855       28 2.8152159e-15           15            1           12 1.1065323e-16 
    3290    716.21832       28 2.8246669e-15           15            1           12 1.1065431e-16 
    3295    718.01917       28 2.8341508e-15           15            1           12 1.1065533e-16 
    3300    719.78396       28 2.8436681e-15           15            1           12 1.106567e-16 
    3305    721.59026       28 2.8532187e-15           15            1           12 1.1065799e-16 
    3310    726.87145       30 2.8628027e-15           15            1           14 1.1065925e-16 
    3315    727.19879       30 2.8724188e-15           15            1           14 1.1065925e-16 
    3320     727.5499       30 2.8820689e-15           15            1           14 1.1065954e-16 
    3325     728.8905       30 2.8917537e-15           15            1           14 1.106608e-16 
    3330    730.60526       30 2.9014723e-15           15            1           14 1.106621e-16 
    3335    732.34697       30 2.911225e-15           15            1           14 1.1066342e-16 
    3340    734.11816       30 2.9210116e-15           15            1           14 1.1066461e-16 
    3345    735.90432       30 2.9308328e-15           15            1           14 1.1066624e-16 
    3350    737.66299       30 2.9406882e-15           15            1           14 1.1066764e-16 
    3355    739.50975       30 2.950578e-15           15            1           14 1.1066905e-16 
    3360    741.40777       30 2.9605024e-15           15            1           14 1.1067049e-16 
    3365    743.19823       30 2.9704615e-15           15            1           14 1.1067193e-16 
    3370    745.01894       30 2.9804554e-15           15            1           14 1.106734e-16 
    3375    746.82245       30 2.9904842e-15           15            1           14 1.1067487e-16 
    3380    748.60118       30 3.0005481e-15           15            1           14 1.1067637e-16 
    3385    750.40608       30 3.0106472e-15           15            1           14 1.1067788e-16 
    3390    752.22877       30 3.0207817e-15           15            1           14 1.1067941e-16 
    3395    754.05842       30 3.0309515e-15           15            1           14 1.1068096e-16 
    3400    755.88146       30 3.0411569e-15           15            1           14 1.1068253e-16 
    3405    757.68748       30 3.0513981e-15           15            1           14 1.1068411e-16 
    3410    759.58266       30 3.061675e-15           15            1           14 1.1068571e-16 
    3415    761.50766       30 3.0719878e-15           15            1           14 1.1068733e-16 
    3420    763.37237       30 3.0823367e-15           15            1           14 1.1068896e-16 
    3425    765.28442       30 3.0927218e-15           15            1           14 1.1069062e-16 
    3430    767.16963       30 3.1031432e-15           15            1           14 1.1069229e-16 
    3435    769.01833       30 3.1136011e-15           15            1           14 1.1069398e-16 
    3440    770.91011       30 3.1240955e-15           15            1           14 1.1069569e-16 
    3445    772.79406       30 3.1346266e-15           15            1           14 1.1069742e-16 
    3450     774.7015       30 3.1451946e-15           15            1           14 1.1069917e-16 
    3455    776.63543       30 3.1557994e-15           15            1           14 1.1070094e-16 
    3460    778.50732       30 3.1664414e-15           15            1           14 1.1070272e-16 
    3465    780.45692       30 3.1771206e-15           15            1           14 1.1070453e-16 
    3470     782.3402       30 3.1878371e-15           15            1           14 1.1070636e-16 
    3475    784.28458       30 3.1985911e-15           15            1           14 1.107082e-16 
    3480    786.20324       30 3.2093828e-15           15            1           14 1.1071007e-16 
    3485    788.12532       30 3.2202121e-15           15            1           14 1.1071196e-16 
    3490    790.06563       30 3.2310793e-15           15            1           14 1.1071387e-16 
    3495    792.00552       30 3.2419845e-15           15            1           14 1.1071579e-16 
    3500    793.99643       30 3.2529279e-15           15            1           14 1.1071775e-16 
    3505    795.97331       30 3.2639095e-15           15            1           14 1.1071972e-16 
    3510     797.9622       30 3.2749295e-15           15            1           14 1.1072171e-16 
    3515    799.97818       30 3.2859881e-15           15            1           14 1.1072372e-16 
    3520    801.94327       30 3.2970853e-15           15            1           14 1.1072576e-16 
    3525    803.88628       31 3.3082213e-15           15            1           15 1.1072782e-16 
    3530    805.86263       31 3.3193963e-15           15            1           15 1.107299e-16 
    3535    807.79265       31 3.3306103e-15           15            1           15  1.10732e-16 
    3540    809.74328       31 3.3418636e-15           15            1           15 1.1073413e-16 
    3545    811.77632       31 3.3531562e-15           15            1           15 1.1073628e-16 
    3550    813.81638       31 3.3644883e-15           15            1           15 1.1073845e-16 
    3555    815.83011       31  3.37586e-15           15            1           15 1.1074065e-16 
    3560    817.81347       31 3.3872715e-15           15            1           15 1.1074287e-16 
    3565    819.80856       31 3.3987229e-15           15            1           15 1.1074511e-16 
    3570    821.84302       31 3.4102144e-15           15            1           15 1.1074738e-16 
    3575    823.86127       31 3.421746e-15           15            1           15 1.1074967e-16 
    3580    825.93031       31 3.433318e-15           15            1           15 1.1075199e-16 
    3585    827.99485       31 3.4449304e-15           15            1           15 1.1075433e-16 
    3590     830.0601       31 3.4565834e-15           15            1           15 1.107567e-16 
    3595    832.09385       31 3.4682772e-15           15            1           15 1.1075909e-16 
    3600    834.10653       32 3.4800119e-15           15            1           16 1.1076151e-16 
    3605     836.2632       32 3.4917876e-15           15            1           16 1.1076395e-16 
    3610    838.35161       32 3.5036045e-15           15            1           16 1.1076642e-16 
    3615    840.38603       32 3.5154628e-15           15            1           16 1.1076891e-16 
    3620    842.43733       32 3.5273625e-15           15            1           16 1.1077143e-16 
    3625    844.51522       32 3.5393038e-15           15            1           16 1.1077398e-16 
    3630    846.60438       33 3.5512868e-15           15            1           17 1.1077656e-16 
    3635    848.73538       33 3.5633118e-15           15            1           17 1.1077916e-16 
    3640    850.82636       33 3.5753788e-15           15            1           17 1.1078179e-16 
    3645    852.90434       33 3.5874881e-15           15            1           17 1.1078445e-16 
    3650    855.03683       33 3.5996396e-15           15            1           17 1.1078714e-16 
    3655    857.14378       34 3.6118337e-15           16            1           17 1.1078985e-16 
    3660    859.34397       34 3.6240704e-15           16            1           17 1.1079259e-16 
    3665    861.43569       34 3.6363499e-15           16            1           17 1.1079537e-16 
    3670    863.53687       34 3.6486724e-15           16            1           17 1.1079817e-16 
    3675    865.71133       34 3.6610379e-15           16            1           17  1.10801e-16 
    3680    867.87921       34 3.6734467e-15           16            1           17 1.1080386e-16 
    3685    870.03673       34 3.6858989e-15           16            1           17 1.1080675e-16 
    3690    872.19385       34 3.6983947e-15           16            1           17 1.1080967e-16 
    3695    874.35317       34 3.7109341e-15           16            1           17 1.1081262e-16 
    3700     876.4735       34 3.7235174e-15           16            1           17 1.108156e-16 
    3705    878.61097       34 3.7361447e-15           16            1           17 1.1081862e-16 
    3710    880.80211       34 3.7488162e-15           16            1           17 1.1082166e-16 
    3715    882.96951       34 3.7615319e-15           16            1           17 1.1082474e-16 
    3720    885.16143       34 3.7742922e-15           16            1           17 1.1082785e-16 
    3725    887.33811       35 3.7870971e-15           17            1           17 1.1083099e-16 
    3730    889.50433       35 3.7999467e-15           17            1           17 1.1083416e-16 
    3735    891.71964       35 3.8128413e-15           17            1           17 1.1083737e-16 
    3740    909.08689       35 3.8257747e-15           17            1           17 1.1083427e-16 
    3745    909.49615       36 3.8387633e-15           18            1           17 1.1084117e-16 
    3750    909.92186       37 3.851796e-15           19            1           17 1.108468e-16 
    3755    910.37398       37 3.8648734e-15           19            1           17 1.1085163e-16 
    3760    910.79749       37 3.8779961e-15           19            1           17 1.1085595e-16 
    3765    911.22084       37 3.8911643e-15           19            1           17 1.1085997e-16 
    3770    911.66315       37 3.9043783e-15           19            1           17 1.1086379e-16 
    3775    912.11831       37 3.9176384e-15           19            1           17 1.108675e-16 
    3780    912.58074       37 3.9309448e-15           19            1           17 1.1087115e-16 
    3785    913.04275       37 3.9442976e-15           19            1           17 1.1087475e-16 
    3790    913.51443       37 3.9576971e-15           19            1           17 1.1087834e-16 
    3795    913.98761       37 3.9711434e-15           19            1           17 1.1088192e-16 
    3800    914.44222       37 3.9846368e-15           19            1           17 1.108855e-16 
    3805    915.82695       37 3.9981772e-15           19            1           17 1.1088907e-16 
    3810    917.44385       37 4.0117651e-15           19            1           17 1.1089268e-16 
    3815    919.09816       38 4.0254004e-15           20            1           17 1.108963e-16 
    3820    926.01707       38 4.0390834e-15           20            1           17 1.1089996e-16 
    3825    929.67298       39 4.0528143e-15           21            1           17 1.1090365e-16 
    3830     931.7734       39 4.0665933e-15           21            1           17 1.1090749e-16 
    3835    932.27331       39 4.0804205e-15           21            1           17 1.1091136e-16 
    3840    932.78765       39 4.094296e-15           21            1           17 1.1091522e-16 
    3845    933.27923       39 4.1082201e-15           21            1           17 1.109191e-16 
    3850    933.80691       40 4.1221928e-15           22            1           17 1.1092297e-16 
    3855    935.12891       40 4.1362143e-15           22            1           17 1.1092686e-16 
    3860    937.43432       40 4.1502849e-15           22            1           17 1.1093079e-16 
    3865    939.71465       40 4.1644047e-15           22            1           17 1.1093475e-16 
    3870    941.98985       40 4.1785739e-15           22            1           17 1.1093875e-16 
    3875     944.3674       40 4.1927927e-15           22            1           17 1.1094279e-16 
    3880    946.68338       40 4.2070611e-15           22            1           17 1.1094687e-16 
    3885    949.04663       40 4.2213795e-15           22            1           17  1.10951e-16 
    3890    951.37611       40 4.235748e-15           22            1           17 1.1095516e-16 
    3895    953.68943       41 4.2501667e-15           22            1           18 1.1095937e-16 
    3900    956.05893       41 4.2646359e-15           22            1           18 1.1096362e-16 
[...]
    4045    1038.4714       44 4.7070021e-15           23            1           20 1.1111569e-16 
    4050    1039.1305       44 4.7230698e-15           23            1           20 1.1112203e-16 
    4055    1039.8341       44 4.7391935e-15           23            1           20 1.1112812e-16 
    4060    1040.4899       44 4.7553734e-15           23            1           20 1.1113413e-16 
    4065    1041.7614       44 4.7716099e-15           23            1           20 1.1114012e-16 
    4070    1044.1579       44 4.7879032e-15           23            1           20 1.1114614e-16 
    4075    1046.5736       44 4.8042534e-15           23            1           20 1.1115221e-16 
    4080    1049.0398       44 4.8206608e-15           23            1           20 1.1115833e-16 
    4085     1051.475       45 4.8371257e-15           24            1           20 1.1116451e-16 
    4090    1053.9347       45 4.8536481e-15           24            1           20 1.1117074e-16 
    4095    1056.3348       45 4.8702283e-15           24            1           20 1.1117702e-16 
    4100    1058.8578       45 4.8868665e-15           24            1           20 1.1118337e-16 
    4105    1061.3437       45 4.9035629e-15           24            1           20 1.1118977e-16 
    4110    1063.7986       46 4.9203177e-15           24            1           21 1.1119622e-16 
    4115    1066.3151       46 4.9371311e-15           24            1           21 1.1120273e-16 
    4120    1068.8887       46 4.9540034e-15           24            1           21 1.112093e-16 
    4125    1071.4009       46 4.9709346e-15           24            1           21 1.1121593e-16 
    4130    1073.9387       47 4.9879251e-15           24            1           22 1.1122262e-16 
    4135    1076.5149       49 5.004975e-15           24            1           24 1.1122937e-16 
    4140     1093.688       50 5.0220855e-15           25            1           24 1.1123706e-16 
    4145    1096.0624       50 5.0392554e-15           25            1           24 1.1124452e-16 
    4150    1098.5966       51 5.0564852e-15           26            1           24 1.1125183e-16 
    4155    1101.1143       51 5.0737752e-15           26            1           24 1.1125919e-16 
    4160    1103.6562       51 5.0911258e-15           26            1           24 1.1126661e-16 
    4165    1106.1986       51 5.108537e-15           26            1           24 1.112741e-16 
    4170    1108.7105       51 5.1260091e-15           26            1           24 1.1128165e-16 
    4175    1111.2907       51 5.1435424e-15           26            1           24 1.1128927e-16 
    4180    1113.8736       53 5.1611369e-15           28            1           24 1.1129694e-16 
    4185    1116.4849       53 5.1787931e-15           28            1           24 1.1130469e-16 
    4190    1119.1301       53 5.196511e-15           28            1           24 1.113125e-16 
    4195    1121.7133       53 5.2142909e-15           28            1           24 1.1132037e-16 
    4200    1124.4028       53 5.2321329e-15           28            1           24 1.1132832e-16 
    4205    1127.0285       53 5.2500374e-15           28            1           24 1.1133633e-16 
    4210    1129.7031       53 5.2680045e-15           28            1           24 1.1134441e-16 
    4215    1132.4195       53 5.2860345e-15           28            1           24 1.1135256e-16 
    4220    1135.1439       54 5.3041276e-15           28            1           25 1.1136078e-16 
    4225    1137.9403       55 5.3222839e-15           29            1           25 1.1136907e-16 
    4230    1140.6931       55 5.3405038e-15           29            1           25 1.1137743e-16 
    4235    1143.3963       55 5.3587874e-15           29            1           25 1.1138586e-16 
    4240    1146.1955       55 5.377135e-15           29            1           25 1.1139437e-16 
    4245     1148.906       55 5.3955467e-15           29            1           25 1.1140294e-16 
    4250    1151.6203       55 5.4140229e-15           29            1           25 1.114116e-16 
    4255    1154.3665       55 5.4325637e-15           29            1           25 1.1142032e-16 
    4260    1157.2071       55 5.4511694e-15           29            1           25 1.1142913e-16 
    4265    1160.0077       55 5.4698401e-15           29            1           25 1.1143801e-16 
    4270    1162.8036       55 5.4885762e-15           29            1           25 1.1144696e-16 
    4275    1165.5858       55 5.5073778e-15           29            1           25 1.1145599e-16 
    4280    1168.4495       55 5.5262452e-15           29            1           25 1.114651e-16 
    4285    1171.2729       55 5.5451786e-15           29            1           25 1.1147429e-16 
    4290     1174.186       55 5.5641783e-15           29            1           25 1.1148356e-16 
    4295    1177.0356       55 5.5832444e-15           29            1           25 1.1149291e-16 
    4300    1179.9096       55 5.6023772e-15           29            1           25 1.1150234e-16 
    4305    1182.8007       55 5.621577e-15           29            1           25 1.1151185e-16 
    4310    1185.6432       55 5.6408439e-15           29            1           25 1.1152144e-16 
    4315    1188.5593       56 5.6601782e-15           29            1           26 1.1153112e-16 
    4320    1191.4685       56 5.6795802e-15           29            1           26 1.1154087e-16 
    4325    1194.3768       56  5.69905e-15           29            1           26 1.1155072e-16 
    4330     1197.344       56 5.718588e-15           29            1           26 1.1156064e-16 
    4335    1200.2987       57 5.7381943e-15           30            1           26 1.1157066e-16 
    4340    1203.2035       57 5.7578693e-15           30            1           26 1.1158075e-16 
    4345    1206.1482       57 5.777613e-15           30            1           26 1.1159094e-16 
    4350    1209.0895       57 5.7974259e-15           30            1           26 1.1160121e-16 
    4355     1212.028       57 5.817308e-15           30            1           26 1.1161158e-16 
    4360    1214.9694       57 5.8372597e-15           30            1           26 1.1162203e-16 
    4365    1217.9283       57 5.8572812e-15           30            1           26 1.1163257e-16 
    4370    1220.9776       57 5.8773728e-15           30            1           26 1.116432e-16 
    4375    1223.9417       57 5.8975347e-15           30            1           26 1.1165392e-16 
    4380    1226.9953       57 5.9177671e-15           30            1           26 1.1166473e-16 
    4385    1230.0814       57 5.9380703e-15           30            1           26 1.1167564e-16 
    4390    1233.1359       57 5.9584445e-15           30            1           26 1.1168664e-16 
    4395     1236.206       57  5.97889e-15           30            1           26 1.1169774e-16 
    4400    1239.3264       57 5.999407e-15           30            1           26 1.1170893e-16 
    4405    1242.3854       57 6.0199959e-15           30            1           26 1.1172021e-16 
    4410    1245.4447       57 6.0406567e-15           30            1           26 1.1173159e-16 
    4415    1248.5377       57 6.0613899e-15           30            1           26 1.1174307e-16 
    4420     1251.652       59 6.0821956e-15           31            1           27 1.1175465e-16 
    4425    1254.7765       59 6.1030741e-15           31            1           27 1.1176633e-16 
    4430    1258.0056       59 6.1240256e-15           31            1           27 1.1177811e-16 
    4435    1261.1381       59 6.1450504e-15           31            1           27 1.1178998e-16 
    4440    1264.2929       59 6.1661489e-15           31            1           27 1.1180196e-16 
    4445    1267.4801       59 6.1873211e-15           31            1           27 1.1181404e-16 
    4450    1270.6207       59 6.2085674e-15           31            1           27 1.1182623e-16 
    4455    1273.9005       59 6.229888e-15           31            1           27 1.1183851e-16 
    4460    1277.1779       59 6.2512833e-15           31            1           27 1.1185091e-16 
    4465    1280.3568       61 6.2727534e-15           32            1           28 1.1186341e-16 
    4470     1283.594       61 6.2942986e-15           32            1           28 1.1187601e-16 
    4475    1286.8907       61 6.3159193e-15           32            1           28 1.1188872e-16 
    4480    1290.1106       61 6.3376155e-15           32            1           28 1.1190154e-16 
    4485    1293.3403       61 6.3593877e-15           32            1           28 1.1191447e-16 
    4490    1296.6451       61 6.3812361e-15           32            1           28 1.1192751e-16 
    4495    1299.9002       61 6.4031609e-15           32            1           28 1.1194066e-16 
    4500      1303.15       61 6.4251624e-15           32            1           28 1.1195392e-16 
    4505    1306.3979       61 6.4472409e-15           32            1           28 1.1196729e-16 
    4510    1309.7341       61 6.4693967e-15           32            1           28 1.1198078e-16 
    4515    1313.0055       61  6.49163e-15           32            1           28 1.1199438e-16 
    4520    1316.3243       61 6.5139411e-15           32            1           28 1.120081e-16 
    4525    1319.6554       61 6.5363302e-15           32            1           28 1.1202193e-16 
    4530     1322.978       61 6.5587977e-15           32            1           28 1.1203588e-16 
    4535    1326.2723       61 6.5813439e-15           32            1           28 1.1204995e-16 
    4540    1329.6205       61 6.6039689e-15           32            1           28 1.1206414e-16 
    4545    1332.9332       61 6.626673e-15           32            1           28 1.1207845e-16 
    4550    1336.2815       62 6.6494567e-15           32            1           29 1.1209287e-16 
    4555    1347.7779       63 6.6723205e-15           32            1           30 1.1210792e-16 
    4560    1349.9013       64 6.6952643e-15           33            1           30 1.1212311e-16 
    4565    1352.0792       65 6.7182881e-15           34            1           30 1.1213815e-16 
    4570    1354.2364       65 6.7413925e-15           34            1           30 1.1215326e-16 
    4575    1356.4654       66 6.7645776e-15           34            1           31 1.1216844e-16 
    4580    1359.2778       66 6.7878438e-15           34            1           31 1.1218372e-16 
    4585    1362.6747       66 6.8111915e-15           34            1           31 1.1219911e-16 
    4590    1366.0733       66 6.8346208e-15           34            1           31 1.1221463e-16 
    4595    1369.3981       66 6.8581322e-15           34            1           31 1.1223029e-16 
    4600     1372.727       66 6.8817258e-15           34            1           31 1.1224607e-16 
    4605    1376.0462       66 6.9054019e-15           34            1           31 1.1226198e-16 
    4610    1379.4724       66 6.9291609e-15           34            1           31 1.1227803e-16 
    4615    1382.8727       67 6.9530031e-15           35            1           31 1.122942e-16 
    4620    1386.5497       67 6.9769287e-15           35            1           31 1.1231052e-16 
    4625    1390.1919       67 7.000938e-15           35            1           31 1.1232696e-16 
    4630    1393.6444       67 7.0250313e-15           35            1           31 1.1234355e-16 
    4635    1397.1928       67 7.0492089e-15           35            1           31 1.1236027e-16 
    4640    1400.6866       67 7.0734711e-15           35            1           31 1.1237713e-16 
    4645    1404.2322       67 7.0978183e-15           35            1           31 1.1239414e-16 
    4650    1407.7821       67 7.1222506e-15           35            1           31 1.1241128e-16 
    4655      1416.49       67 7.1467686e-15           35            1           31 1.1242868e-16 
    4660    1420.6499       67 7.1713722e-15           35            1           31 1.1244612e-16 
    4665    1422.5072       67 7.1960623e-15           35            1           31 1.1246396e-16 
    4670    1424.8619       67 7.2208386e-15           35            1           31 1.1248186e-16 
    4675    1425.8413       68 7.2457016e-15           35            1           32 1.124998e-16 
    4680    1426.6875       69 7.2706515e-15           35            1           33 1.1251777e-16 
    4685    1427.5261       69 7.2956886e-15           35            1           33 1.1253576e-16 
    4690    1428.4073       69 7.3208133e-15           35            1           33 1.1255378e-16 
    4695    1429.2788       69 7.3460257e-15           35            1           33 1.1257183e-16 
    4700    1430.1716       69 7.3713263e-15           35            1           33 1.1258991e-16 
    4705    1431.0858       69 7.3967153e-15           35            1           33 1.1260802e-16 
    4710    1434.5823       69 7.4221931e-15           35            1           33 1.1262621e-16 
    4715    1438.5594       69  7.44776e-15           35            1           33 1.1264457e-16 
    4720    1442.3467       70 7.4734165e-15           36            1           33 1.1266309e-16 
    4725    1446.1298       70 7.4991627e-15           36            1           33 1.1268177e-16 
    4730    1449.8991       70 7.5249991e-15           36            1           33 1.1270063e-16 
    4735    1453.9987       70 7.5509259e-15           36            1           33 1.1271965e-16 
    4740    1466.1851       71 7.5769439e-15           36            1           34 1.1273937e-16 
    4745    1468.6141       71 7.6030529e-15           36            1           34 1.1275921e-16 
    4750    1471.0988       71 7.629253e-15           36            1           34 1.1277897e-16 
    4755     1473.083       71 7.6555448e-15           36            1           34 1.1279884e-16 
    4760    1476.3209       71 7.6819286e-15           36            1           34 1.128188e-16 
    4765    1480.2207       71 7.7084047e-15           36            1           34 1.1283892e-16 
    4770    1484.2164       72 7.7349734e-15           37            1           34 1.128592e-16 
    4775    1488.1619       72 7.7616351e-15           37            1           34 1.1287966e-16 
    4780     1492.035       72 7.7883902e-15           37            1           34 1.1290028e-16 
    4785     1495.888       73 7.8152389e-15           37            1           35 1.1292108e-16 
    4790    1499.8468       74 7.8421815e-15           38            1           35 1.1294205e-16 
    4795      1503.74       74 7.8692184e-15           38            1           35 1.1296319e-16 
    4800    1507.5774       74  7.89635e-15           38            1           35 1.1298451e-16 
    4805    1511.3753       74 7.9235765e-15           38            1           35  1.13006e-16 
    4810    1515.1831       74 7.9508983e-15           38            1           35 1.1302767e-16 
    4815    1518.9979       74 7.9783158e-15           38            1           35 1.1304952e-16 
    4820    1522.8377       74 8.0058291e-15           38            1           35 1.1307155e-16 
    4825     1526.887       74 8.0334388e-15           38            1           35 1.1309375e-16 
    4830    1531.3598       75 8.0611451e-15           39            1           35 1.1311615e-16 
    4835    1535.3789       75 8.0889484e-15           39            1           35 1.1313872e-16 
    4840     1539.391       75 8.116849e-15           39            1           35 1.1316148e-16 
    4845    1543.4548       75 8.1448473e-15           39            1           35 1.1318443e-16 
    4850    1547.4986       75 8.1729435e-15           39            1           35 1.1320756e-16 
    4855    1551.5416       75 8.201138e-15           39            1           35 1.1323089e-16 
    4860    1555.6084       75 8.2294313e-15           39            1           35 1.132544e-16 
    4865    1559.6693       75 8.2578236e-15           39            1           35 1.1327811e-16 
    4870    1563.6711       75 8.2863152e-15           39            1           35 1.1330201e-16 
    4875    1567.7279       75 8.3149066e-15           39            1           35 1.133261e-16 
    4880     1571.777       77 8.343598e-15           41            1           35 1.1335039e-16 
    4885    1575.8551       78 8.3723899e-15           42            1           35 1.1337488e-16 
    4890    1579.9611       78 8.4012825e-15           42            1           35 1.1339957e-16 
    4895    1584.0827       78 8.4302762e-15           42            1           35 1.1342446e-16 
    4900    1588.1946       79 8.4593715e-15           43            1           35 1.1344955e-16 
    4905    1592.3685       79 8.4885685e-15           43            1           35 1.1347485e-16 
    4910    1596.5283       81 8.5178678e-15           44            1           36 1.1350035e-16 
    4915    1600.6866       82 8.5472696e-15           44            1           37 1.1352605e-16 
    4920    1604.8198       82 8.5767743e-15           44            1           37 1.1355197e-16 
    4925    1609.0148       83 8.6063823e-15           44            1           38 1.1357809e-16 
    4930    1613.1876       83 8.6360939e-15           44            1           38 1.1360443e-16 
    4935    1617.4942       83 8.6659096e-15           44            1           38 1.1363098e-16 
    4940    1621.7484       84 8.6958295e-15           44            1           39 1.1365774e-16 
    4945    1625.9677       84 8.7258542e-15           44            1           39 1.1368472e-16 
    4950    1630.2103       84 8.755984e-15           44            1           39 1.1371192e-16 
    4955    1634.4975       84 8.7862193e-15           44            1           39 1.1373934e-16 
    4960    1638.8103       84 8.8165604e-15           44            1           39 1.1376698e-16 
    4965    1643.1114       84 8.8470076e-15           44            1           39 1.1379484e-16 
    4970    1647.4328       84 8.8775615e-15           44            1           39 1.1382293e-16 
    4975    1651.7656       86 8.9082223e-15           45            1           40 1.1385124e-16 
    4980    1656.1227       87 8.9389904e-15           46            1           40 1.1387978e-16 
    4985    1660.4411       87 8.9698663e-15           46            1           40 1.1390855e-16 
    4990    1664.8185       87 9.0008502e-15           46            1           40 1.1393755e-16 
    4995    1669.2104       87 9.0319425e-15           46            1           40 1.1396678e-16 
    5000    1673.5965       87 9.0631437e-15           46            1           40 1.1399625e-16 
Loop time of 1673.6 on 1 procs for 5000 steps with 87 atoms

Performance: 9292562.266 tau/day, 2.988 timesteps/s
99.5% CPU use with 1 MPI tasks x no OpenMP threads

MPI task timing breakdown:
Section |  min time  |  avg time  |  max time  |%varavg| %total
---------------------------------------------------------------
Pair    | 0.053395   | 0.053395   | 0.053395   |   0.0 |  0.00
Neigh   | 11.792     | 11.792     | 11.792     |   0.0 |  0.70
Comm    | 0.071435   | 0.071435   | 0.071435   |   0.0 |  0.00
Output  | 0.057561   | 0.057561   | 0.057561   |   0.0 |  0.00
Modify  | 1661.6     | 1661.6     | 1661.6     |   0.0 | 99.28
Other   |            | 0.02816    |            |       |  0.00

Nlocal:    87 ave 87 max 87 min
Histogram: 1 0 0 0 0 0 0 0 0 0
Nghost:    0 ave 0 max 0 min
Histogram: 1 0 0 0 0 0 0 0 0 0
Neighs:    382 ave 382 max 382 min
Histogram: 1 0 0 0 0 0 0 0 0 0

Total # of neighbors = 382
Ave neighs/atom = 4.3908
Neighbor list builds = 5000
Dangerous builds = 0


Total wall time: 0:27:56
