/*--------------------------------*- C++ -*----------------------------------*\
| =========                 |                                                 |
| \\      /  F ield         | OpenFOAM: The Open Source CFD Toolbox           |
|  \\    /   O peration     | Version:  2.3.0                                 |
|   \\  /    A nd           | Web:      www.OpenFOAM.org                      |
|    \\/     M anipulation  |                                                 |
\*---------------------------------------------------------------------------*/
FoamFile
{
    version     2.0;
    format      ascii;
    class       vectorField;
    location    "0.0001/lagrangian/defaultCloud";
    object      U;
}
// * * * * * * * * * * * * * * * * * * * * * * * * * * * * * * * * * * * * * //


20
(
(0.985334 0.170636 0)
(0.985489 0.169738 0)
(0.985334 0.170636 0)
(0.985334 0.170636 0)
(0.985334 0.170636 0)
(0.875368 0.483457 0)
(0.876049 0.482221 0)
(0.875368 0.483457 0)
(0.875368 0.483457 0)
(0.876049 0.482221 0)
(0.875368 0.483457 0)
(0.690419 0.72341 0)
(0.690419 0.72341 0)
(0.691385 0.722486 0)
(0.691385 0.722486 0)
(0.494215 0.86934 0)
(0.494215 0.86934 0)
(0.487921 0.872888 0)
(0.487921 0.872888 0)
(0.494215 0.86934 0)
)


// ************************************************************************* //
