LAMMPS (5 Nov 2016)
# NUFEB simulation

atom_style	bio
atom_modify	map array sort 1000 5.0e-7
boundary	ff ff ff
newton		off
#processors  2 1 1

comm_modify	vel yes
read_data_bio atom.in
  orthogonal box = (0 0 0) to (0.0001 0.0001 0.0001)
  1 by 1 by 1 MPI processor grid
  reading atoms ...
  3 atoms
  10 nutrients

group AOB type 1
1 atoms in group AOB
group NOB type 2
1 atoms in group NOB
group COMM type 3
1 atoms in group COMM

neighbor	5.0e-7 bin
neigh_modify	delay 0 one 5000

#pair_style none
pair_style  gran/hooke/history 0.000200 NULL 0.000050 NULL 0.0 1

pair_coeff  * *
timestep 36

fix 1 all nve/limit 1e-8

#fix	 2 all gravity 1.47 vector 0 0 -1 # spherical 90.0 -180.0
#fix     3 all fdrag
fix 10 all viscous 0.1


fix xw all wall/gran hooke/history 2000 NULL 500.0 NULL 1.5 0 xplane  0.0   1.0e-04
fix yw all wall/gran hooke/history 2000 NULL 500.0 NULL 1.5 0 yplane  0.0   1.0e-04
fix zw all wall/gran hooke/history 2000 NULL 500.0 NULL 1.5 0 zplane  0.0   1.0e-04

variable kanc equal 50

fix xwa all walladh v_kanc xplane  0.0   1.0e-04
fix ywa all walladh v_kanc yplane  0.0   1.0e-04
fix zwa all walladh v_kanc zplane  0.0   1.0e-04

##############Ibm Variable Definitions##############

#Defining EPS density and ratio variables
variable EPSdens equal 30
variable EPSratio equal 1.25

variable ke equal 5e+10

#Defining kinetics variables
variable temp equal 298.15
variable gasTran equal 0.08205746
variable gvol equal 8e-14
variable rth equal 0.0083144
variable pressure equal 1
variable ph equal 7.0

#Defining diffusion variables
variable diffT equal 1e-6
variable tol equal 1e-9

##############Ibm functions##############

fix k1 all kinetics 25 25 25 v_temp v_rth v_gvol v_gasTran v_ph
fix g1 all diffusion exp v_diffT v_tol pp pp nd
#fix ki3 all kinetics/ph 1
fix ki2 all kinetics/thermo 1 fix open v_pressure
fix ki1 all kinetics/monod 1 v_EPSdens
fix d1 all divide 1 v_EPSdens 1 31231

#fix j1 all epsadh 1 v_ke 1
#fix e1 HET eps_extract 16 v_EPSratio v_EPSdens 1242242

##############Ibm compute##############

compute myMass all biomass
compute myNtypes all ntypes

##############Simulation outputs##############

#dump		id all custom 250 snapshot.bubblemd id type diameter x y z
dump            d0 all bio 500 biomass
thermo_style    custom step cpu atoms biomass c_myNtypes[*] c_myMass[2]
thermo		5
thermo_modify	lost ignore

run  5000
Neighbor list info ...
  2 neighbor list requests
  update every 1 steps, delay 0 steps, check yes
  max neighbors/atom: 5000, page size: 100000
  master list distance cutoff = 1.466e-06
  ghost atom cutoff = 1.466e-06
  binsize = 7.33e-07 -> bins = 137 137 137
Memory usage per processor = 18.9946 Mbytes
Step CPU Atoms biomass c_myNtypes[1] c_myNtypes[2] c_myNtypes[3] c_myMass[2] 
       0            0        3 4.1062866e-16            1            1            1 1.3687622e-16 
       5    9.2037048        3 4.1151573e-16            1            1            1 1.3680774e-16 
      10     10.00959        3 4.1240617e-16            1            1            1 1.3673929e-16 
      15    10.712706        3 4.1329999e-16            1            1            1 1.3667088e-16 
      20    11.347746        3 4.1419721e-16            1            1            1 1.3660251e-16 
      25    11.945601        3 4.1509784e-16            1            1            1 1.3653417e-16 
      30      12.5202        3 4.1600188e-16            1            1            1 1.3646586e-16 
      35    13.076582        3 4.1690935e-16            1            1            1 1.3639758e-16 
      40    13.621596        3 4.1782026e-16            1            1            1 1.3632934e-16 
      45      14.1524        3 4.1873463e-16            1            1            1 1.3626114e-16 
      50    14.677623        3 4.1965246e-16            1            1            1 1.3619297e-16 
      55    15.192467        3 4.2057377e-16            1            1            1 1.3612483e-16 
      60    15.703906        3 4.2149857e-16            1            1            1 1.3605673e-16 
      65    16.219092        3 4.2242687e-16            1            1            1 1.3598866e-16 
      70    16.759462        3 4.2335869e-16            1            1            1 1.3592062e-16 
      75     17.29943        3 4.2429403e-16            1            1            1 1.3585262e-16 
      80    17.830169        3 4.2523291e-16            1            1            1 1.3578465e-16 
      85    18.360492        3 4.2617534e-16            1            1            1 1.3571672e-16 
      90    18.857688        3 4.2712133e-16            1            1            1 1.3564882e-16 
      95    19.355017        3 4.2807089e-16            1            1            1 1.3558096e-16 
     100    19.858245        3 4.2902404e-16            1            1            1 1.3551313e-16 
     105    20.372049        3 4.299808e-16            1            1            1 1.3544533e-16 
     110    20.884084        3 4.3094116e-16            1            1            1 1.3537757e-16 
     115    21.390729        3 4.3190515e-16            1            1            1 1.3530984e-16 
     120    21.903266        3 4.3287277e-16            1            1            1 1.3524214e-16 
     125    22.387918        3 4.3384405e-16            1            1            1 1.3517448e-16 
     130    22.874785        3 4.3481898e-16            1            1            1 1.3510685e-16 
     135    23.359352        3 4.3579759e-16            1            1            1 1.3503926e-16 
     140    23.853711        3 4.3677989e-16            1            1            1 1.349717e-16 
     145    24.334174        3 4.3776589e-16            1            1            1 1.3490417e-16 
     150    24.838698        4 4.387556e-16            2            1            1 1.3483668e-16 
     155    25.356043        5 4.3974904e-16            2            1            2 1.3476922e-16 
     160    25.853168        5 4.4074622e-16            2            1            2 1.3470179e-16 
     165    26.346075        5 4.4174715e-16            2            1            2 1.346344e-16 
     170    26.839456        5 4.4275184e-16            2            1            2 1.3456705e-16 
     175    27.389422        5 4.4376031e-16            2            1            2 1.3449972e-16 
     180    27.881969        5 4.4477257e-16            2            1            2 1.3443243e-16 
     185    28.370821        5 4.4578863e-16            2            1            2 1.3436517e-16 
     190    28.866674        5 4.4680852e-16            2            1            2 1.3429795e-16 
     195    29.354872        5 4.4783223e-16            2            1            2 1.3423076e-16 
     200     29.84409        5 4.4885978e-16            2            1            2 1.3416361e-16 
     205    30.337344        5 4.498912e-16            2            1            2 1.3409649e-16 
     210    30.829372        5 4.5092648e-16            2            1            2 1.340294e-16 
     215    31.345439        5 4.5196564e-16            2            1            2 1.3396234e-16 
     220    31.911656        5 4.5300871e-16            2            1            2 1.3389532e-16 
     225    32.485439        5 4.5405568e-16            2            1            2 1.3382833e-16 
     230    33.067223        5 4.5510657e-16            2            1            2 1.3376138e-16 
     235    33.639408        5 4.5616141e-16            2            1            2 1.3369446e-16 
     240     34.17569        5 4.5722019e-16            2            1            2 1.3362757e-16 
     245    34.698224        5 4.5828294e-16            2            1            2 1.3356072e-16 
     250    35.228797        5 4.5934967e-16            2            1            2 1.334939e-16 
     255    35.762867        5 4.6042039e-16            2            1            2 1.3342711e-16 
     260    36.292624        5 4.6149512e-16            2            1            2 1.3336036e-16 
     265    36.831031        5 4.6257387e-16            2            1            2 1.3329364e-16 
     270    37.357333        5 4.6365665e-16            2            1            2 1.3322695e-16 
     275    37.894157        5 4.6474347e-16            2            1            2 1.3316029e-16 
     280    38.426132        5 4.6583436e-16            2            1            2 1.3309367e-16 
     285    38.969558        5 4.6692933e-16            2            1            2 1.3302709e-16 
     290    39.495944        5 4.6802838e-16            2            1            2 1.3296053e-16 
     295    40.032505        5 4.6913154e-16            2            1            2 1.3289401e-16 
     300    40.559042        5 4.7023882e-16            2            1            2 1.3282753e-16 
     305    41.104573        5 4.7135023e-16            2            1            2 1.3276107e-16 
     310    41.679469        5 4.7246579e-16            2            1            2 1.3269465e-16 
     315    42.299986        5 4.7358551e-16            2            1            2 1.3262827e-16 
     320    42.993279        5 4.747094e-16            2            1            2 1.3256191e-16 
     325    43.647335        5 4.7583749e-16            2            1            2 1.3249559e-16 
     330    44.279654        5 4.7696978e-16            2            1            2 1.324293e-16 
     335    44.957565        5 4.7810629e-16            2            1            2 1.3236305e-16 
     340     45.61496        5 4.7924703e-16            2            1            2 1.3229683e-16 
     345    46.291388        5 4.8039202e-16            2            1            2 1.3223064e-16 
     350    46.967095        5 4.8154127e-16            2            1            2 1.3216449e-16 
     355    47.622078        5 4.826948e-16            2            1            2 1.3209836e-16 
     360    48.263629        5 4.8385263e-16            2            1            2 1.3203228e-16 
     365    48.912536        5 4.8501476e-16            2            1            2 1.3196622e-16 
     370     49.58178        5 4.8618121e-16            2            1            2 1.319002e-16 
     375    50.253978        5 4.8735201e-16            2            1            2 1.3183421e-16 
     380    51.025688        5 4.8852715e-16            2            1            2 1.3176825e-16 
     385    51.883749        5 4.8970666e-16            2            1            2 1.3170233e-16 
     390    52.829136        5 4.9089056e-16            2            1            2 1.3163644e-16 
     395    53.713174        5 4.9207885e-16            2            1            2 1.3157058e-16 
     400    54.595854        5 4.9327155e-16            2            1            2 1.3150475e-16 
     405    55.440969        5 4.9446869e-16            2            1            2 1.3143896e-16 
     410     56.29686        5 4.9567027e-16            2            1            2 1.313732e-16 
     415    57.064845        5 4.968763e-16            2            1            2 1.3130748e-16 
     420    57.914701        5 4.9808682e-16            2            1            2 1.3124178e-16 
     425    58.799428        5 4.9930182e-16            2            1            2 1.3117612e-16 
     430     59.83981        5 5.0052132e-16            2            1            2 1.311105e-16 
     435     60.77477        5 5.0174535e-16            2            1            2 1.310449e-16 
     440    61.536422        5 5.0297392e-16            2            1            2 1.3097934e-16 
     445    62.363513        5 5.0420704e-16            2            1            2 1.3091381e-16 
     450    63.438087        5 5.0544472e-16            2            1            2 1.3084831e-16 
     455     64.54091        5 5.0668699e-16            2            1            2 1.3078285e-16 
     460    65.630422        5 5.0793387e-16            2            1            2 1.3071742e-16 
     465    66.675555        5 5.0918535e-16            2            1            2 1.3065202e-16 
     470    67.612441        5 5.1044147e-16            2            1            2 1.3058666e-16 
     475    68.644973        5 5.1170224e-16            2            1            2 1.3052133e-16 
     480     69.51326        5 5.1296767e-16            2            1            2 1.3045603e-16 
     485    70.344863        5 5.1423778e-16            2            1            2 1.3039076e-16 
     490    71.176214        5 5.1551259e-16            2            1            2 1.3032552e-16 
     495    72.111129        5 5.1679211e-16            2            1            2 1.3026032e-16 
     500    72.913459        5 5.1807637e-16            2            1            2 1.3019515e-16 
     505    73.801785        5 5.1936536e-16            2            1            2 1.3013002e-16 
     510    74.834041        5 5.2065912e-16            2            1            2 1.3006491e-16 
     515    75.935283        5 5.2195766e-16            2            1            2 1.2999984e-16 
     520    77.072298        5 5.2326099e-16            2            1            2 1.299348e-16 
     525    78.204928        5 5.2456914e-16            2            1            2 1.298698e-16 
     530    79.372808        5 5.2588211e-16            2            1            2 1.2980482e-16 
     535    80.452366        5 5.2719993e-16            2            1            2 1.2973988e-16 
     540    81.575083        5 5.2852261e-16            2            1            2 1.2967497e-16 
     545    82.748494        5 5.2985017e-16            2            1            2 1.296101e-16 
     550     83.91097        5 5.3118262e-16            2            1            2 1.2954525e-16 
     555    85.132886        5 5.3251999e-16            2            1            2 1.2948044e-16 
     560    86.298466        5 5.3386229e-16            2            1            2 1.2941566e-16 
     565    87.434824        5 5.3520953e-16            2            1            2 1.2935091e-16 
     570    88.432145        5 5.3656174e-16            2            1            2 1.292862e-16 
     575    89.382542        5 5.3791893e-16            2            1            2 1.2922152e-16 
     580    90.568745        5 5.3928112e-16            2            1            2 1.2915687e-16 
     585    91.491488        5 5.4064832e-16            2            1            2 1.2909225e-16 
     590    92.672322        5 5.4202056e-16            2            1            2 1.2902767e-16 
     595    93.591971        5 5.4339785e-16            2            1            2 1.2896311e-16 
     600    94.538033        5 5.4478021e-16            2            1            2 1.2889859e-16 
     605    95.364164        5 5.4616765e-16            2            1            2 1.2883411e-16 
     610    96.267483        5 5.475602e-16            2            1            2 1.2876965e-16 
     615     97.28316        5 5.4895786e-16            2            1            2 1.2870523e-16 
     620    98.364622        5 5.5036067e-16            2            1            2 1.2864084e-16 
     625     99.37331        5 5.5176863e-16            2            1            2 1.2857648e-16 
     630    100.53193        5 5.5318177e-16            2            1            2 1.2851215e-16 
     635    101.59436        5 5.546001e-16            2            1            2 1.2844786e-16 
     640    102.49347        5 5.5602364e-16            2            1            2 1.2838359e-16 
     645    103.60091        5 5.5745241e-16            2            1            2 1.2831936e-16 
     650    104.77128        5 5.5888643e-16            2            1            2 1.2825516e-16 
     655    105.82469        5 5.6032571e-16            2            1            2  1.28191e-16 
     660    106.68631        5 5.6177028e-16            2            1            2 1.2812686e-16 
     665    107.74036        5 5.6322015e-16            2            1            2 1.2806276e-16 
     670    108.63178        5 5.6467533e-16            2            1            2 1.2799869e-16 
     675    109.81563        5 5.6613586e-16            2            1            2 1.2793465e-16 
     680     110.8377        5 5.6760174e-16            2            1            2 1.2787065e-16 
     685    111.73203        5  5.69073e-16            2            1            2 1.2780668e-16 
     690    112.68507        5 5.7054965e-16            2            1            2 1.2774273e-16 
     695     113.6923        5 5.7203172e-16            2            1            2 1.2767882e-16 
     700    114.59282        5 5.7351922e-16            2            1            2 1.2761495e-16 
     705    115.53955        5 5.7501217e-16            2            1            2 1.275511e-16 
     710    116.28976        5 5.7651059e-16            2            1            2 1.2748729e-16 
     715    117.12228        5 5.7801449e-16            2            1            2 1.2742351e-16 
     720    118.19026        5 5.7952391e-16            2            1            2 1.2735976e-16 
     725     119.4727        5 5.8103885e-16            2            1            2 1.2729604e-16 
     730    120.63073        5 5.8255934e-16            2            1            2 1.2723235e-16 
     735    121.69324        5 5.8408539e-16            2            1            2 1.271687e-16 
     740    122.77923        5 5.8561703e-16            2            1            2 1.2710507e-16 
     745    123.67381        5 5.8715427e-16            2            1            2 1.2704148e-16 
     750    124.61957        5 5.8869713e-16            2            1            2 1.2697792e-16 
     755    125.65373        5 5.9024564e-16            2            1            2 1.269144e-16 
     760    126.61412        5 5.9179981e-16            2            1            2 1.268509e-16 
     765    127.65391        5 5.9335966e-16            2            1            2 1.2678744e-16 
     770    128.69596        5 5.9492521e-16            2            1            2 1.2672401e-16 
     775    129.77727        5 5.9649649e-16            2            1            2 1.2666061e-16 
     780    130.88182        5 5.9807351e-16            2            1            2 1.2659724e-16 
     785     131.8668        5 5.9965628e-16            2            1            2 1.265339e-16 
     790    132.76827        5 6.0124484e-16            2            1            2 1.264706e-16 
     795    133.78172        5 6.0283921e-16            2            1            2 1.2640732e-16 
     800    134.80994        5 6.0443939e-16            2            1            2 1.2634408e-16 
     805    135.83759        5 6.0604541e-16            2            1            2 1.2628087e-16 
     810    136.88526        5 6.076573e-16            2            1            2 1.2621769e-16 
     815    137.85254        5 6.0927507e-16            2            1            2 1.2615455e-16 
     820    139.04431        5 6.1089875e-16            2            1            2 1.2609143e-16 
     825    140.33086        5 6.1252834e-16            2            1            2 1.2602835e-16 
     830    141.61683        5 6.1416388e-16            2            1            2 1.259653e-16 
     835    143.02411        5 6.1580539e-16            2            1            2 1.2590228e-16 
     840    144.40113        5 6.1745288e-16            2            1            2 1.2583929e-16 
     845     145.7395        5 6.1910638e-16            2            1            2 1.2577633e-16 
     850    147.10919        5 6.207659e-16            2            1            2 1.257134e-16 
     855     148.2318        5 6.2243147e-16            2            1            2 1.2565051e-16 
     860     149.1321        5 6.2410311e-16            2            1            2 1.2558765e-16 
     865    150.44057        5 6.2578085e-16            2            1            2 1.2552482e-16 
     870    151.81863        5 6.2746469e-16            2            1            2 1.2546202e-16 
     875    153.19348        5 6.2915466e-16            2            1            2 1.2539925e-16 
     880    154.27601        5 6.3085079e-16            2            1            2 1.2533651e-16 
     885    154.97925        5 6.325531e-16            2            1            2 1.252738e-16 
     890    155.68625        5 6.342616e-16            2            1            2 1.2521113e-16 
     895     156.3881        5 6.3597632e-16            2            1            2 1.2514849e-16 
     900    157.10473        5 6.3769728e-16            2            1            2 1.2508587e-16 
     905    157.81465        5 6.394245e-16            2            1            2 1.2502329e-16 
     910    158.53694        5  6.41158e-16            2            1            2 1.2496075e-16 
     915    159.24784        5 6.4289781e-16            2            1            2 1.2489823e-16 
     920    159.96377        5 6.4464394e-16            2            1            2 1.2483574e-16 
     925    160.73438        5 6.4639643e-16            2            1            2 1.2477329e-16 
     930    161.46561        5 6.4815528e-16            2            1            2 1.2471086e-16 
     935    162.24417        5 6.4992053e-16            2            1            2 1.2464847e-16 
     940    162.98596        5 6.516922e-16            2            1            2 1.2458611e-16 
     945    163.74213        5 6.534703e-16            2            1            2 1.2452378e-16 
     950     164.4912        5 6.5525486e-16            2            1            2 1.2446148e-16 
     955    165.25116        6 6.570459e-16            2            1            3 1.2439921e-16 
     960    166.00108        6 6.5884345e-16            2            1            3 1.2433697e-16 
     965    166.76054        6 6.6064753e-16            2            1            3 1.2427477e-16 
     970    167.51609        6 6.6245816e-16            2            1            3 1.2421259e-16 
     975    168.28129        6 6.6427536e-16            2            1            3 1.2415045e-16 
     980    169.05145        6 6.6609915e-16            2            1            3 1.2408834e-16 
     985    169.80628        6 6.6792957e-16            2            1            3 1.2402625e-16 
     990     170.5876        7 6.6976663e-16            3            1            3 1.239642e-16 
     995     171.4006        7 6.7161035e-16            3            1            3 1.2390218e-16 
    1000     172.1863        7 6.7346076e-16            3            1            3 1.238402e-16 
    1005    172.94815        7 6.7531788e-16            3            1            3 1.2377824e-16 
    1010     173.7027        7 6.7718174e-16            3            1            3 1.2371631e-16 
    1015    174.46498        7 6.7905235e-16            3            1            3 1.2365442e-16 
    1020    175.21654        7 6.8092975e-16            3            1            3 1.2359255e-16 
    1025    175.98188        7 6.8281395e-16            3            1            3 1.2353072e-16 
    1030    176.75068        7 6.8470498e-16            3            1            3 1.2346892e-16 
    1035     177.5124        7 6.8660286e-16            3            1            3 1.2340715e-16 
    1040    178.27374        7 6.8850762e-16            3            1            3 1.2334541e-16 
    1045    179.09035        7 6.9041928e-16            3            1            3 1.232837e-16 
    1050    179.99301        7 6.9233786e-16            3            1            3 1.2322202e-16 
    1055    180.99757        7 6.9426339e-16            3            1            3 1.2316037e-16 
    1060    182.00161        7 6.9619589e-16            3            1            3 1.2309875e-16 
    1065    183.05143        7 6.9813539e-16            3            1            3 1.2303717e-16 
    1070    184.12475        7 7.0008192e-16            3            1            3 1.2297561e-16 
    1075    185.12626        7 7.0203548e-16            3            1            3 1.2291409e-16 
    1080    186.08692        7 7.0399612e-16            3            1            3 1.2285259e-16 
    1085    187.06167        7 7.0596385e-16            3            1            3 1.2279113e-16 
    1090    188.00265        7 7.079387e-16            3            1            3 1.227297e-16 
    1095    188.93358        7 7.099207e-16            3            1            3 1.2266829e-16 
    1100    189.86609        7 7.1190986e-16            3            1            3 1.2260692e-16 
    1105    190.81713        7 7.1390622e-16            3            1            3 1.2254558e-16 
    1110    191.78392        7 7.159098e-16            3            1            3 1.2248427e-16 
    1115    192.74123        7 7.1792062e-16            3            1            3  1.22423e-16 
    1120    193.69754        7 7.1993871e-16            3            1            3 1.2236175e-16 
    1125    194.65828        7 7.2196409e-16            3            1            3 1.2230053e-16 
    1130    195.59304        7 7.239968e-16            3            1            3 1.2223934e-16 
    1135    196.52685        7 7.2603685e-16            3            1            3 1.2217819e-16 
    1140    197.45762        7 7.2808427e-16            3            1            3 1.2211706e-16 
    1145    198.41615        7 7.3013908e-16            3            1            3 1.2205597e-16 
    1150    199.38538        7 7.3220132e-16            3            1            3 1.219949e-16 
    1155    200.38149        7 7.3427101e-16            3            1            3 1.2193387e-16 
    1160    201.33893        7 7.3634817e-16            3            1            3 1.2187286e-16 
    1165    202.31252        7 7.3843283e-16            3            1            3 1.2181189e-16 
    1170    203.30005        7 7.4052501e-16            3            1            3 1.2175095e-16 
    1175    204.27519        7 7.4262475e-16            3            1            3 1.2169004e-16 
    1180     205.2542        7 7.4473207e-16            3            1            3 1.2162915e-16 
    1185    206.17043        7 7.4684699e-16            3            1            3 1.215683e-16 
    1190    207.01687        7 7.4896954e-16            3            1            3 1.2150748e-16 
    1195    207.92012        7 7.5109975e-16            3            1            3 1.2144669e-16 
    1200     208.7773        7 7.5323765e-16            3            1            3 1.2138593e-16 
    1205    209.64368        7 7.5538325e-16            3            1            3 1.213252e-16 
    1210    210.58258        7 7.5753659e-16            3            1            3 1.212645e-16 
    1215    211.43956        7 7.596977e-16            3            1            3 1.2120384e-16 
    1220    212.31176        7 7.618666e-16            3            1            3 1.211432e-16 
    1225    213.17843        7 7.6404332e-16            3            1            3 1.2108259e-16 
    1230    214.17062        7 7.6622789e-16            3            1            3 1.2102201e-16 
    1235    215.07099        7 7.6842033e-16            3            1            3 1.2096147e-16 
    1240    215.96444        7 7.7062067e-16            3            1            3 1.2090095e-16 
    1245    216.84043        7 7.7282894e-16            3            1            3 1.2084046e-16 
    1250    217.71723        7 7.7504516e-16            3            1            3 1.2078001e-16 
    1255    218.60964        7 7.7726937e-16            3            1            3 1.2071958e-16 
    1260     219.5091        7 7.7950159e-16            3            1            3 1.2065918e-16 
    1265    220.40578        7 7.8174185e-16            3            1            3 1.2059882e-16 
    1270    221.31517        7 7.8399017e-16            3            1            3 1.2053848e-16 
    1275    222.20978        8 7.8624659e-16            4            1            3 1.2047818e-16 
    1280    223.10992        8 7.8851114e-16            4            1            3 1.204179e-16 
    1285    224.02046        8 7.9078384e-16            4            1            3 1.2035766e-16 
    1290    224.92857        8 7.9306471e-16            4            1            3 1.2029744e-16 
    1295    225.83276        8 7.953538e-16            4            1            3 1.2023726e-16 
    1300     226.7564        8 7.9765112e-16            4            1            3 1.201771e-16 
    1305    227.66398        8 7.9995671e-16            4            1            3 1.2011698e-16 
    1310    228.58006        8 8.0227059e-16            4            1            3 1.2005688e-16 
    1315    229.49265        8 8.045928e-16            4            1            3 1.1999682e-16 
    1320    230.42269        8 8.0692336e-16            4            1            3 1.1993678e-16 
    1325    231.35059        8 8.092623e-16            4            1            3 1.1987678e-16 
    1330    232.28165        8 8.1160965e-16            4            1            3 1.1981681e-16 
    1335    233.21165        8 8.1396544e-16            4            1            3 1.1975686e-16 
    1340    234.16655        8 8.1632971e-16            4            1            3 1.1969695e-16 
    1345    235.10996        8 8.1870247e-16            4            1            3 1.1963706e-16 
    1350    236.06819        8 8.2108375e-16            4            1            3 1.1957721e-16 
    1355    237.06732        8 8.234736e-16            4            1            3 1.1951738e-16 
    1360    238.07241        8 8.2587203e-16            4            1            3 1.1945759e-16 
    1365    239.02979        8 8.2827909e-16            4            1            3 1.1939782e-16 
    1370    239.95707        8 8.3069479e-16            4            1            3 1.1933809e-16 
    1375    240.89525        8 8.3311916e-16            4            1            3 1.1927839e-16 
    1380    241.85372        8 8.3555225e-16            4            1            3 1.1921871e-16 
    1385    242.81974        8 8.3799408e-16            4            1            3 1.1915907e-16 
    1390    243.81071        8 8.4044467e-16            4            1            3 1.1909945e-16 
    1395    244.77235        8 8.4290406e-16            4            1            3 1.1903986e-16 
    1400    245.77149        8 8.4537229e-16            4            1            3 1.1898031e-16 
    1405    246.73746        8 8.4784937e-16            4            1            3 1.1892078e-16 
    1410    247.69133        8 8.5033534e-16            4            1            3 1.1886129e-16 
    1415    248.64351        8 8.5283024e-16            4            1            3 1.1880182e-16 
    1420    249.67371        8 8.5533409e-16            4            1            3 1.1874238e-16 
    1425    250.66888        8 8.5784693e-16            4            1            3 1.1868298e-16 
    1430    251.64875        9 8.6036878e-16            4            1            4 1.186236e-16 
    1435    252.62721        9 8.6289968e-16            4            1            4 1.1856425e-16 
    1440    253.60037        9 8.6543966e-16            4            1            4 1.1850494e-16 
    1445     254.5993        9 8.6798875e-16            4            1            4 1.1844565e-16 
    1450    255.59273        9 8.7054698e-16            4            1            4 1.1838639e-16 
    1455    256.59537        9 8.7311439e-16            4            1            4 1.1832716e-16 
    1460    257.61074        9  8.75691e-16            4            1            4 1.1826796e-16 
    1465    258.62281        9 8.7827685e-16            4            1            4 1.1820879e-16 
    1470    259.62586        9 8.8087197e-16            4            1            4 1.1814965e-16 
    1475    260.62343        9 8.834764e-16            4            1            4 1.1809054e-16 
    1480    261.64251        9 8.8609015e-16            4            1            4 1.1803146e-16 
    1485    262.67487        9 8.8871328e-16            4            1            4 1.1797241e-16 
    1490    263.70532        9 8.9134581e-16            4            1            4 1.1791339e-16 
    1495    264.71104        9 8.9398776e-16            4            1            4 1.178544e-16 
    1500    265.75168        9 8.9663919e-16            4            1            4 1.1779544e-16 
    1505    266.79695        9 8.9930011e-16            4            1            4 1.177365e-16 
    1510    267.86176        9 9.0197057e-16            4            1            4 1.176776e-16 
    1515     268.9157        9 9.0465059e-16            4            1            4 1.1761872e-16 
    1520     269.9543        9 9.0734021e-16            4            1            4 1.1755988e-16 
    1525    270.99529        9 9.1003946e-16            4            1            4 1.1750107e-16 
    1530    272.04006        9 9.1274837e-16            4            1            4 1.1744228e-16 
    1535     273.0698        9 9.1546699e-16            4            1            4 1.1738352e-16 
    1540    274.12918        9 9.1819533e-16            4            1            4 1.173248e-16 
    1545    275.15903        9 9.2093345e-16            4            1            4 1.172661e-16 
    1550     276.2003        9 9.2368136e-16            4            1            4 1.1720743e-16 
    1555    277.24928        9 9.2643911e-16            4            1            4 1.1714879e-16 
    1560    278.27679        9 9.2920673e-16            4            1            4 1.1709018e-16 
    1565    279.33309        9 9.3198425e-16            4            1            4 1.170316e-16 
    1570    280.38197        9 9.3477171e-16            4            1            4 1.1697305e-16 
    1575    281.41115        9 9.3756914e-16            4            1            4 1.1691453e-16 
    1580    282.45925        9 9.4037658e-16            4            1            4 1.1685604e-16 
    1585    283.52438        9 9.4319406e-16            4            1            4 1.1679757e-16 
    1590    284.59085        9 9.4602162e-16            4            1            4 1.1673914e-16 
    1595    285.68821        9 9.4885929e-16            4            1            4 1.1668074e-16 
    1600    286.83549        9 9.5170711e-16            4            1            4 1.1662236e-16 
    1605    287.92545        9 9.5456511e-16            4            1            4 1.1656402e-16 
    1610    289.08899        9 9.5743333e-16            4            1            4 1.165057e-16 
    1615    290.16457        9 9.603118e-16            4            1            4 1.1644741e-16 
    1620    291.24912        9 9.6320056e-16            4            1            4 1.1638915e-16 
    1625    292.34641        9 9.6609965e-16            4            1            4 1.1633092e-16 
    1630    293.44303        9 9.690091e-16            4            1            4 1.1627272e-16 
    1635    294.51095        9 9.7192895e-16            4            1            4 1.1621455e-16 
    1640    295.59591        9 9.7485923e-16            4            1            4 1.1615641e-16 
    1645    296.69025        9 9.7779998e-16            4            1            4 1.160983e-16 
    1650    297.79082        9 9.8075123e-16            4            1            4 1.1604021e-16 
    1655    298.88275        9 9.8371303e-16            4            1            4 1.1598216e-16 
    1660    299.96735        9 9.8668541e-16            4            1            4 1.1592413e-16 
    1665    301.06532        9 9.8966841e-16            4            1            4 1.1586614e-16 
    1670    302.19011        9 9.9266206e-16            4            1            4 1.1580817e-16 
    1675    303.31332        9 9.956664e-16            4            1            4 1.1575023e-16 
    1680    304.42887        9 9.9868147e-16            4            1            4 1.1569232e-16 
    1685     305.5318        9 1.0017073e-15            4            1            4 1.1563444e-16 
    1690    306.68642        9 1.0047439e-15            4            1            4 1.1557659e-16 
    1695     307.8852        9 1.0077914e-15            4            1            4 1.1551876e-16 
    1700    309.04398        9 1.0108498e-15            4            1            4 1.1546097e-16 
    1705    310.18972        9 1.0139191e-15            4            1            4 1.1540321e-16 
    1710    311.32754        9 1.0169993e-15            4            1            4 1.1534547e-16 
    1715    312.46779        9 1.0200905e-15            4            1            4 1.1528776e-16 
    1720     313.6136        9 1.0231927e-15            4            1            4 1.1523008e-16 
    1725    314.75023        9 1.0263061e-15            4            1            4 1.1517244e-16 
    1730     315.9216        9 1.0294305e-15            4            1            4 1.1511481e-16 
    1735    317.08271        9 1.0325661e-15            4            1            4 1.1505722e-16 
    1740    318.25903        9 1.0357128e-15            4            1            4 1.1499966e-16 
    1745    319.41893        9 1.0388708e-15            4            1            4 1.1494213e-16 
    1750    320.57527        9 1.0420401e-15            4            1            4 1.1488462e-16 
    1755    321.74409        9 1.0452206e-15            4            1            4 1.1482714e-16 
    1760    322.92396        9 1.0484125e-15            4            1            4 1.147697e-16 
    1765    324.11149        9 1.0516158e-15            4            1            4 1.1471228e-16 
    1770    325.30866        9 1.0548305e-15            4            1            4 1.1465489e-16 
    1775    326.50928        9 1.0580566e-15            4            1            4 1.1459753e-16 
    1780    327.74353        9 1.0612943e-15            4            1            4 1.1454019e-16 
    1785    328.94572        9 1.0645435e-15            4            1            4 1.1448289e-16 
    1790    330.11675        9 1.0678043e-15            4            1            4 1.1442561e-16 
    1795    331.30045        9 1.0710767e-15            4            1            4 1.1436837e-16 
    1800    332.49678        9 1.0743607e-15            4            1            4 1.1431115e-16 
    1805    333.70275        9 1.0776565e-15            4            1            4 1.1425396e-16 
    1810    334.89538        9 1.080964e-15            4            1            4 1.141968e-16 
    1815    336.09242        9 1.0842833e-15            4            1            4 1.1413966e-16 
    1820    337.30345        9 1.0876144e-15            4            1            4 1.1408256e-16 
    1825    338.52439        9 1.0909574e-15            4            1            4 1.1402549e-16 
    1830    339.74961        9 1.0943123e-15            4            1            4 1.1396844e-16 
    1835    340.97405       10 1.0976792e-15            4            1            5 1.1391142e-16 
    1840      342.198       10 1.101058e-15            4            1            5 1.1385443e-16 
    1845    343.42732       10 1.1044489e-15            4            1            5 1.1379747e-16 
    1850    344.67546       10 1.1078518e-15            4            1            5 1.1374054e-16 
    1855    345.89295       10 1.1112669e-15            4            1            5 1.1368363e-16 
    1860    347.14081       10 1.1146941e-15            4            1            5 1.1362676e-16 
    1865    348.42078       10 1.1181335e-15            4            1            5 1.1356991e-16 
    1870    349.68257       10 1.1215852e-15            4            1            5 1.1351309e-16 
    1875    350.95989       10 1.1250492e-15            4            1            5 1.134563e-16 
    1880    352.21434       10 1.1285254e-15            4            1            5 1.1339954e-16 
    1885    353.48595       10 1.1320141e-15            4            1            5 1.1334281e-16 
    1890    354.80157       10 1.1355152e-15            4            1            5 1.132861e-16 
    1895    356.06545       10 1.1390287e-15            4            1            5 1.1322943e-16 
    1900     357.3411       10 1.1425548e-15            4            1            5 1.1317278e-16 
    1905    358.62649       11 1.1460933e-15            5            1            5 1.1311616e-16 
    1910    359.94363       11 1.1496445e-15            5            1            5 1.1305957e-16 
    1915    361.25046       11 1.1532083e-15            5            1            5  1.13003e-16 
    1920     362.5606       11 1.1567848e-15            5            1            5 1.1294647e-16 
    1925    363.83852       11 1.160374e-15            5            1            5 1.1288996e-16 
    1930    365.12867       11 1.163976e-15            5            1            5 1.1283348e-16 
    1935    366.41784       11 1.1675908e-15            5            1            5 1.1277703e-16 
    1940    367.72102       11 1.1712184e-15            5            1            5 1.1272061e-16 
    1945    369.01092       11 1.174859e-15            5            1            5 1.1266422e-16 
    1950    370.32891       11 1.1785125e-15            5            1            5 1.1260785e-16 
    1955    371.63818       11 1.1821789e-15            5            1            5 1.1255151e-16 
    1960    372.95047       11 1.1858584e-15            5            1            5 1.124952e-16 
    1965    374.29012       11 1.189551e-15            5            1            5 1.1243892e-16 
    1970    375.65098       11 1.1932568e-15            5            1            5 1.1238267e-16 
    1975    376.97738       11 1.1969757e-15            5            1            5 1.1232645e-16 
    1980    378.32371       11 1.2007078e-15            5            1            5 1.1227025e-16 
    1985    379.70161       11 1.2044532e-15            5            1            5 1.1221408e-16 
    1990    381.09129       11 1.2082119e-15            5            1            5 1.1215794e-16 
    1995    382.49526       11 1.2119839e-15            5            1            5 1.1210183e-16 
    2000    383.87385       11 1.2157694e-15            5            1            5 1.1204574e-16 
    2005    385.26958       11 1.2195683e-15            5            1            5 1.1198969e-16 
    2010    386.65539       11 1.2233807e-15            5            1            5 1.1193366e-16 
    2015    388.10079       11 1.2272066e-15            5            1            5 1.1187766e-16 
    2020    389.47574       12 1.2310462e-15            6            1            5 1.1182169e-16 
    2025     390.8917       12 1.2348993e-15            6            1            5 1.1176575e-16 
    2030    392.30742       12 1.2387662e-15            6            1            5 1.1170983e-16 
    2035     393.7345       12 1.2426468e-15            6            1            5 1.1165394e-16 
    2040    395.14554       12 1.2465412e-15            6            1            5 1.1159808e-16 
    2045    396.57199       12 1.2504494e-15            6            1            5 1.1154225e-16 
    2050    397.99133       13 1.2543715e-15            7            1            5 1.1148645e-16 
    2055    399.43165       13 1.2583075e-15            7            1            5 1.1143067e-16 
    2060    400.89824       13 1.2622575e-15            7            1            5 1.1137492e-16 
    2065    402.38425       13 1.2662215e-15            7            1            5 1.113192e-16 
    2070    403.87362       13 1.2701996e-15            7            1            5 1.1126351e-16 
    2075    405.32478       13 1.2741919e-15            7            1            5 1.1120784e-16 
    2080    406.76362       13 1.2781982e-15            7            1            5 1.1115221e-16 
    2085    408.24929       13 1.2822189e-15            7            1            5 1.110966e-16 
    2090    409.76365       13 1.2862537e-15            7            1            5 1.1104102e-16 
    2095    411.29567       13 1.2903029e-15            7            1            5 1.1098546e-16 
    2100    412.78156       13 1.2943665e-15            7            1            5 1.1092994e-16 
    2105    414.26235       13 1.2984445e-15            7            1            5 1.1087444e-16 
    2110    415.69385       13 1.302537e-15            7            1            5 1.1081897e-16 
    2115    417.12918       13 1.306644e-15            7            1            5 1.1076353e-16 
    2120    418.66268       13 1.3107655e-15            7            1            5 1.1070812e-16 
    2125    420.18859       13 1.3149017e-15            7            1            5 1.1065273e-16 
    2130    421.71412       14 1.3190526e-15            7            1            6 1.1059737e-16 
    2135    423.18671       14 1.3232181e-15            7            1            6 1.1054204e-16 
    2140    424.63819       14 1.3273985e-15            7            1            6 1.1048674e-16 
    2145    426.09967       14 1.3315937e-15            7            1            6 1.1043146e-16 
    2150     427.5907       14 1.3358038e-15            7            1            6 1.1037621e-16 
    2155    429.07297       14 1.3400288e-15            7            1            6 1.1032099e-16 
    2160    430.56554       14 1.3442687e-15            7            1            6 1.102658e-16 
    2165    432.07152       14 1.3485238e-15            7            1            6 1.1021063e-16 
    2170     433.5813       14 1.3527939e-15            7            1            6 1.101555e-16 
    2175    435.12658       14 1.3570791e-15            7            1            6 1.1010039e-16 
    2180    436.66365       14 1.3613796e-15            7            1            6 1.100453e-16 
    2185    438.17463       14 1.3656953e-15            7            1            6 1.0999025e-16 
    2190    439.71355       14 1.3700262e-15            7            1            6 1.0993522e-16 
    2195    441.28585       14 1.3743726e-15            7            1            6 1.0988022e-16 
    2200    442.81901       14 1.3787343e-15            7            1            6 1.0982525e-16 
    2205    444.36079       14 1.3831116e-15            7            1            6 1.097703e-16 
    2210    445.89449       15 1.3875043e-15            7            1            7 1.0971539e-16 
    2215    447.56108       15 1.3919126e-15            7            1            7 1.096605e-16 
    2220    449.18152       15 1.3963365e-15            7            1            7 1.0960564e-16 
    2225    450.77941       15 1.4007761e-15            7            1            7 1.095508e-16 
    2230    452.37589       15 1.4052314e-15            7            1            7 1.0949599e-16 
    2235    453.95603       15 1.4097025e-15            7            1            7 1.0944121e-16 
    2240    455.53635       15 1.4141895e-15            7            1            7 1.0938646e-16 
    2245      457.099       15 1.4186924e-15            7            1            7 1.0933174e-16 
    2250    458.82679       15 1.4232112e-15            7            1            7 1.0927704e-16 
    2255    460.85592       15 1.427746e-15            7            1            7 1.0922237e-16 
    2260    462.79244       15 1.4322969e-15            7            1            7 1.0916773e-16 
    2265    464.81034       15 1.4368639e-15            7            1            7 1.0911311e-16 
    2270    466.93331       15 1.4414471e-15            7            1            7 1.0905852e-16 
    2275    468.96124       15 1.4460465e-15            7            1            7 1.0900396e-16 
    2280    471.03954       15 1.4506622e-15            7            1            7 1.0894943e-16 
    2285    473.10507       15 1.4552942e-15            7            1            7 1.0889492e-16 
    2290    475.12024       15 1.4599427e-15            7            1            7 1.0884044e-16 
    2295    477.14469       15 1.4646076e-15            7            1            7 1.0878599e-16 
    2300    478.79845       15 1.469289e-15            7            1            7 1.0873157e-16 
    2305    480.77482       15 1.473987e-15            7            1            7 1.0867717e-16 
    2310    482.68608       15 1.4787017e-15            7            1            7 1.086228e-16 
    2315    484.51649       15 1.483433e-15            7            1            7 1.0856846e-16 
    2320    486.60528       15 1.4881811e-15            7            1            7 1.0851414e-16 
    2325    488.20172       15 1.492946e-15            7            1            7 1.0845985e-16 
    2330    489.83271       15 1.4977278e-15            7            1            7 1.0840559e-16 
    2335    491.50033       15 1.5025265e-15            7            1            7 1.0835136e-16 
    2340    493.18526       15 1.5073421e-15            7            1            7 1.0829715e-16 
    2345    494.84687       15 1.5121749e-15            7            1            7 1.0824297e-16 
    2350    496.50245       15 1.5170247e-15            7            1            7 1.0818882e-16 
    2355    498.20671       15 1.5218917e-15            7            1            7 1.0813469e-16 
    2360    499.89231       15 1.5267759e-15            7            1            7 1.0808059e-16 
    2365    501.62149       15 1.5316774e-15            7            1            7 1.0802652e-16 
    2370    503.33331       15 1.5365962e-15            7            1            7 1.0797248e-16 
    2375    505.02219       15 1.5415325e-15            7            1            7 1.0791846e-16 
    2380    506.75694       15 1.5464862e-15            7            1            7 1.0786447e-16 
    2385    508.55263       15 1.5514574e-15            7            1            7 1.0781051e-16 
    2390    510.26934       15 1.5564462e-15            7            1            7 1.0775657e-16 
    2395    511.91665       15 1.5614527e-15            7            1            7 1.0770266e-16 
    2400    513.58199       15 1.5664769e-15            7            1            7 1.0764878e-16 
    2405    515.22306       15 1.5715188e-15            7            1            7 1.0759492e-16 
    2410    516.86307       15 1.5765786e-15            7            1            7 1.075411e-16 
    2415    518.51016       15 1.5816563e-15            7            1            7 1.0748729e-16 
    2420    520.15525       15 1.586752e-15            7            1            7 1.0743352e-16 
    2425    521.79962       15 1.5918656e-15            7            1            7 1.0737977e-16 
    2430    523.46289       15 1.5969974e-15            7            1            7 1.0732605e-16 
    2435    525.13848       15 1.6021473e-15            7            1            7 1.0727236e-16 
    2440     526.8663       15 1.6073154e-15            7            1            7 1.0721869e-16 
    2445    528.56879       15 1.6125018e-15            7            1            7 1.0716505e-16 
    2450    530.22875       15 1.6177065e-15            7            1            7 1.0711144e-16 
    2455     531.8785       15 1.6229296e-15            7            1            7 1.0705785e-16 
    2460    533.53483       15 1.6281712e-15            7            1            7 1.0700429e-16 
    2465    535.22556       15 1.6334313e-15            7            1            7 1.0695076e-16 
    2470    536.90258       15  1.63871e-15            7            1            7 1.0689725e-16 
    2475    538.58746       15 1.6440074e-15            7            1            7 1.0684378e-16 
    2480    540.27745       16 1.6493235e-15            8            1            7 1.0679032e-16 
    2485    542.00232       16 1.6546584e-15            8            1            7 1.067369e-16 
    2490    543.73068       16 1.6600121e-15            8            1            7 1.066835e-16 
    2495    545.45379       16 1.6653848e-15            8            1            7 1.0663013e-16 
    2500    547.16504       16 1.6707765e-15            8            1            7 1.0657678e-16 
    2505    548.86882       16 1.6761872e-15            8            1            7 1.0652346e-16 
    2510     550.5745       16 1.681617e-15            8            1            7 1.0647017e-16 
    2515    552.29842       16 1.6870661e-15            8            1            7 1.0641691e-16 
    2520    554.05217       16 1.6925343e-15            8            1            7 1.0636367e-16 
    2525     555.7966       16 1.6980219e-15            8            1            7 1.0631046e-16 
    2530    557.57143       16 1.7035289e-15            8            1            7 1.0625727e-16 
    2535    559.34062       16 1.7090554e-15            8            1            7 1.0620411e-16 
    2540    561.11791       16 1.7146013e-15            8            1            7 1.0615098e-16 
    2545    562.89429       16 1.7201669e-15            8            1            7 1.0609788e-16 
    2550    564.67814       16 1.7257521e-15            8            1            7 1.060448e-16 
    2555    566.45098       16 1.7313571e-15            8            1            7 1.0599175e-16 
    2560    568.24643       16 1.7369818e-15            8            1            7 1.0593872e-16 
    2565    570.00196       16 1.7426265e-15            8            1            7 1.0588572e-16 
    2570    571.76343       16 1.748291e-15            8            1            7 1.0583275e-16 
    2575    573.53268       16 1.7539756e-15            8            1            7 1.057798e-16 
    2580    575.32975       16 1.7596802e-15            8            1            7 1.0572688e-16 
    2585    577.13257       16 1.765405e-15            8            1            7 1.0567399e-16 
    2590    578.98424       16  1.77115e-15            8            1            7 1.0562112e-16 
    2595    580.83223       16 1.7769153e-15            8            1            7 1.0556828e-16 
    2600    582.66628       16 1.782701e-15            8            1            7 1.0551547e-16 
    2605    584.48557       16 1.7885071e-15            8            1            7 1.0546268e-16 
    2610    586.36841       16 1.7943337e-15            8            1            7 1.0540992e-16 
    2615    588.22471       16 1.8001808e-15            8            1            7 1.0535719e-16 
    2620    590.14159       16 1.8060486e-15            8            1            7 1.0530448e-16 
    2625    592.06192       16 1.8119371e-15            8            1            7 1.052518e-16 
    2630    593.97629       16 1.8178465e-15            8            1            7 1.0519915e-16 
    2635    595.82473       16 1.8237766e-15            8            1            7 1.0514652e-16 
    2640    597.69035       16 1.8297277e-15            8            1            7 1.0509392e-16 
    2645    599.57436       16 1.8356998e-15            8            1            7 1.0504134e-16 
    2650    601.42304       16 1.841693e-15            8            1            7 1.0498879e-16 
    2655    603.27726       16 1.8477074e-15            8            1            7 1.0493627e-16 
    2660    605.13848       16 1.853743e-15            8            1            7 1.0488377e-16 
    2665     607.0168       16 1.8597998e-15            8            1            7 1.048313e-16 
    2670    608.93302       16 1.8658781e-15            8            1            7 1.0477885e-16 
    2675    610.87376       16 1.8719778e-15            8            1            7 1.0472644e-16 
    2680    612.75772       16 1.878099e-15            8            1            7 1.0467404e-16 
    2685    614.64112       16 1.8842419e-15            8            1            7 1.0462168e-16 
    2690    616.56251       16 1.8904064e-15            8            1            7 1.0456934e-16 
    2695    618.47444       16 1.8965926e-15            8            1            7 1.0451703e-16 
    2700    620.43008       16 1.9028007e-15            8            1            7 1.0446474e-16 
    2705    622.33641       16 1.9090307e-15            8            1            7 1.0441248e-16 
    2710    624.24289       16 1.9152827e-15            8            1            7 1.0436024e-16 
    2715     626.1569       16 1.9215567e-15            8            1            7 1.0430804e-16 
    2720    628.11985       16 1.9278529e-15            8            1            7 1.0425585e-16 
    2725    630.08114       17 1.9341713e-15            8            1            8 1.042037e-16 
    2730    632.07102       17 1.9405119e-15            8            1            8 1.0415157e-16 
    2735     634.0173       17 1.946875e-15            8            1            8 1.0409946e-16 
    2740     635.9629       17 1.9532604e-15            8            1            8 1.0404739e-16 
    2745     637.9188       17 1.9596684e-15            8            1            8 1.0399534e-16 
    2750    639.92092       17 1.9660991e-15            8            1            8 1.0394331e-16 
    2755    641.92111       17 1.9725523e-15            8            1            8 1.0389131e-16 
    2760    643.92168       17 1.9790284e-15            8            1            8 1.0383934e-16 
    2765    645.92306       17 1.9855273e-15            8            1            8 1.0378739e-16 
    2770    647.92129       17 1.9920491e-15            8            1            8 1.0373547e-16 
    2775    649.92068       17 1.9985939e-15            8            1            8 1.0368357e-16 
    2780      651.961       17 2.0051618e-15            8            1            8 1.036317e-16 
    2785    653.97294       17 2.0117528e-15            8            1            8 1.0357986e-16 
    2790    655.99793       17 2.0183671e-15            8            1            8 1.0352804e-16 
    2795    658.01621       17 2.0250047e-15            8            1            8 1.0347625e-16 
    2800    660.04109       17 2.0316657e-15            8            1            8 1.0342449e-16 
    2805    662.06553       17 2.0383502e-15            8            1            8 1.0337275e-16 
    2810    664.10191       17 2.0450583e-15            8            1            8 1.0332103e-16 
    2815    666.14074       17  2.05179e-15            8            1            8 1.0326935e-16 
    2820     668.1874       18 2.0585455e-15            9            1            8 1.0321768e-16 
    2825    673.06557       19 2.0653248e-15            9            1            9 1.0316605e-16 
    2830    674.75546       19 2.072128e-15            9            1            9 1.0311444e-16 
    2835    676.70518       19 2.0789551e-15            9            1            9 1.0306285e-16 
    2840    678.71434       19 2.0858064e-15            9            1            9 1.0301129e-16 
    2845    680.74327       19 2.0926817e-15            9            1            9 1.0295976e-16 
    2850    682.78667       19 2.0995814e-15            9            1            9 1.0290826e-16 
    2855    684.84224       19 2.1065053e-15            9            1            9 1.0285677e-16 
    2860    686.90603       19 2.1134537e-15            9            1            9 1.0280532e-16 
    2865    689.01167       19 2.1204265e-15            9            1            9 1.0275389e-16 
    2870    691.09607       19 2.1274239e-15            9            1            9 1.0270249e-16 
    2875      693.202       19 2.134446e-15            9            1            9 1.0265111e-16 
    2880    695.35989       20 2.1414928e-15            9            1           10 1.0259976e-16 
    2885    697.48657       20 2.1485644e-15            9            1           10 1.0254843e-16 
    2890     699.6896       20 2.155661e-15            9            1           10 1.0249713e-16 
    2895    701.93088       20 2.1627826e-15            9            1           10 1.0244586e-16 
    2900    704.12017       20 2.1699292e-15            9            1           10 1.0239461e-16 
    2905    706.28343       20 2.1771011e-15            9            1           10 1.0234338e-16 
    2910    708.47187       20 2.1842982e-15            9            1           10 1.0229219e-16 
    2915    710.65877       20 2.1915207e-15            9            1           10 1.0224101e-16 
    2920    712.90481       21 2.1987686e-15           10            1           10 1.0218987e-16 
    2925    715.09597       21 2.206042e-15           10            1           10 1.0213875e-16 
    2930    717.31951       21 2.2133411e-15           10            1           10 1.0208765e-16 
    2935    722.12022       22 2.2206659e-15           11            1           10 1.0203658e-16 
    2940     723.7455       22 2.2280166e-15           11            1           10 1.0198554e-16 
    2945    725.54343       22 2.2353931e-15           11            1           10 1.0193452e-16 
    2950    727.40175       22 2.2427956e-15           11            1           10 1.0188353e-16 
    2955    729.44986       22 2.2502242e-15           11            1           10 1.0183256e-16 
    2960     731.5648       22 2.2576789e-15           11            1           10 1.0178162e-16 
    2965    733.69215       22 2.2651599e-15           11            1           10 1.017307e-16 
    2970    735.84558       22 2.2726673e-15           11            1           10 1.0167981e-16 
    2975    738.01032       22 2.2802011e-15           11            1           10 1.0162895e-16 
    2980    740.15609       22 2.2877614e-15           11            1           10 1.0157811e-16 
    2985     742.3058       22 2.2953484e-15           11            1           10 1.0152729e-16 
    2990    744.47315       22 2.302962e-15           11            1           10 1.014765e-16 
    2995    746.64533       23 2.3106025e-15           11            1           11 1.0142574e-16 
    3000    748.87332       24 2.3182699e-15           12            1           11  1.01375e-16 
    3005    751.06262       24 2.3259643e-15           12            1           11 1.0132429e-16 
    3010    753.29751       24 2.3336858e-15           12            1           11 1.012736e-16 
    3015    755.50002       24 2.3414345e-15           12            1           11 1.0122294e-16 
    3020    757.71404       24 2.3492104e-15           12            1           11 1.0117231e-16 
    3025    759.99868       24 2.3570138e-15           12            1           11 1.011217e-16 
    3030    762.30945       24 2.3648446e-15           12            1           11 1.0107111e-16 
    3035    764.57257       24 2.372703e-15           12            1           11 1.0102055e-16 
    3040    766.84433       24 2.380589e-15           12            1           11 1.0097002e-16 
    3045    769.11562       24 2.3885028e-15           12            1           11 1.0091951e-16 
    3050    771.39702       25 2.3964445e-15           13            1           11 1.0086902e-16 
    3055    773.66785       25 2.4044141e-15           13            1           11 1.0081856e-16 
    3060    775.96203       25 2.4124118e-15           13            1           11 1.0076813e-16 
    3065     778.3143       25 2.4204377e-15           13            1           11 1.0071772e-16 
    3070    780.67863       25 2.4284918e-15           13            1           11 1.0066734e-16 
    3075    783.01686       26 2.4365742e-15           14            1           11 1.0061698e-16 
    3080    785.33767       26 2.4446851e-15           14            1           11 1.0056665e-16 
    3085    787.66946       26 2.4528246e-15           14            1           11 1.0051634e-16 
    3090    790.00674       26 2.4609927e-15           14            1           11 1.0046606e-16 
    3095    792.34819       26 2.4691895e-15           14            1           11 1.0041581e-16 
    3100    794.71035       26 2.4774152e-15           14            1           11 1.0036557e-16 
    3105    797.07803       26 2.4856698e-15           14            1           11 1.0031537e-16 
    3110    799.45334       26 2.4939535e-15           14            1           11 1.0026519e-16 
    3115    801.90382       26 2.5022664e-15           14            1           11 1.0021503e-16 
    3120    804.35491       26 2.5106085e-15           14            1           11 1.001649e-16 
    3125    806.80378       26 2.5189799e-15           14            1           11 1.001148e-16 
    3130    809.23808       26 2.5273808e-15           14            1           11 1.0006472e-16 
    3135    811.65544       26 2.5358113e-15           14            1           11 1.0001466e-16 
    3140    814.11065       26 2.5442714e-15           14            1           11 9.996463e-17 
    3145    816.57438       26 2.5527614e-15           14            1           11 9.9914625e-17 
    3150    818.99587       27 2.5612811e-15           14            1           12 9.9864645e-17 
    3155    821.42046       27 2.5698309e-15           14            1           12 9.981469e-17 
    3160    823.85534       27 2.5784107e-15           14            1           12 9.9764761e-17 
    3165    826.29269       27 2.5870208e-15           14            1           12 9.9714856e-17 
    3170      828.767       27 2.5956611e-15           14            1           12 9.9664976e-17 
    3175    831.22978       27 2.6043318e-15           14            1           12 9.9615122e-17 
    3180    833.75031       27 2.613033e-15           14            1           12 9.9565292e-17 
    3185    836.22621       27 2.6217649e-15           14            1           12 9.9515488e-17 
    3190    838.73215       27 2.6305274e-15           14            1           12 9.9465708e-17 
    3195    841.27365       27 2.6393208e-15           14            1           12 9.9415953e-17 
    3200     843.7931       27 2.6481451e-15           14            1           12 9.9366224e-17 
    3205    846.29355       27 2.6570004e-15           14            1           12 9.9316519e-17 
    3210    848.79817       27 2.6658869e-15           14            1           12 9.9266839e-17 
    3215    851.28365       27 2.6748047e-15           14            1           12 9.9217184e-17 
    3220    853.77339       27 2.6837538e-15           14            1           12 9.9167555e-17 
    3225    856.27715       27 2.6927344e-15           14            1           12 9.911795e-17 
    3230    858.79665       28 2.7017466e-15           15            1           12 9.9068369e-17 
    3235    861.32785       28 2.7107905e-15           15            1           12 9.9018814e-17 
    3240    863.87411       28 2.7198662e-15           15            1           12 9.8969284e-17 
    3245    866.42722       28 2.7289738e-15           15            1           12 9.8919778e-17 
    3250    869.02633       28 2.7381134e-15           15            1           12 9.8870298e-17 
    3255    871.58997       28 2.7472852e-15           15            1           12 9.8820842e-17 
    3260    874.16724       28 2.7564892e-15           15            1           12 9.8771411e-17 
    3265    876.77447       28 2.7657257e-15           15            1           12 9.8722005e-17 
    3270     879.3838       28 2.7749945e-15           15            1           12 9.8672623e-17 
    3275     881.9737       28 2.784296e-15           15            1           12 9.8623267e-17 
    3280     884.5758       28 2.7936302e-15           15            1           12 9.8573935e-17 
    3285    887.21736       28 2.8029972e-15           15            1           12 9.8524628e-17 
    3290    889.93121       28 2.8123971e-15           15            1           12 9.8475346e-17 
    3295    892.57864       28 2.8218301e-15           15            1           12 9.8426088e-17 
    3300    895.29416       28 2.8312963e-15           15            1           12 9.8376855e-17 
    3305    897.98144       28 2.8407957e-15           15            1           12 9.8327647e-17 
    3310    903.91848       30 2.8503286e-15           15            1           14 9.8278464e-17 
    3315     905.7776       30 2.859895e-15           15            1           14 9.8229305e-17 
    3320    908.29733       30 2.869495e-15           15            1           14 9.8180171e-17 
    3325    910.97744       30 2.8791287e-15           15            1           14 9.8131062e-17 
    3330    913.62473       30 2.8887964e-15           15            1           14 9.8081977e-17 
    3335    916.31522       30 2.898498e-15           15            1           14 9.8032917e-17 
    3340    919.02807       30 2.9082337e-15           15            1           14 9.7983882e-17 
    3345    921.74604       30 2.9180037e-15           15            1           14 9.7934871e-17 
    3350    924.45063       30 2.927808e-15           15            1           14 9.7885885e-17 
    3355    927.22156       30 2.9376467e-15           15            1           14 9.7836923e-17 
    3360    929.94396       30 2.9475201e-15           15            1           14 9.7787986e-17 
    3365    932.70179       30 2.9574281e-15           15            1           14 9.7739074e-17 
    3370    935.50883       30 2.967371e-15           15            1           14 9.7690186e-17 
    3375    938.26296       30 2.9773488e-15           15            1           14 9.7641323e-17 
    3380     941.0095       30 2.9873617e-15           15            1           14 9.7592484e-17 
    3385    943.77366       30 2.9974098e-15           15            1           14 9.754367e-17 
    3390    946.55717       30 3.0074932e-15           15            1           14 9.749488e-17 
    3395    949.36057       30 3.017612e-15           15            1           14 9.7446115e-17 
    3400    952.14317       30 3.0277664e-15           15            1           14 9.7397375e-17 
    3405    954.97306       30 3.0379565e-15           15            1           14 9.7348658e-17 
    3410    957.89254       30 3.0481824e-15           15            1           14 9.7299967e-17 
    3415    960.74108       30 3.0584442e-15           15            1           14 9.7251299e-17 
    3420     963.5733       30 3.0687421e-15           15            1           14 9.7202657e-17 
    3425    966.51003       30 3.0790762e-15           15            1           14 9.7154038e-17 
    3430    969.60275       30 3.0894466e-15           15            1           14 9.7105444e-17 
    3435     972.5953       30 3.0998535e-15           15            1           14 9.7056875e-17 
    3440    975.61297       30 3.1102969e-15           15            1           14 9.700833e-17 
    3445     978.5575       30 3.120777e-15           15            1           14 9.6959809e-17 
    3450    981.44781       30 3.1312939e-15           15            1           14 9.6911313e-17 
    3455    984.43167       30 3.1418478e-15           15            1           14 9.6862841e-17 
    3460    987.43257       30 3.1524388e-15           15            1           14 9.6814393e-17 
    3465    990.45756       30 3.163067e-15           15            1           14 9.676597e-17 
    3470    993.46545       30 3.1737325e-15           15            1           14 9.6717571e-17 
    3475    996.53948       30 3.1844355e-15           15            1           14 9.6669196e-17 
    3480    999.57696       30 3.1951761e-15           15            1           14 9.6620846e-17 
    3485    1002.5416       30 3.2059544e-15           15            1           14 9.657252e-17 
    3490    1005.6623       30 3.2167706e-15           15            1           14 9.6524218e-17 
    3495    1008.7854       30 3.2276248e-15           15            1           14 9.6475941e-17 
    3500    1011.8268       30 3.2385171e-15           15            1           14 9.6427688e-17 
    3505    1014.8557       30 3.2494477e-15           15            1           14 9.6379459e-17 
    3510    1017.8732       30 3.2604167e-15           15            1           14 9.6331254e-17 
    3515    1020.8903       30 3.2714243e-15           15            1           14 9.6283074e-17 
    3520    1023.9033       30 3.2824705e-15           15            1           14 9.6234918e-17 
    3525    1026.9446       31 3.2935554e-15           15            1           15 9.6186786e-17 
    3530    1030.0049       31 3.3046794e-15           15            1           15 9.6138678e-17 
    3535    1033.0146       31 3.3158424e-15           15            1           15 9.6090594e-17 
    3540    1036.0476       31 3.3270446e-15           15            1           15 9.6042535e-17 
    3545    1039.0952       31 3.3382862e-15           15            1           15  9.59945e-17 
    3550    1042.1329       31 3.3495672e-15           15            1           15 9.5946489e-17 
    3555    1045.2536       31 3.3608879e-15           15            1           15 9.5898502e-17 
    3560    1048.3761       31 3.3722483e-15           15            1           15 9.5850539e-17 
    3565    1051.4465       31 3.3836487e-15           15            1           15  9.58026e-17 
    3570    1054.5433       31 3.395089e-15           15            1           15 9.5754685e-17 
    3575    1057.7005       31 3.4065696e-15           15            1           15 9.5706795e-17 
    3580    1060.8373       31 3.4180905e-15           15            1           15 9.5658929e-17 
    3585    1064.0511       31 3.4296518e-15           15            1           15 9.5611086e-17 
    3590    1067.2034       31 3.4412537e-15           15            1           15 9.5563268e-17 
    3595    1070.4607       31 3.4528964e-15           15            1           15 9.5515474e-17 
    3600    1073.6359       32  3.46458e-15           15            1           16 9.5467704e-17 
    3605    1076.8075       32 3.4763046e-15           15            1           16 9.5419957e-17 
    3610    1079.9452       32 3.4880703e-15           15            1           16 9.5372235e-17 
    3615    1083.1222       32 3.4998774e-15           15            1           16 9.5324537e-17 
    3620     1086.299       32 3.511726e-15           15            1           16 9.5276863e-17 
    3625    1089.4759       32 3.5236161e-15           15            1           16 9.5229213e-17 
    3630    1092.6746       33 3.535548e-15           15            1           17 9.5181587e-17 
    3635    1095.8785       33 3.5475218e-15           15            1           17 9.5133985e-17 
    3640    1099.1481       33 3.5595377e-15           15            1           17 9.5086406e-17 
    3645     1102.434       33 3.5715957e-15           15            1           17 9.5038852e-17 
    3650    1105.7397       33 3.583696e-15           15            1           17 9.4991322e-17 
    3655    1109.0979       34 3.5958389e-15           16            1           17 9.4943815e-17 
    3660      1112.35       34 3.6080244e-15           16            1           17 9.4896333e-17 
    3665     1115.611       34 3.6202527e-15           16            1           17 9.4848874e-17 
    3670     1118.875       34 3.6325239e-15           16            1           17 9.4801439e-17 
    3675    1122.1372       34 3.6448381e-15           16            1           17 9.4754029e-17 
    3680    1125.6906       34 3.6571957e-15           16            1           17 9.4706642e-17 
    3685    1128.9844       34 3.6695966e-15           16            1           17 9.4659278e-17 
    3690    1132.2553       34 3.682041e-15           16            1           17 9.4611939e-17 
    3695    1135.5407       34 3.6945291e-15           16            1           17 9.4564624e-17 
    3700    1138.8384       34 3.7070611e-15           16            1           17 9.4517332e-17 
    3705    1142.2296       34 3.719637e-15           16            1           17 9.4470064e-17 
    3710     1145.651       34 3.7322571e-15           16            1           17 9.442282e-17 
    3715    1149.0502       34 3.7449215e-15           16            1           17  9.43756e-17 
    3720     1152.414       34 3.7576304e-15           16            1           17 9.4328403e-17 
    3725    1155.7757       35 3.7703839e-15           17            1           17 9.4281231e-17 
    3730    1159.1707       35 3.7831821e-15           17            1           17 9.4234082e-17 
    3735    1162.5944       35 3.7960252e-15           17            1           17 9.4186956e-17 
    3740     1165.983       35 3.8089135e-15           17            1           17 9.4139855e-17 
    3745    1169.6201       36 3.821847e-15           18            1           17 9.4092777e-17 
    3750    1173.1655       37 3.8348258e-15           19            1           17 9.4045723e-17 
    3755    1176.7269       37 3.8478503e-15           19            1           17 9.3998693e-17 
    3760    1180.3461       37 3.8609204e-15           19            1           17 9.3951686e-17 
    3765    1183.9697       37 3.8740364e-15           19            1           17 9.3904703e-17 
    3770    1187.5837       37 3.8871985e-15           19            1           17 9.3857744e-17 
    3775    1191.1309       37 3.9004067e-15           19            1           17 9.3810808e-17 
    3780    1194.6946       37 3.9136613e-15           19            1           17 9.3763896e-17 
    3785    1198.2644       37 3.9269624e-15           19            1           17 9.3717008e-17 
    3790    1210.0643       37 3.9403103e-15           19            1           17 9.3670143e-17 
    3795    1212.9246       37 3.9537049e-15           19            1           17 9.3623302e-17 
    3800    1216.2585       37 3.9671466e-15           19            1           17 9.3576484e-17 
    3805    1219.6754       37 3.9806355e-15           19            1           17 9.352969e-17 
    3810    1223.2234       37 3.9941716e-15           19            1           17 9.348292e-17 
    3815    1226.8957       38 4.0077553e-15           20            1           17 9.3436173e-17 
    3820    1230.6166       38 4.0213867e-15           20            1           17 9.338945e-17 
    3825    1234.8543       39 4.0350659e-15           21            1           17 9.334275e-17 
    3830    1238.6436       39 4.0487931e-15           21            1           17 9.3296074e-17 
    3835    1242.4083       39 4.0625684e-15           21            1           17 9.3249421e-17 
    3840    1246.1009       39 4.0763921e-15           21            1           17 9.3202792e-17 
    3845    1249.7701       39 4.0902644e-15           21            1           17 9.3156187e-17 
    3850     1253.452       40 4.1041852e-15           22            1           17 9.3109605e-17 
    3855    1257.1193       40 4.118155e-15           22            1           17 9.3063046e-17 
    3860    1260.7333       40 4.1321737e-15           22            1           17 9.3016511e-17 
    3865     1264.374       40 4.1462417e-15           22            1           17 9.2969999e-17 
    3870    1267.9983       40 4.1603589e-15           22            1           17 9.2923511e-17 
    3875    1271.6839       40 4.1745258e-15           22            1           17 9.2877046e-17 
    3880    1275.3497       40 4.1887423e-15           22            1           17 9.2830605e-17 
    3885    1279.0153       40 4.2030087e-15           22            1           17 9.2784187e-17 
    3890    1282.7283       40 4.2173252e-15           22            1           17 9.2737793e-17 
    3895    1286.6158       41 4.2316919e-15           22            1           18 9.2691421e-17 
    3900    1290.6343       41 4.246109e-15           22            1           18 9.2645074e-17 
    3905      1297.28       42 4.2605767e-15           23            1           18 9.2598749e-17 
[...]
    4045    1571.6742       44 4.6869424e-15           23            1           20 9.1311118e-17 
    4050    1575.0585       44 4.7029564e-15           23            1           20 9.1265467e-17 
    4055    1578.8674       44 4.7190267e-15           23            1           20 9.1219839e-17 
    4060    1582.5352       44 4.7351533e-15           23            1           20 9.1174234e-17 
    4065    1586.2076       44 4.7513364e-15           23            1           20 9.1128653e-17 
    4070    1589.8528       44 4.7675763e-15           23            1           20 9.1083094e-17 
    4075    1593.6073       44 4.7838731e-15           23            1           20 9.1037558e-17 
    4080    1597.3503       44 4.8002271e-15           23            1           20 9.0992046e-17 
    4085    1601.0495       45 4.8166385e-15           24            1           20 9.0946556e-17 
    4090    1604.7995       45 4.8331074e-15           24            1           20 9.090109e-17 
    4095    1608.6112       45 4.849634e-15           24            1           20 9.0855646e-17 
    4100    1612.4234       45 4.8662186e-15           24            1           20 9.0810225e-17 
    4105    1616.2571       45 4.8828614e-15           24            1           20 9.0764828e-17 
    4110     1620.068       46 4.8995625e-15           24            1           21 9.0719453e-17 
    4115    1623.9293       46 4.9163222e-15           24            1           21 9.0674101e-17 
    4120    1627.7987       46 4.9331406e-15           24            1           21 9.0628772e-17 
    4125     1631.731       46 4.9500181e-15           24            1           21 9.0583466e-17 
    4130    1635.6949       47 4.9669547e-15           24            1           22 9.0538183e-17 
    4135     1639.614       49 4.9839506e-15           24            1           24 9.0492923e-17 
    4140    1646.8943       50 5.0010062e-15           25            1           24 9.0447686e-17 
    4145    1650.9334       50 5.0181215e-15           25            1           24 9.0402472e-17 
    4150    1655.0809       51 5.0352969e-15           26            1           24 9.035728e-17 
    4155    1659.1421       51 5.0525324e-15           26            1           24 9.0312112e-17 
    4160    1663.2158       51 5.0698284e-15           26            1           24 9.0266966e-17 
    4165     1667.421       51 5.087185e-15           26            1           24 9.0221843e-17 
    4170     1671.682       51 5.1046025e-15           26            1           24 9.0176743e-17 
    4175    1675.7687       51 5.1220811e-15           26            1           24 9.0131666e-17 
    4180    1679.8885       53 5.1396209e-15           28            1           24 9.0086612e-17 
    4185    1684.0961       53 5.1572222e-15           28            1           24 9.004158e-17 
    4190    1688.3474       53 5.1748852e-15           28            1           24 8.9996571e-17 
    4195    1692.5696       53 5.1926102e-15           28            1           24 8.9951585e-17 
    4200    1696.7913       53 5.2103973e-15           28            1           24 8.9906622e-17 
    4205    1701.1234       53 5.2282467e-15           28            1           24 8.9861682e-17 
    4210    1705.4225       53 5.2461587e-15           28            1           24 8.9816764e-17 
    4215    1709.7277       53 5.2641336e-15           28            1           24 8.9771869e-17 
    4220    1713.9467       54 5.2821714e-15           28            1           25 8.9726997e-17 
    4225    1718.2199       55 5.3002724e-15           29            1           25 8.9682147e-17 
    4230    1722.5231       55 5.318437e-15           29            1           25 8.9637321e-17 
    4235    1726.8671       55 5.3366651e-15           29            1           25 8.9592517e-17 
    4240    1731.2698       55 5.3549572e-15           29            1           25 8.9547735e-17 
    4245     1735.532       55 5.3733134e-15           29            1           25 8.9502977e-17 
    4250    1739.8779       55 5.391734e-15           29            1           25 8.9458241e-17 
    4255    1744.2929       55 5.4102191e-15           29            1           25 8.9413527e-17 
    4260    1748.6712       55 5.428769e-15           29            1           25 8.9368837e-17 
    4265    1753.1348       55 5.447384e-15           29            1           25 8.9324169e-17 
    4270    1757.6233       55 5.4660642e-15           29            1           25 8.9279523e-17 
    4275    1762.0244       55 5.4848099e-15           29            1           25 8.9234901e-17 
    4280    1766.4692       55 5.5036212e-15           29            1           25 8.9190301e-17 
    4285    1771.0498       55 5.5224985e-15           29            1           25 8.9145723e-17 
    4290    1775.4411       55 5.541442e-15           29            1           25 8.9101168e-17 
    4295    1780.0295       55 5.5604519e-15           29            1           25 8.9056636e-17 
    4300    1784.7104       55 5.5795284e-15           29            1           25 8.9012126e-17 
    4305    1789.2018       55 5.5986718e-15           29            1           25 8.8967639e-17 
    4310    1793.6743       55 5.6178822e-15           29            1           25 8.8923174e-17 
    4315    1798.2902       56  5.63716e-15           29            1           26 8.8878732e-17 
    4320    1802.7563       56 5.6565054e-15           29            1           26 8.8834313e-17 
    4325    1807.3317       56 5.6759186e-15           29            1           26 8.8789916e-17 
    4330    1811.9038       56 5.6953998e-15           29            1           26 8.8745541e-17 
    4335    1816.4232       57 5.7149493e-15           30            1           26 8.8701189e-17 
    4340    1820.9451       57 5.7345672e-15           30            1           26 8.865686e-17 
    4345    1825.5126       57 5.754254e-15           30            1           26 8.8612553e-17 
    4350    1830.0857       57 5.7740097e-15           30            1           26 8.8568269e-17 
    4355    1834.8573       57 5.7938347e-15           30            1           26 8.8524007e-17 
    4360    1839.6845       57 5.8137292e-15           30            1           26 8.8479767e-17 
    4365    1844.3044       57 5.8336934e-15           30            1           26 8.843555e-17 
    4370    1848.9482       57 5.8537275e-15           30            1           26 8.8391356e-17 
    4375    1853.6922       57 5.8738319e-15           30            1           26 8.8347183e-17 
    4380    1858.3602       57 5.8940067e-15           30            1           26 8.8303034e-17 
    4385    1863.3344       57 5.9142522e-15           30            1           26 8.8258906e-17 
    4390    1868.1385       57 5.9345686e-15           30            1           26 8.8214801e-17 
    4395    1872.9061       57 5.9549563e-15           30            1           26 8.8170719e-17 
    4400    1877.5852       57 5.9754154e-15           30            1           26 8.8126659e-17 
    4405    1882.3537       57 5.9959462e-15           30            1           26 8.8082621e-17 
    4410    1887.0777       57 6.0165489e-15           30            1           26 8.8038606e-17 
    4415    1891.8201       57 6.0372238e-15           30            1           26 8.7994613e-17 
    4420    1896.5819       59 6.0579712e-15           31            1           27 8.7950642e-17 
    4425    1901.3162       59 6.0787913e-15           31            1           27 8.7906694e-17 
    4430    1906.1076       59 6.0996843e-15           31            1           27 8.7862768e-17 
    4435    1910.8858       59 6.1206506e-15           31            1           27 8.7818864e-17 
    4440    1915.6965       59 6.1416903e-15           31            1           27 8.7774983e-17 
    4445    1920.5061       59 6.1628037e-15           31            1           27 8.7731124e-17 
    4450    1925.3289       59 6.1839911e-15           31            1           27 8.7687287e-17 
    4455    1930.1485       59 6.2052528e-15           31            1           27 8.7643473e-17 
    4460    1934.9642       59 6.2265889e-15           31            1           27 8.7599681e-17 
    4465    1939.9221       61 6.2479998e-15           32            1           28 8.7555911e-17 
    4470     1944.949       61 6.2694858e-15           32            1           28 8.7512163e-17 
    4475    1949.9971       61 6.291047e-15           32            1           28 8.7468438e-17 
    4480    1955.0204       61 6.3126837e-15           32            1           28 8.7424735e-17 
    4485    1960.0511       61 6.3343963e-15           32            1           28 8.7381054e-17 
    4490    1965.0881       61 6.3561849e-15           32            1           28 8.7337395e-17 
    4495    1970.0861       61 6.3780499e-15           32            1           28 8.7293759e-17 
    4500    1975.1433       61 6.3999915e-15           32            1           28 8.7250144e-17 
    4505    1980.1256       61  6.42201e-15           32            1           28 8.7206552e-17 
    4510    1985.1429       61 6.4441056e-15           32            1           28 8.7162983e-17 
    4515    1990.3036       61 6.4662786e-15           32            1           28 8.7119435e-17 
    4520    1995.4144       61 6.4885293e-15           32            1           28 8.7075909e-17 
    4525    2000.4528       61 6.5108579e-15           32            1           28 8.7032406e-17 
    4530    2005.4958       61 6.5332648e-15           32            1           28 8.6988925e-17 
    4535    2010.5621       61 6.5557502e-15           32            1           28 8.6945466e-17 
    4540     2015.692       61 6.5783144e-15           32            1           28 8.6902029e-17 
    4545    2020.7611       61 6.6009576e-15           32            1           28 8.6858614e-17 
    4550    2025.8522       62 6.6236801e-15           32            1           29 8.6815221e-17 
    4555    2033.5281       63 6.6464822e-15           32            1           30 8.6771851e-17 
    4560    2038.1629       64 6.6693642e-15           33            1           30 8.6728502e-17 
    4565    2043.1997       65 6.6923263e-15           34            1           30 8.6685176e-17 
    4570    2048.3034       65 6.7153689e-15           34            1           30 8.6641871e-17 
    4575    2053.5575       66 6.7384922e-15           34            1           31 8.6598589e-17 
    4580    2058.9762       66 6.7616965e-15           34            1           31 8.6555329e-17 
    4585    2064.1713       66 6.7849821e-15           34            1           31 8.6512091e-17 
    4590    2069.4718       66 6.8083492e-15           34            1           31 8.6468875e-17 
    4595    2074.7704       66 6.8317982e-15           34            1           31 8.6425681e-17 
    4600    2080.0438       66 6.8553294e-15           34            1           31 8.6382509e-17 
    4605    2085.2597       66 6.878943e-15           34            1           31 8.6339359e-17 
    4610    2090.5832       66 6.9026393e-15           34            1           31 8.6296231e-17 
    4615    2096.0352       67 6.9264186e-15           35            1           31 8.6253125e-17 
    4620    2101.5396       67 6.9502812e-15           35            1           31 8.6210041e-17 
    4625    2107.1072       67 6.9742274e-15           35            1           31 8.6166979e-17 
    4630    2112.7467       67 6.9982574e-15           35            1           31 8.6123938e-17 
    4635    2118.4501       67 7.0223717e-15           35            1           31 8.608092e-17 
    4640     2124.295       67 7.0465704e-15           35            1           31 8.6037924e-17 
    4645    2130.2588       67 7.0708538e-15           35            1           31 8.599495e-17 
    4650     2136.053       67 7.0952224e-15           35            1           31 8.5951998e-17 
    4655    2141.9001       67 7.1196762e-15           35            1           31 8.5909067e-17 
    4660    2147.4703       67 7.1442158e-15           35            1           31 8.5866159e-17 
    4665    2161.3285       67 7.1688412e-15           35            1           31 8.5823272e-17 
    4670    2176.1365       67 7.193553e-15           35            1           31 8.5780408e-17 
    4675    2180.7221       68 7.2183513e-15           35            1           32 8.5737565e-17 
    4680    2186.2543       69 7.2432365e-15           35            1           33 8.5694744e-17 
    4685    2191.9415       69 7.2682088e-15           35            1           33 8.5651945e-17 
    4690    2197.4423       69 7.2932686e-15           35            1           33 8.5609168e-17 
    4695    2203.1134       69 7.3184162e-15           35            1           33 8.5566413e-17 
    4700     2208.716       69 7.3436519e-15           35            1           33 8.5523679e-17 
    4705    2214.3286       69 7.3689759e-15           35            1           33 8.5480968e-17 
    4710    2220.0867       69 7.3943886e-15           35            1           33 8.5438278e-17 
    4715    2225.8997       69 7.4198904e-15           35            1           33 8.539561e-17 
    4720    2231.7268       70 7.4454814e-15           36            1           33 8.5352964e-17 
    4725    2237.5586       70 7.4711621e-15           36            1           33 8.531034e-17 
    4730    2243.4217       70 7.4969327e-15           36            1           33 8.5267737e-17 
    4735    2249.3043       70 7.5227936e-15           36            1           33 8.5225157e-17 
    4740    2255.2521       71 7.548745e-15           36            1           34 8.5182598e-17 
    4745    2261.1233       71 7.5747873e-15           36            1           34 8.514006e-17 
    4750      2266.96       71 7.6009209e-15           36            1           34 8.5097545e-17 
    4755    2272.9481       71 7.6271459e-15           36            1           34 8.5055051e-17 
    4760    2278.9096       71 7.6534628e-15           36            1           34 8.501258e-17 
    4765    2284.9111       71 7.6798719e-15           36            1           34 8.4970129e-17 
    4770    2290.8166       72 7.7063734e-15           37            1           34 8.4927701e-17 
    4775    2296.8666       72 7.7329677e-15           37            1           34 8.4885294e-17 
    4780    2302.8668       72 7.7596552e-15           37            1           34 8.4842909e-17 
    4785    2308.8771       73 7.7864362e-15           37            1           35 8.4800546e-17 
    4790     2315.033       74 7.8133109e-15           38            1           35 8.4758204e-17 
    4795    2320.9939       74 7.8402797e-15           38            1           35 8.4715885e-17 
    4800    2327.0781       74 7.867343e-15           38            1           35 8.4673586e-17 
    4805    2333.1418       74 7.8945011e-15           38            1           35 8.463131e-17 
    4810     2339.291       74 7.9217542e-15           38            1           35 8.4589055e-17 
    4815    2345.4152       74 7.9491028e-15           38            1           35 8.4546822e-17 
    4820    2351.6364       74 7.9765471e-15           38            1           35 8.450461e-17 
    4825    2357.9784       74 8.0040876e-15           38            1           35 8.446242e-17 
    4830    2364.3803       74 8.0317245e-15           38            1           35 8.4420252e-17 
    4835    2371.1472       75 8.0594582e-15           39            1           35 8.4378105e-17 
    4840    2377.3972       75 8.0872889e-15           39            1           35 8.433598e-17 
    4845    2383.7706       75 8.1152172e-15           39            1           35 8.4293877e-17 
    4850     2390.477       75 8.1432432e-15           39            1           35 8.4251795e-17 
    4855     2397.071       75 8.1713674e-15           39            1           35 8.4209734e-17 
    4860    2403.4589       75  8.19959e-15           39            1           35 8.4167696e-17 
    4865     2409.852       75 8.2279115e-15           39            1           35 8.4125679e-17 
    4870    2416.2087       75 8.2563321e-15           39            1           35 8.4083683e-17 
    4875    2422.7362       75 8.2848522e-15           39            1           35 8.4041709e-17 
    4880    2429.2784       76 8.3134722e-15           40            1           35 8.3999756e-17 
    4885    2437.6631       78 8.3421926e-15           42            1           35 8.3957825e-17 
    4890    2443.5392       78 8.3710135e-15           42            1           35 8.3915916e-17 
    4895    2452.7864       78 8.3999353e-15           42            1           35 8.3874028e-17 
    4900    2458.0758       79 8.4289586e-15           43            1           35 8.3832162e-17 
    4905    2464.2478       79 8.4580834e-15           43            1           35 8.3790317e-17 
    4910    2470.6256       81 8.4873102e-15           44            1           36 8.3748494e-17 
    4915    2477.0009       82 8.5166394e-15           44            1           37 8.3706692e-17 
    4920    2483.5983       82 8.5460712e-15           44            1           37 8.3664911e-17 
    4925    2489.9744       83 8.5756061e-15           44            1           38 8.3623152e-17 
    4930    2496.4828       83 8.6052444e-15           44            1           38 8.3581415e-17 
    4935     2502.879       83 8.6349864e-15           44            1           38 8.3539699e-17 
    4940    2509.4699       84 8.6648326e-15           44            1           39 8.3498004e-17 
    4945    2515.8789       84 8.6947833e-15           44            1           39 8.3456331e-17 
    4950     2522.561       84 8.7248389e-15           44            1           39 8.341468e-17 
    4955    2529.6543       84 8.7549997e-15           44            1           39 8.3373049e-17 
    4960    2536.7957       84 8.785266e-15           44            1           39 8.333144e-17 
    4965    2543.5484       84 8.8156384e-15           44            1           39 8.3289853e-17 
    4970    2550.5139       84 8.8461171e-15           44            1           39 8.3248287e-17 
    4975    2557.1781       86 8.8767025e-15           45            1           40 8.3206742e-17 
    4980    2564.0191       87 8.9073949e-15           46            1           40 8.3165219e-17 
    4985    2570.6471       87 8.9381948e-15           46            1           40 8.3123717e-17 
    4990     2577.292       87 8.9691026e-15           46            1           40 8.3082237e-17 
    4995    2584.1903       87 9.0001185e-15           46            1           40 8.3040778e-17 
    5000    2591.0033       87 9.0312431e-15           46            1           40 8.299934e-17 
Loop time of 2591 on 1 procs for 5000 steps with 87 atoms

Performance: 6002308.029 tau/day, 1.930 timesteps/s
99.7% CPU use with 1 MPI tasks x no OpenMP threads

MPI task timing breakdown:
Section |  min time  |  avg time  |  max time  |%varavg| %total
---------------------------------------------------------------
Pair    | 0.037145   | 0.037145   | 0.037145   |   0.0 |  0.00
Neigh   | 8.2852     | 8.2852     | 8.2852     |   0.0 |  0.32
Comm    | 0.055186   | 0.055186   | 0.055186   |   0.0 |  0.00
Output  | 0.031732   | 0.031732   | 0.031732   |   0.0 |  0.00
Modify  | 2582.6     | 2582.6     | 2582.6     |   0.0 | 99.67
Other   |            | 0.02198    |            |       |  0.00

Nlocal:    87 ave 87 max 87 min
Histogram: 1 0 0 0 0 0 0 0 0 0
Nghost:    0 ave 0 max 0 min
Histogram: 1 0 0 0 0 0 0 0 0 0
Neighs:    375 ave 375 max 375 min
Histogram: 1 0 0 0 0 0 0 0 0 0

Total # of neighbors = 375
Ave neighs/atom = 4.31034
Neighbor list builds = 5000
Dangerous builds = 0


Total wall time: 0:43:13
