Granular Flow Simulation 

   2 atoms 
   2 atom types 
   2 nutrients

   0.000000e-04   1.000000e-04  xlo xhi 
   0.000000e-04   1.000000e-04  ylo yhi 
   0.000000e-04   1.000000e-04  zlo zhi 

Atoms

   1 1 1.2839e-6 150 0.1e-05 4.9e-05 2.2e-05 1.2839e-6 het
   2 2 1.0283e-6 150 0.2e-05 4.9e-05 2.2e-05 1.0283e-6 aob

Nutrients

   1 nh4 l 8.00e-03 8.00e-02 8.00e-02 8.00e-02 8.00e-02 8.00e-02 8.00e-02
   2 co2 g 8.00e-03 8.00e-02 8.00e-02 8.00e-02 8.00e-02 8.00e-02 8.00e-02

Growth

   het 1
   aob 2

Ks

   het 1e-3
   aob 2e-3

Yield

   het 1
   aob 0.5

Diffusion Coeffs
   
   nh4  1.4e-9
   co2  2e-9

Catabolism Coeffs

   het -1 -0.3
   aob -1 -0.3

Anabolism Coeffs

   het -0.525 -0.2
   aob -0.525 -0.2
