ITEM: TIMESTEP
0
ITEM: NUMBER OF ATOMS
2
ITEM: BOX BOUNDS ff ff ff
0 0.0001
0 0.0001
0 0.0001
ITEM: ATOMS id type diameter x y z vx vy vz fx fy fz 
1 1 1.2839e-06 1e-06 4.9e-05 2.2e-05 0 0 0 -3.122e-05 0 0 
2 2 1.0283e-06 2e-06 4.9e-05 2.2e-05 0 0 0 3.122e-05 0 0 
