  Granular Flow Simulation 

       40 atoms 
       2 atom types 
       3 nutrients

   0.0   2.0e-04  xlo xhi 
   0.0   1.0e-05  ylo yhi 
   0.0   2.0e-04  zlo zhi 

 Atoms

     1 1 1.0e-6 150 0.5e-5 3e-6 1e-6 1.0e-6  
     2 1 1.0e-6 150 1.5e-5 3e-6 1e-6 1.0e-6  
     3 1 1.0e-6 150 2.5e-5 3e-6 1e-6 1.0e-6  
     4 1 1.0e-6 150 3.5e-5 3e-6 1e-6 1.0e-6  
     5 1 1.0e-6 150 4.5e-5 3e-6 1e-6 1.0e-6  
     6 1 1.0e-6 150 5.5e-5 3e-6 1e-6 1.0e-6  
     7 1 1.0e-6 150 6.5e-5 3e-6 1e-6 1.0e-6  
     8 1 1.0e-6 150 7.5e-5 3e-6 1e-6 1.0e-6  
     9 1 1.0e-6 150 8.5e-5 3e-6 1e-6 1.0e-6  
     10 2 1.0e-6 150 9.5e-5 3e-6 1e-6 1.0e-6  
     11 1 1.0e-6 150 10.5e-5 3e-6 1e-6 1.0e-6  
     12 1 1.0e-6 150 11.5e-5 3e-6 1e-6 1.0e-6  
     13 1 1.0e-6 150 12.5e-5 3e-6 1e-6 1.0e-6  
     14 1 1.0e-6 150 13.5e-5 3e-6 1e-6 1.0e-6  
     15 1 1.0e-6 150 14.5e-5 3e-6 1e-6 1.0e-6  
     16 1 1.0e-6 150 15.5e-5 3e-6 1e-6 1.0e-6  
     17 1 1.0e-6 150 16.5e-5 3e-6 1e-6 1.0e-6  
     18 1 1.0e-6 150 17.5e-5 3e-6 1e-6 1.0e-6  
     19 1 1.0e-6 150 18.5e-5 3e-6 1e-6 1.0e-6  
     20 1 1.0e-6 150 19.5e-5 3e-6 1e-6 1.0e-6  
     21 1 1.0e-6 150 0.5e-5 7e-6 1e-6 1.0e-6  
     22 1 1.0e-6 150 1.5e-5 7e-6 1e-6 1.0e-6  
     23 1 1.0e-6 150 2.5e-5 7e-6 1e-6 1.0e-6  
     24 1 1.0e-6 150 3.5e-5 7e-6 1e-6 1.0e-6  
     25 1 1.0e-6 150 4.5e-5 7e-6 1e-6 1.0e-6  
     26 1 1.0e-6 150 5.5e-5 7e-6 1e-6 1.0e-6  
     27 1 1.0e-6 150 6.5e-5 7e-6 1e-6 1.0e-6  
     28 1 1.0e-6 150 7.5e-5 7e-6 1e-6 1.0e-6  
     29 1 1.0e-6 150 8.5e-5 7e-6 1e-6 1.0e-6  
     30 2 1.0e-6 150 9.5e-5 7e-6 1e-6 1.0e-6  
     31 1 1.0e-6 150 10.5e-5 7e-6 1e-6 1.0e-6  
     32 1 1.0e-6 150 11.5e-5 7e-6 1e-6 1.0e-6  
     33 1 1.0e-6 150 12.5e-5 7e-6 1e-6 1.0e-6  
     34 1 1.0e-6 150 13.5e-5 7e-6 1e-6 1.0e-6  
     35 1 1.0e-6 150 14.5e-5 7e-6 1e-6 1.0e-6  
     36 1 1.0e-6 150 15.5e-5 7e-6 1e-6 1.0e-6  
     37 1 1.0e-6 150 16.5e-5 7e-6 1e-6 1.0e-6  
     38 1 1.0e-6 150 17.5e-5 7e-6 1e-6 1.0e-6  
     39 1 1.0e-6 150 18.5e-5 7e-6 1e-6 1.0e-6  
     40 1 1.0e-6 150 19.5e-5 7e-6 1e-6 1.0e-6  



 Nutrients

     1 o2 l 3.13e-5 3.13e-5 3.13e-5 3.13e-5 3.13e-5 3.13e-5 3.13e-5
     2 h2o l 1 1 1 1 1 1 1
     3 h l 0 0 0 0 0 0 0

 Type Name

     1 hetr
     2 hety

 Diffusion Coeffs
     
     o2 2e-9
     h2o 0
     h 0 

 Ks
     
     hety 9.38e-6 0 0
     hetr 1.88e-5 0 0

 Consumption Rate

     hety 0.000381111
     hetr 0.001524167

 Yield
    
     hety 0.0598373984
     hetr 0.0299186992

 Maintenance
 
     hety 0
     hetr 0

 Electron Donor
    
     hety 0
     hetr 0

 Decay

     hety 0
     hetr 0

 Catabolism Coeffs
         
     hety -1 1 0
     hetr -1 1 0

 Anabolism Coeffs
          
     hety 0 0 0
     hetr 0 0 0
 
 Decay Coeffs
           
     hety 0 0 0
     hetr 0 0 0
 
 Nutrient Energy

    o2 inf 16.4 inf inf inf 2
    h2o inf -237.18 -157.3 inf inf 2
    h inf 0 inf inf inf 2

 Type Energy

     hety inf -68 inf inf inf 2 
     hetr inf -67 inf inf inf 2

 Dissipation

     hety 0
     hetr 0


