  Granular Flow Simulation 

       0 atoms 
       5 atom types 
       5 nutrients

   0.000000e-04   1.000000e-04  xlo xhi 
   0.000000e-04   4.000000e-05  ylo yhi 
   0.000000e-04   1.000000e-04  zlo zhi 

 Atoms


 Type Name

     1 het
     2 aob
     3 nob
     4 eps
     5 dead

 Nutrients

     1 sub l 8e-3 8e-3 8e-3 8e-3 8e-3 8e-3 8e-3
     2 o2 l 1e-4 1e-4 1e-4 1e-4 1e-4 1e-4 1e-4
     3 no2 l 8e-4 8e-4 8e-4 8e-4 8e-4 8e-4 8e-4
     4 no3 l 8e-4 8e-4 8e-4 8e-4 8e-4 8e-4 8e-4
     5 nh4 l 9e-4 9e-4 9e-4 9e-4 9e-4 9e-4 9e-4

 Diffusion Coeffs
    
     sub 0.5e-9
     o2 2e-9
     no2 1.2e-9
     no3 1.2e-9
     nh4 1.4e-9

 Ks
     
     het 0.004 0.0002 0.0003 0.0003 0
     aob 0 0.0005 0 0 0.001
     nob 0 0.00068 0.0013 0 0
     eps 0 0 0 0 0
     dead 0 0 0 0 0

 Growth Rate

     het 0.00006944444 
     aob 0.0000088
     nob 0.000009375
     eps 0
     dead 0

 Yield
    
     het 0.61
     aob 0.33
     nob 0.083
     eps 0.18
     dead 0

 Maintenance
 
     het 0
     aob 0
     nob 0
     eps 0
     dead 0

 Decay

     het 0.00000462962
     aob 0.00000127314
     nob 0.00000127314
     eps 0.00000196759
     dead 0



