<?xml version="1.0"?>
<VTKFile type="UnstructuredGrid" version="0.1" byte_order="LittleEndian" header_type="UInt32" compressor="vtkZLibDataCompressor">
  <UnstructuredGrid>
    <Piece NumberOfPoints="41" NumberOfCells="41">
      <PointData>
        <DataArray type="Int32" Name="id" format="ascii" RangeMin="1" RangeMax="41">
          1 41 2 11 12 21
          22 31 32 3 4 5
          13 14 15 23 24 25
          33 34 35 6 7 16
          17 26 27 36 37 8
          9 10 18 19 20 28
          29 30 38 39 40
        </DataArray>
        <DataArray type="Int32" Name="type" format="ascii" RangeMin="1" RangeMax="2">
          1 2 1 1 1 1
          1 1 1 1 1 1
          1 1 1 1 1 1
          1 1 1 1 1 1
          1 1 1 1 1 1
          1 1 1 1 1 1
          1 1 1 1 1
        </DataArray>
        <DataArray type="Float64" Name="diameter" format="ascii" RangeMin="1e-08" RangeMax="1e-06">
          1e-06 1e-08 1e-06 1e-06 1e-06 1e-06
          1e-06 1e-06 1e-06 1e-06 1e-06 1e-06
          1e-06 1e-06 1e-06 1e-06 1e-06 1e-06
          1e-06 1e-06 1e-06 1e-06 1e-06 1e-06
          1e-06 1e-06 1e-06 1e-06 1e-06 1e-06
          1e-06 1e-06 1e-06 1e-06 1e-06 1e-06
          1e-06 1e-06 1e-06 1e-06 1e-06
        </DataArray>
      </PointData>
      <CellData>
      </CellData>
      <Points>
        <DataArray type="Float32" Name="Points" NumberOfComponents="3" format="ascii" RangeMin="7.1414282513e-06" RangeMax="0.00010124722538">
          4.9999998737e-06 4.9999998737e-06 9.9999999748e-07 6.0000002122e-06 4.9999998737e-06 9.9999999748e-07
          1.4999999621e-05 4.9999998737e-06 9.9999999748e-07 4.9999998737e-06 1.4999999621e-05 9.9999999748e-07
          1.4999999621e-05 1.4999999621e-05 9.9999999748e-07 4.9999998737e-06 2.4999999368e-05 9.9999999748e-07
          1.4999999621e-05 2.4999999368e-05 9.9999999748e-07 4.9999998737e-06 3.5000000935e-05 9.9999999748e-07
          1.4999999621e-05 3.5000000935e-05 9.9999999748e-07 2.4999999368e-05 4.9999998737e-06 9.9999999748e-07
          3.5000000935e-05 4.9999998737e-06 9.9999999748e-07 4.5000000682e-05 4.9999998737e-06 9.9999999748e-07
          2.4999999368e-05 1.4999999621e-05 9.9999999748e-07 3.5000000935e-05 1.4999999621e-05 9.9999999748e-07
          4.5000000682e-05 1.4999999621e-05 9.9999999748e-07 2.4999999368e-05 2.4999999368e-05 9.9999999748e-07
          3.5000000935e-05 2.4999999368e-05 9.9999999748e-07 4.5000000682e-05 2.4999999368e-05 9.9999999748e-07
          2.4999999368e-05 3.5000000935e-05 9.9999999748e-07 3.5000000935e-05 3.5000000935e-05 9.9999999748e-07
          4.5000000682e-05 3.5000000935e-05 9.9999999748e-07 5.500000043e-05 4.9999998737e-06 9.9999999748e-07
          6.5000000177e-05 4.9999998737e-06 9.9999999748e-07 5.500000043e-05 1.4999999621e-05 9.9999999748e-07
          6.5000000177e-05 1.4999999621e-05 9.9999999748e-07 5.500000043e-05 2.4999999368e-05 9.9999999748e-07
          6.5000000177e-05 2.4999999368e-05 9.9999999748e-07 5.500000043e-05 3.5000000935e-05 9.9999999748e-07
          6.5000000177e-05 3.5000000935e-05 9.9999999748e-07 7.5000003562e-05 4.9999998737e-06 9.9999999748e-07
          8.4999999672e-05 4.9999998737e-06 9.9999999748e-07 9.5000003057e-05 4.9999998737e-06 9.9999999748e-07
          7.5000003562e-05 1.4999999621e-05 9.9999999748e-07 8.4999999672e-05 1.4999999621e-05 9.9999999748e-07
          9.5000003057e-05 1.4999999621e-05 9.9999999748e-07 7.5000003562e-05 2.4999999368e-05 9.9999999748e-07
          8.4999999672e-05 2.4999999368e-05 9.9999999748e-07 9.5000003057e-05 2.4999999368e-05 9.9999999748e-07
          7.5000003562e-05 3.5000000935e-05 9.9999999748e-07 8.4999999672e-05 3.5000000935e-05 9.9999999748e-07
          9.5000003057e-05 3.5000000935e-05 9.9999999748e-07
        </DataArray>
      </Points>
      <Cells>
        <DataArray type="Int64" Name="connectivity" format="ascii" RangeMin="0" RangeMax="40">
          0 1 2 3 4 5
          6 7 8 9 10 11
          12 13 14 15 16 17
          18 19 20 21 22 23
          24 25 26 27 28 29
          30 31 32 33 34 35
          36 37 38 39 40
        </DataArray>
        <DataArray type="Int64" Name="offsets" format="ascii" RangeMin="1" RangeMax="41">
          1 2 3 4 5 6
          7 8 9 10 11 12
          13 14 15 16 17 18
          19 20 21 22 23 24
          25 26 27 28 29 30
          31 32 33 34 35 36
          37 38 39 40 41
        </DataArray>
        <DataArray type="UInt8" Name="types" format="ascii" RangeMin="1" RangeMax="1">
          1 1 1 1 1 1
          1 1 1 1 1 1
          1 1 1 1 1 1
          1 1 1 1 1 1
          1 1 1 1 1 1
          1 1 1 1 1 1
          1 1 1 1 1
        </DataArray>
      </Cells>
    </Piece>
  </UnstructuredGrid>
</VTKFile>
