LAMMPS (5 Nov 2016)
# NUFEB simulation

atom_style	bio
atom_modify	map array sort 100 5.0e-7
boundary	pp pp ff
newton		off
processors  * * 1

comm_modify	vel yes
read_data_bio atom.in
  orthogonal box = (0 0 0) to (0.0001 4e-05 8e-05)
  4 by 1 by 1 MPI processor grid
  reading atoms ...
  41 atoms
  5 nutrients

group HET type 1
40 atoms in group HET
group EPS type 2
1 atoms in group EPS

neighbor	5e-7 bin
neigh_modify	delay 0 one 5000

##############Define DEM Variables&Commands##############

pair_style  gran/hooke/history 1.e-4 NULL 1.e-5 NULL 0.0 1
pair_coeff  * *

timestep 10

fix 1 all nve/limit 1e-8
fix fv all viscous 1e-5

fix zw all wall/gran hooke/history 2000 NULL 500.0 NULL 1.5 0 zplane  0.0  1e-04

variable kanc equal 50

fix zwa all walladh v_kanc zplane  0.0  1e-04

variable ke equal 5e+10
#fix j1 all epsadh 1 v_ke 1

##############Define IBm Variables##############

#variables used in fix eps_extract
variable EPSdens equal 30
variable EPSratio equal 1.3

#variables used in fix division
variable divDia equal 1.36e-6

#variables used in fix kinetics
variable diffT equal 1e-4
variable tol equal 1e-6
variable etaHET equal 0.6
variable layer equal -1

#variables used in fix death
variable deadDia equal 9e-7


##############Define IBm Commands##############

fix k1 all kinetics 100 30 12 24 v_diffT v_layer niter 4000
fix kgm all kinetics/growth/monod v_EPSdens v_etaHET
fix g1 all kinetics/diffusion v_tol pp pp nd kg dcflag 2
fix d1 all divide 100 v_EPSdens v_divDia 64564
fix e1 HET eps_extract 100 v_EPSratio v_EPSdens 53453

##############Define IBm Computes##############

compute myNtypes all ntypes
compute myBiomass all biomass
compute myVol all nufeb/volume
compute myPres all bio/pressure NULL pair vol v_vol

##############Simulation Output##############

#dump		id all custom 1000 output.lammmps id type diameter x y z
dump		du1 all custom/vtk 80000 atom_*.vtu id type diameter x y z
#dump		du2 all grid 7000 grid_%_*.vti con
dump du3 all bio/sstl 80000 biomass ntypes con vof
thermo_style    custom step cpu atoms c_myNtypes[2] c_myNtypes[3] c_myBiomass[*]
thermo		100
thermo_modify	lost ignore


run 80000
Neighbor list info ...
  2 neighbor list requests
  update every 1 steps, delay 0 steps, check yes
  max neighbors/atom: 5000, page size: 100000
  master list distance cutoff = 1.5e-06
  ghost atom cutoff = 1.5e-06
  binsize = 7.5e-07 -> bins = 134 54 107
Memory usage per processor = 3.67425 Mbytes
Step CPU Atoms c_myNtypes[2] c_myNtypes[3] c_myBiomass[1] c_myBiomass[2] c_myBiomass[3] 
       0            0       41           40            1 3.1415927e-15 3.1415927e-15 7.8539816e-23 
number of iterations: 4000 
     100    1.9092579       41           40            1 3.7814338e-15 3.7814337e-15 7.8539816e-23 
number of iterations: 4000 
     200    3.8218081       41           40            1 4.5430789e-15 4.5430788e-15 7.8539816e-23 
number of iterations: 4000 
     300     5.736645       41           40            1  5.44713e-15 5.4471299e-15 7.8539816e-23 
number of iterations: 4000 
     400    7.6665089       41           40            1 6.5160614e-15 6.5160613e-15 7.8539816e-23 
number of iterations: 4000 
     500     9.612612       41           40            1 7.7737323e-15 7.7737322e-15 7.8539816e-23 
number of iterations: 4000 
     600      11.5947       41           40            1 9.2442665e-15 9.2442664e-15 7.8539816e-23 
number of iterations: 4000 
     700    13.541166       81           80            1 1.0950165e-14 1.0950165e-14 7.8539816e-23 
number of iterations: 4000 
     800      15.4605      161           80           81 1.4356152e-14 1.2909465e-14 1.4466875e-15 
number of iterations: 4000 
     900    17.389145      161           80           81 1.6578615e-14 1.5131927e-14 1.4466875e-15 
number of iterations: 4000 
    1000    19.329749      183          102           81 1.9061385e-14 1.7614698e-14 1.4466875e-15 
number of iterations: 4000 
    1100    21.323504      229          148           81 2.1785482e-14 2.0338794e-14 1.4466875e-15 
number of iterations: 4000 
    1200    23.275073      241          160           81 2.471544e-14 2.3268752e-14 1.4466875e-15 
number of iterations: 4000 
    1300    25.229755      277          160          117 2.8505547e-14 2.6357545e-14 2.1480019e-15 
number of iterations: 4000 
    1400    27.193619      429          176          253 3.4234171e-14 2.9556441e-14  4.67773e-15 
number of iterations: 4000 
    1500    29.174841      467          214          253 3.7517534e-14 3.2839804e-14  4.67773e-15 
number of iterations: 4000 
    1600    31.130598      501          248          253 4.0841496e-14 3.6163766e-14  4.67773e-15 
number of iterations: 4000 
    1700     33.08464      535          282          253 4.4199035e-14 3.9521305e-14  4.67773e-15 
number of iterations: 4000 
    1800     35.03178      563          310          253 4.7588073e-14 4.2910343e-14  4.67773e-15 
number of iterations: 4000 
    1900    36.989275      575          322          253 5.0988093e-14 4.6310363e-14  4.67773e-15 
number of iterations: 4000 
    2000    38.958203      587          334          253 5.4426874e-14 4.9749144e-14  4.67773e-15 
number of iterations: 4000 
    2100    40.915422      611          348          263 5.8046381e-14 5.3209939e-14 4.8364421e-15 
number of iterations: 4000 
    2200    42.874581      655          376          279 6.1869387e-14 5.6702795e-14 5.1665921e-15 
number of iterations: 4000 
    2300    44.841431      689          400          289 6.556543e-14 6.020773e-14   5.3577e-15 
number of iterations: 4000 
    2400     46.79839      815          440          375 7.0493278e-14 6.3732801e-14 6.7604775e-15 
number of iterations: 4000 
    2500     48.77388      941          472          469 7.5564037e-14 6.7274798e-14 8.2892389e-15 
number of iterations: 4000 
    2600    50.750776     1051          494          557 8.0563442e-14 7.0853566e-14 9.7098762e-15 
number of iterations: 4000 
    2700    52.717999     1149          538          611 8.5101446e-14 7.4477336e-14 1.062411e-14 
number of iterations: 4000 
    2800    54.690465     1263          568          695 9.0045576e-14 7.8134512e-14 1.1911064e-14 
number of iterations: 4000 
    2900    56.655893     1329          590          739 9.4407537e-14 8.1801738e-14 1.2605798e-14 
number of iterations: 4000 
    3000    58.628868     1343          604          739 9.808917e-14 8.5483372e-14 1.2605798e-14 
number of iterations: 4000 
    3100    60.608617     1367          628          739 1.0177741e-13 8.9171608e-14 1.2605798e-14 
number of iterations: 4000 
    3200    62.572398     1397          658          739 1.0547854e-13 9.2872745e-14 1.2605798e-14 
number of iterations: 4000 
    3300    64.540036     1422          683          739 1.0919239e-13 9.6586595e-14 1.2605798e-14 
number of iterations: 4000 
    3400    66.516569     1439          700          739 1.1291986e-13 1.0031406e-13 1.2605798e-14 
number of iterations: 4000 
    3500    68.494251     1484          737          747 1.1677259e-13 1.0405479e-13 1.2717805e-14 
number of iterations: 4000 
    3600    70.534462     1517          766          751 1.2060583e-13 1.0780955e-13 1.2796282e-14 
number of iterations: 4000 
    3700    72.530434     1549          794          755 1.2443595e-13 1.1157616e-13 1.2859788e-14 
number of iterations: 4000 
    3800    74.607281     1586          813          773 1.2851173e-13 1.1535392e-13 1.3157803e-14 
number of iterations: 4000 
    3900    76.582249     1603          823          780 1.324125e-13 1.1914177e-13 1.3270724e-14 
number of iterations: 4000 
    4000    78.563009     1644          847          797 1.3648774e-13 1.2293989e-13 1.3547842e-14 
number of iterations: 4000 
    4100    80.624861     1691          882          809 1.4050908e-13 1.2674375e-13 1.3765327e-14 
number of iterations: 4000 
    4200    82.587619     1737          918          819 1.445102e-13 1.3055648e-13 1.3953718e-14 
number of iterations: 4000 
    4300    84.564424     1779          945          834 1.4856671e-13 1.3437981e-13  1.41869e-14 
number of iterations: 4000 
    4400    86.654666     1851          989          862 1.5282628e-13 1.3821184e-13 1.4614438e-14 
number of iterations: 3875 
    4500    88.589616     1920         1026          894 1.5717954e-13 1.420517e-13 1.5127838e-14 
number of iterations: 3633 
    4600    90.467788     1971         1054          917 1.6139165e-13 1.4589896e-13 1.5492685e-14 
number of iterations: 3299 
    4700    92.112145     2018         1076          942 1.6560436e-13 1.4975269e-13 1.5851676e-14 
number of iterations: 3232 
    4800    93.706008     2078         1104          974 1.6996752e-13 1.536123e-13 1.6355221e-14 
number of iterations: 3577 
    4900    95.548083     2143         1134         1009 1.7445709e-13 1.5748037e-13 1.6976724e-14 
number of iterations: 3395 
    5000    97.319011     2204         1164         1040 1.7882901e-13 1.6135517e-13 1.7473841e-14 
number of iterations: 3310 
    5100    99.041761     2265         1196         1069 1.8323703e-13 1.6523664e-13 1.8000392e-14 
number of iterations: 3266 
    5200    100.83365     2324         1217         1107 1.8777107e-13 1.6912489e-13 1.864618e-14 
number of iterations: 3094 
    5300    102.49152     2394         1247         1147 1.9238458e-13 1.7301898e-13 1.9365596e-14 
number of iterations: 3266 
    5400    104.18246     2463         1288         1175 1.9672256e-13 1.7692006e-13  1.98025e-14 
number of iterations: 2699 
    5500    105.65097     2513         1317         1196 2.0092467e-13 1.8082458e-13 2.0100089e-14 
number of iterations: 2755 
    5600    107.86697     2567         1351         1216 2.0517394e-13 1.8473436e-13 2.0439584e-14 
number of iterations: 2772 
    5700     109.9161     2623         1383         1240 2.095104e-13 1.8864919e-13 2.0861213e-14 
number of iterations: 2497 
    5800    111.69921     2696         1419         1277 2.1397793e-13 1.9256755e-13 2.1410384e-14 
number of iterations: 2635 
    5900    113.46645     2748         1446         1302 2.1829556e-13 1.964909e-13 2.1804653e-14 
number of iterations: 2674 
    6000    115.26897     2804         1473         1331 2.2268662e-13 2.0041946e-13 2.2267156e-14 
number of iterations: 2467 
    6100    117.05615     2870         1500         1370 2.2724584e-13 2.0435111e-13 2.2894733e-14 
number of iterations: 2398 
    6200    118.82562     2951         1522         1429 2.3205771e-13 2.0828699e-13 2.3770725e-14 
number of iterations: 2556 
    6300    120.42083     3020         1548         1472 2.3663915e-13 2.1222775e-13 2.4411406e-14 
number of iterations: 2607 
    6400    121.74415     3089         1569         1520 2.4135358e-13 2.1617295e-13 2.5180635e-14 
number of iterations: 2631 
    6500    123.08299     3142         1593         1549 2.4578774e-13 2.2012288e-13 2.5664856e-14 
number of iterations: 2282 
    6600    124.21867     3200         1619         1581 2.5025138e-13 2.2407544e-13 2.6175937e-14 
number of iterations: 2216 
    6700    125.49439     3248         1641         1607 2.5464659e-13 2.2803142e-13 2.6615171e-14 
number of iterations: 2124 
    6800    126.60267     3312         1673         1639 2.5911586e-13 2.3199036e-13 2.7125504e-14 
number of iterations: 2026 
    6900    127.62987     3380         1696         1684 2.6378923e-13 2.359517e-13 2.7837525e-14 
number of iterations: 2016 
    7000    128.68715     3435         1719         1716 2.682463e-13 2.3991586e-13 2.8330436e-14 
number of iterations: 1797 
    7100    129.65128     3489         1749         1740 2.7261955e-13 2.4388255e-13 2.8736998e-14 
number of iterations: 2129 
    7200    130.90027     3550         1783         1767 2.770244e-13 2.4785243e-13 2.9171973e-14 
number of iterations: 1914 
    7300    131.95006     3622         1819         1803 2.8158773e-13 2.5182488e-13 2.976285e-14 
number of iterations: 2399 
    7400    133.19444     3690         1847         1843 2.8620645e-13 2.5580182e-13 3.040463e-14 
number of iterations: 2036 
    7500    134.34888     3743         1873         1870 2.9061903e-13 2.5978157e-13 3.083746e-14 
number of iterations: 2138 
    7600    135.49099     3800         1901         1899 2.9512801e-13 2.6376438e-13 3.136363e-14 
number of iterations: 2154 
    7700    136.58816     3854         1942         1912 2.9933879e-13 2.6775056e-13 3.1588232e-14 
number of iterations: 1821 
    7800    137.51603     3912         1981         1931 3.036352e-13 2.7173892e-13 3.1896278e-14 
number of iterations: 1981 
    7900    138.58508     3960         2004         1956 3.0803378e-13 2.7573056e-13 3.2303223e-14 
number of iterations: 2072 
    8000    139.74712     4015         2045         1970 3.1225532e-13 2.7972559e-13 3.2529726e-14 
number of iterations: 1658 
    8100    140.66404     4059         2074         1985 3.1650027e-13 2.8372225e-13 3.2778025e-14 
number of iterations: 1786 
    8200    141.69772     4121         2102         2019 3.2105556e-13 2.8772147e-13 3.3334084e-14 
number of iterations: 1803 
    8300    142.72282     4173         2131         2042 3.2540613e-13 2.9172236e-13 3.3683766e-14 
number of iterations: 1648 
    8400    143.65439     4235         2156         2079 3.3000255e-13 2.9572559e-13 3.4276962e-14 
number of iterations: 1860 
    8500    144.61855     4291         2182         2109 3.345012e-13 2.9973229e-13 3.4768905e-14 
number of iterations: 1724 
    8600    145.51838     4341         2206         2135 3.3893637e-13 3.0374122e-13 3.5195149e-14 
number of iterations: 1900 
    8700    146.48687     4392         2235         2157 3.432839e-13 3.0775279e-13 3.5531109e-14 
number of iterations: 1749 
    8800    147.38152     4432         2264         2168 3.474801e-13 3.1176641e-13 3.571369e-14 
number of iterations: 1506 
    8900    148.15535     4495         2302         2193 3.5192948e-13 3.1578156e-13 3.6147918e-14 
number of iterations: 1533 
    9000    148.93892     4544         2329         2215 3.5630884e-13 3.1979842e-13 3.6510419e-14 
number of iterations: 1591 
    9100    149.77974     4604         2368         2236 3.6065564e-13 3.2381758e-13 3.6838054e-14 
number of iterations: 1662 
    9200    150.63528     4669         2400         2269  3.65215e-13 3.2783939e-13 3.7375618e-14 
number of iterations: 1853 
    9300    151.58282     4722         2434         2288 3.6955697e-13 3.3186394e-13 3.7693028e-14 
number of iterations: 1561 
    9400    152.39105     4768         2464         2304 3.7385814e-13 3.3588968e-13 3.7968458e-14 
number of iterations: 1526 
    9500    153.17143     4815         2486         2329 3.7828378e-13 3.3991762e-13 3.836616e-14 
number of iterations: 1581 
    9600    153.97516     4871         2514         2357 3.8277062e-13 3.4394783e-13 3.8822793e-14 
number of iterations: 1593 
    9700    154.79866     4929         2546         2383 3.8721096e-13 3.4797947e-13 3.9231491e-14 
number of iterations: 1366 
    9800    155.50471     4991         2570         2421 3.9184252e-13 3.5201252e-13 3.9829997e-14 
number of iterations: 1552 
    9900    156.30174     5043         2595         2448 3.9630536e-13 3.5604786e-13 4.0257495e-14 
number of iterations: 1473 
   10000    157.05522     5090         2627         2463 4.0058625e-13 3.6008446e-13 4.0501787e-14 
number of iterations: 1380 
   10100    157.77317     5141         2650         2491 4.0508544e-13 3.641225e-13 4.0962947e-14 
number of iterations: 1297 
   10200    158.44081     5195         2677         2518 4.0955336e-13 3.6816197e-13 4.1391387e-14 
number of iterations: 1413 
   10300    159.18594     5234         2697         2537 4.1394949e-13 3.7220342e-13 4.1746076e-14 
number of iterations: 1272 
   10400    159.86157     5292         2726         2566 4.1852236e-13 3.7624609e-13 4.2276276e-14 
number of iterations: 1461 
   10500    160.61453     5344         2755         2589 4.2291179e-13 3.8029073e-13 4.2621052e-14 
number of iterations: 1450 
   10600    161.35705     5395         2791         2604 4.2721266e-13 3.8433677e-13 4.2875886e-14 
number of iterations: 1365 
   10700    162.05971     5446         2820         2626 4.3166163e-13 3.8838384e-13 4.3277783e-14 
number of iterations: 1629 
   10800    162.90427     5486         2846         2640 4.3594008e-13 3.9243448e-13 4.3505604e-14 
number of iterations: 1197 
   10900    163.52775     5549         2876         2673 4.4055073e-13 3.9648537e-13 4.406536e-14 
number of iterations: 1420 
   11000     164.2596     5605         2909         2696 4.4499792e-13 4.0053788e-13 4.4460038e-14 
number of iterations: 1509 
   11100    165.04456     5679         2940         2739 4.4977655e-13 4.0459266e-13 4.5183887e-14 
number of iterations: 1503 
   11200    165.81902     5740         2977         2763 4.5424333e-13 4.0864991e-13 4.5593413e-14 
number of iterations: 1482 
   11300     166.5756     5798         3014         2784 4.5859636e-13 4.1270855e-13 4.5887812e-14 
number of iterations: 1134 
   11400     167.1803     5872         3051         2821 4.6322989e-13 4.1676774e-13 4.6462144e-14 
number of iterations: 1425 
   11500    167.92176     5933         3082         2851 4.6780418e-13 4.208288e-13 4.6975375e-14 
number of iterations: 1259 
   11600    168.57349     5991         3109         2882 4.723836e-13 4.2489132e-13 4.7492278e-14 
number of iterations: 1340 
   11700    169.26743     6080         3151         2929 4.7723419e-13 4.2895568e-13 4.8278515e-14 
number of iterations: 1145 
   11800    169.87495     6144         3179         2965 4.8187606e-13 4.3302108e-13 4.8854984e-14 
number of iterations: 1796 
   11900    170.78537     6198         3204         2994 4.864329e-13 4.3708946e-13 4.9343438e-14 
number of iterations: 1276 
   12000    171.46258     6256         3230         3026 4.9102846e-13 4.4115881e-13 4.986965e-14 
number of iterations: 1300 
   12100    172.13959     6311         3266         3045 4.9543301e-13 4.4522988e-13 5.0203131e-14 
number of iterations: 1321 
   12200    172.82351     6374         3303         3071 4.9992638e-13 4.4930183e-13 5.0624548e-14 
number of iterations: 1086 
   12300     173.3885     6445         3333         3112 5.0466388e-13 4.5337447e-13 5.1289406e-14 
number of iterations: 1380 
   12400    174.09859     6503         3362         3141 5.092229e-13 4.5744894e-13 5.177396e-14 
number of iterations: 1387 
   12500    174.81248     6564         3392         3172 5.1376761e-13 4.615252e-13 5.2242414e-14 
number of iterations: 967 
   12600    175.34023     6629         3430         3199 5.1825375e-13 4.6560148e-13 5.2652269e-14 
number of iterations: 1352 
   12700    176.04581     6688         3452         3236 5.2290067e-13 4.6967989e-13 5.3220781e-14 
number of iterations: 1103 
   12800    176.63055     6760         3484         3276 5.2767229e-13 4.7375911e-13 5.3913183e-14 
number of iterations: 1429 
   12900     177.3693     6809         3504         3305 5.3221503e-13 4.7784003e-13 5.4375003e-14 
number of iterations: 975 
   13000    177.89116     6891         3540         3351 5.3704892e-13 4.8192146e-13 5.5127455e-14 
number of iterations: 1385 
   13100    178.60873     6946         3569         3377 5.4151395e-13 4.8600563e-13 5.5508321e-14 
number of iterations: 1098 
   13200    179.19314     6996         3593         3403 5.4599181e-13 4.9009016e-13 5.5901648e-14 
number of iterations: 1163 
   13300    179.82718     7044         3620         3424 5.5042906e-13 4.9417617e-13 5.6252887e-14 
number of iterations: 1269 
   13400    180.49374     7113         3649         3464 5.5515313e-13 4.9826319e-13 5.6889935e-14 
number of iterations: 1515 
   13500    181.27949     7177         3678         3499 5.5986322e-13 5.0235311e-13 5.7510111e-14 
number of iterations: 1515 
   13600    182.06192     7238         3705         3533 5.6447781e-13 5.0644509e-13 5.8032719e-14 
number of iterations: 1444 
   13700    182.81155     7308         3739         3569 5.6913756e-13 5.1053845e-13 5.8599116e-14 
number of iterations: 1440 
   13800    183.57897     7370         3764         3606 5.7389714e-13 5.1463398e-13 5.9263168e-14 
number of iterations: 1293 
   13900    184.26433     7418         3789         3629 5.7836838e-13   5.1873e-13 5.9638381e-14 
number of iterations: 1087 
   14000    184.84475     7480         3819         3661 5.8298163e-13 5.2282656e-13 6.015507e-14 
number of iterations: 1349 
   14100    185.54624     7542         3853         3689 5.8752892e-13 5.269254e-13 6.0603527e-14 
number of iterations: 1311 
   14200    186.23012     7601         3877         3724 5.9220707e-13 5.3102514e-13 6.1181935e-14 
number of iterations: 1055 
   14300    186.79138     7654         3901         3753 5.9678588e-13 5.3512603e-13 6.1659851e-14 
number of iterations: 1444 
   14400    187.55534     7718         3932         3786 6.0142988e-13 5.3922922e-13 6.2200651e-14 
number of iterations: 1349 
   14500     188.2693     7765         3958         3807 6.0588163e-13 5.4333367e-13 6.2547962e-14 
number of iterations: 817 
   14600    188.71643     7822         3988         3834 6.1040445e-13 5.4743772e-13 6.2966727e-14 
number of iterations: 1374 
   14700     189.4725     7872         4016         3856 6.1486407e-13 5.5154473e-13 6.3319347e-14 
number of iterations: 1137 
   14800     190.1686     7936         4053         3883 6.1939018e-13 5.5565282e-13 6.373736e-14 
number of iterations: 827 
   14900     190.6254     8005         4086         3919 6.2412601e-13 5.5976054e-13 6.4365467e-14 
number of iterations: 1388 
   15000    191.42023     8067         4117         3950 6.2872658e-13 5.6387116e-13 6.4855417e-14 
number of iterations: 1504 
   15100    192.23279     8137         4155         3982 6.3339384e-13 5.6798379e-13 6.5410048e-14 
number of iterations: 1379 
   15200    193.00491     8183         4178         4005 6.3789287e-13 5.7209742e-13 6.5795451e-14 
number of iterations: 1419 
   15300    193.75553     8225         4203         4022 6.4227135e-13 5.7621339e-13 6.6057962e-14 
number of iterations: 1136 
   15400    194.35944     8298         4242         4056 6.4699534e-13 5.8033047e-13 6.6664876e-14 
number of iterations: 1121 
   15500    194.97182     8376         4277         4099 6.5178835e-13 5.844474e-13 6.734095e-14 
number of iterations: 1225 
   15600    195.65784     8435         4308         4127 6.5634898e-13 5.8856597e-13 6.7783006e-14 
number of iterations: 1617 
   15700    196.52617     8490         4338         4152 6.6087499e-13 5.9268799e-13 6.8187001e-14 
number of iterations: 1363 
   15800    197.26228     8552         4373         4179 6.6542814e-13 5.9681117e-13 6.8616971e-14 
number of iterations: 981 
   15900    197.79986     8605         4399         4206 6.6998684e-13 6.0093504e-13 6.9051801e-14 
number of iterations: 1160 
   16000    198.43555     8660         4432         4228 6.7443922e-13 6.0505955e-13 6.9379666e-14 
number of iterations: 1281 
   16100    199.12265     8716         4463         4253 6.7898222e-13 6.0918644e-13 6.9795787e-14 
number of iterations: 1336 
   16200     199.9022     8776         4488         4288 6.8368084e-13 6.1331487e-13 7.036597e-14 
number of iterations: 1326 
   16300    200.60408     8822         4520         4302 6.8804962e-13 6.174449e-13 7.0604716e-14 
number of iterations: 1486 
   16400    201.38214     8877         4547         4330 6.926144e-13 6.215771e-13  7.10373e-14 
number of iterations: 1400 
   16500    202.11692     8928         4579         4349 6.9705633e-13 6.2571047e-13 7.1345861e-14 
number of iterations: 1112 
   16600    202.70908     8992         4611         4381 7.0171329e-13 6.2984415e-13 7.1869139e-14 
number of iterations: 1228 
   16700    203.36378     9046         4637         4409 7.0633348e-13 6.3397874e-13 7.2354738e-14 
number of iterations: 1056 
   16800    203.92818     9104         4668         4436 7.1091514e-13 6.3811523e-13 7.2799916e-14 
number of iterations: 813 
   16900    204.37027     9170         4710         4460 7.1539354e-13 6.4225136e-13 7.3142181e-14 
number of iterations: 1212 
   17000    205.01444     9211         4731         4480 7.1989318e-13 6.4638915e-13 7.3504029e-14 
number of iterations: 1157 
   17100    205.63171     9261         4765         4496 7.2428546e-13 6.5052887e-13 7.3756586e-14 
number of iterations: 1188 
   17200    206.26871     9322         4806         4516 7.2874787e-13 6.5466984e-13 7.4078025e-14 
number of iterations: 1283 
   17300    206.96086     9373         4836         4537 7.3322756e-13 6.5881247e-13 7.4415091e-14 
number of iterations: 1180 
   17400    207.59908     9429         4868         4561 7.3779481e-13 6.6295643e-13 7.4838374e-14 
number of iterations: 1041 
   17500     208.1678     9480         4904         4576 7.4219535e-13 6.6710014e-13 7.5095212e-14 
number of iterations: 1193 
   17600    208.81208     9532         4931         4601 7.4675223e-13 6.7124608e-13 7.5506156e-14 
number of iterations: 1114 
   17700    209.41042     9593         4963         4630 7.5135974e-13 6.7539336e-13 7.5966374e-14 
number of iterations: 1033 
   17800    209.98032     9648         4999         4649 7.5582086e-13 6.7954169e-13 7.6279172e-14 
number of iterations: 1090 
   17900    210.57035     9698         5023         4675 7.6039968e-13 6.8369066e-13 7.6709025e-14 
number of iterations: 1052 
   18000    211.13621     9753         5051         4702 7.650065e-13 6.8784021e-13 7.7166293e-14 
number of iterations: 1125 
   18100    211.74501     9805         5079         4726 7.6957885e-13 6.919914e-13 7.758745e-14 
number of iterations: 1023 
   18200    212.30113     9867         5109         4758 7.7422066e-13 6.9614356e-13 7.8077103e-14 
number of iterations: 1113 
   18300    212.90235     9925         5139         4786 7.7883034e-13 7.0029667e-13 7.8533665e-14 
number of iterations: 1059 
   18400    213.47895     9976         5173         4803 7.8324506e-13 7.0445023e-13 7.8794837e-14 
number of iterations: 760 
   18500    213.90713    10051         5213         4838 7.8795304e-13 7.0860319e-13 7.9349843e-14 
number of iterations: 1610 
   18600    214.75513    10110         5242         4868 7.9258013e-13 7.1276139e-13 7.9818744e-14 
number of iterations: 1367 
   18700    215.48804    10172         5280         4892 7.9711054e-13 7.1692114e-13 8.0189398e-14 
number of iterations: 1155 
   18800    216.10694    10233         5311         4922 8.0181354e-13 7.2108213e-13 8.0731415e-14 
number of iterations: 1253 
   18900    216.77717    10297         5342         4955 8.0653727e-13 7.2524356e-13 8.1293712e-14 
number of iterations: 1166 
   19000    217.40822    10365         5372         4993 8.1128426e-13 7.2940661e-13 8.1877645e-14 
number of iterations: 1200 
   19100    218.06542    10401         5395         5006 8.1565348e-13 7.3357167e-13 8.2081811e-14 
number of iterations: 1251 
   19200    218.78641    10448         5430         5018 8.2000777e-13 7.3773771e-13 8.2270056e-14 
number of iterations: 1327 
   19300    219.78148    10490         5451         5039 8.2451679e-13 7.4190595e-13 8.2610841e-14 
number of iterations: 1157 
   19400    220.57145    10546         5480         5066 8.2910889e-13 7.4607518e-13 8.3033706e-14 
number of iterations: 1240 
   19500    221.23765    10612         5510         5102 8.3381639e-13 7.5024632e-13 8.3570076e-14 
number of iterations: 1492 
   19600    222.03513    10676         5535         5141 8.3859607e-13 7.5441907e-13 8.4176997e-14 
number of iterations: 1397 
   19700     222.7808    10716         5558         5158 8.4302545e-13 7.5859405e-13 8.4431397e-14 
number of iterations: 1310 
   19800    223.48456    10789         5603         5186 8.476625e-13 7.6277042e-13 8.489208e-14 
number of iterations: 1257 
   19900    224.16016    10848         5639         5209 8.5223834e-13 7.6694858e-13 8.5289756e-14 
number of iterations: 1360 
   20000    224.89033    10918         5681         5237 8.5684712e-13 7.7112875e-13 8.5718365e-14 
number of iterations: 1314 
   20100    225.59337    10970         5713         5257 8.613611e-13 7.753104e-13 8.6050699e-14 
number of iterations: 1312 
   20200    226.29607    11023         5741         5282 8.6593299e-13 7.7949274e-13 8.6440251e-14 
number of iterations: 1326 
   20300    227.00666    11076         5770         5306 8.7052996e-13 7.8367714e-13 8.6852826e-14 
number of iterations: 1293 
   20400    227.70278    11136         5804         5332 8.7512276e-13 7.8786327e-13 8.7259491e-14 
number of iterations: 1173 
   20500     228.3442    11216         5841         5375 8.7999871e-13 7.920506e-13 8.7948109e-14 
number of iterations: 997 
   20600    228.89619    11271         5873         5398 8.8458423e-13 7.9623862e-13 8.8345611e-14 
number of iterations: 1237 
   20700    229.59122    11326         5909         5417 8.8908732e-13 8.0042802e-13 8.8659302e-14 
number of iterations: 1394 
   20800    230.34912    11389         5942         5447 8.9381923e-13 8.0461966e-13 8.919957e-14 
number of iterations: 1075 
   20900    230.93789    11453         5982         5471 8.983993e-13 8.0881246e-13 8.9586839e-14 
number of iterations: 1499 
   21000    231.74777    11510         6009         5501 9.0303838e-13 8.130076e-13 9.0030784e-14 
number of iterations: 1246 
   21100    232.42805    11573         6040         5533 9.0771556e-13 8.1720393e-13 9.0511625e-14 
number of iterations: 1109 
   21200    233.03286    11637         6075         5562 9.1235259e-13 8.2140128e-13 9.0951307e-14 
number of iterations: 1146 
   21300    233.65973    11694         6107         5587 9.1697494e-13 8.2560006e-13 9.1374881e-14 
number of iterations: 1273 
   21400    234.35088    11748         6139         5609 9.2154812e-13 8.2979999e-13 9.1748139e-14 
number of iterations: 1380 
   21500    235.09642    11821         6173         5648 9.2641045e-13 8.3400193e-13 9.2408521e-14 
number of iterations: 1148 
   21600    235.73201    11874         6199         5675 9.3102385e-13 8.3820456e-13 9.2819288e-14 
number of iterations: 1045 
   21700    236.35501    11931         6234         5697 9.3557389e-13 8.4240767e-13 9.3166223e-14 
number of iterations: 1151 
   21800          237    11984         6260         5724 9.4019401e-13 8.4661236e-13 9.3581648e-14 
number of iterations: 1005 
   21900    237.56279    12042         6284         5758 9.4492714e-13 8.5081795e-13 9.4109192e-14 
number of iterations: 1285 
   22000    238.30519    12097         6308         5789 9.4966465e-13 8.5502524e-13 9.4639411e-14 
number of iterations: 1192 
   22100    238.95944    12162         6338         5824 9.5444655e-13 8.5923374e-13 9.5212818e-14 
number of iterations: 1225 
   22200    239.64207    12222         6371         5851 9.5910308e-13 8.6344348e-13 9.5659602e-14 
number of iterations: 1224 
   22300    240.36138    12273         6399         5874 9.6366771e-13 8.6765484e-13 9.6012868e-14 
number of iterations: 1170 
   22400     241.0094    12318         6419         5899 9.6827963e-13 8.7186729e-13 9.641234e-14 
number of iterations: 930 
   22500    241.53782    12374         6452         5922 9.7288586e-13 8.7608026e-13 9.6805599e-14 
number of iterations: 1087 
   22600    242.15141    12427         6488         5939 9.7737466e-13 8.8029488e-13 9.7079782e-14 
number of iterations: 1376 
   22700    243.00346    12473         6509         5964 9.8201309e-13 8.8451133e-13 9.7501755e-14 
number of iterations: 1028 
   22800    243.89635    12531         6539         5992 9.8668972e-13 8.8872841e-13 9.7961312e-14 
number of iterations: 1106 
   22900    244.57746    12595         6565         6030 9.9153644e-13 8.9294685e-13 9.8589585e-14 
number of iterations: 1220 
   23000    245.24478    12670         6604         6066 9.963599e-13 8.9716741e-13 9.9192492e-14 
number of iterations: 1081 
   23100    245.84313    12738         6636         6102 1.0011518e-12 9.0138898e-13 9.9762777e-14 
number of iterations: 946 
   23200    246.37106    12809         6662         6147 1.0061076e-12 9.0561142e-13 1.0049623e-13 
number of iterations: 968 
   23300    246.91877    12872         6690         6182 1.0108718e-12 9.098336e-13 1.010382e-13 
number of iterations: 1328 
   23400    247.64259    12952         6719         6233 1.0159272e-12 9.1405815e-13 1.0186906e-13 
number of iterations: 1036 
   23500    248.25467    13020         6754         6266  1.02068e-12 9.1828417e-13 1.0239585e-13 
number of iterations: 1285 
   23600    248.95588    13067         6777         6290 1.0252451e-12 9.2251209e-13  1.02733e-13 
number of iterations: 1105 
   23700     249.5728    13123         6804         6319 1.0299632e-12  9.26741e-13 1.0322216e-13 
number of iterations: 1029 
   23800    250.23041    13175         6835         6340 1.0345839e-12 9.3097014e-13 1.0361378e-13 
number of iterations: 1113 
   23900    250.84998    13230         6861         6369 1.039293e-12 9.352009e-13 1.0409206e-13 
number of iterations: 1159 
   24000     251.4911    13300         6899         6401 1.0440842e-12 9.3943308e-13 1.0465108e-13 
number of iterations: 1288 
   24100    252.18969    13356         6933         6423 1.0486602e-12 9.4366629e-13 1.0499393e-13 
number of iterations: 1160 
   24200    252.83316    13415         6970         6445 1.0532419e-12 9.4790105e-13 1.0534088e-13 
number of iterations: 1033 
   24300     253.4083    13477         7013         6464 1.0577967e-12 9.521364e-13 1.0566028e-13 
number of iterations: 873 
   24400    253.90986    13541         7054         6487 1.0624017e-12 9.5637224e-13 1.0602941e-13 
number of iterations: 1240 
   24500    254.58756    13583         7077         6506 1.0669696e-12 9.6061036e-13 1.0635921e-13 
number of iterations: 988 
   24600     255.1457    13640         7107         6533 1.0716379e-12 9.648493e-13 1.0678859e-13 
number of iterations: 1116 
   24700    255.76611    13700         7133         6567 1.0763902e-12 9.6908999e-13 1.0730021e-13 
number of iterations: 997 
   24800    256.32775    13759         7164         6595 1.0810808e-12 9.7333139e-13 1.0774938e-13 
number of iterations: 1118 
   24900    256.94964    13810         7199         6611 1.0855977e-12 9.7757382e-13 1.080239e-13 
number of iterations: 897 
   25000    257.46118    13867         7233         6634 1.0902374e-12 9.8181697e-13 1.0842044e-13 
number of iterations: 1160 
   25100    258.11477    13920         7258         6662 1.0949607e-12 9.8606056e-13 1.0890017e-13 
number of iterations: 1178 
   25200    258.78913    13972         7287         6685 1.0996175e-12 9.9030638e-13 1.0931116e-13 
number of iterations: 1214 
   25300    259.50014    14041         7320         6721 1.1044467e-12 9.9455344e-13 1.0989325e-13 
number of iterations: 919 
   25400    260.17774    14112         7358         6754 1.1092136e-12 9.9880103e-13 1.1041253e-13 
number of iterations: 1254 
   25500    260.91913    14156         7376         6780 1.1138573e-12 1.0030512e-12 1.1080613e-13 
number of iterations: 1096 
   25600    261.54678    14226         7411         6815 1.1186408e-12 1.0073013e-12 1.1133954e-13 
number of iterations: 1265 
   25700    262.23793    14311         7457         6854 1.1235181e-12 1.0115539e-12 1.1196413e-13 
number of iterations: 1241 
   25800    262.92047    14367         7494         6873 1.1280926e-12 1.0158083e-12 1.1228434e-13 
number of iterations: 948 
   25900    263.46279    14428         7526         6902 1.1328323e-12 1.0200633e-12 1.1276903e-13 
number of iterations: 1007 
   26000    264.03293    14484         7552         6932 1.1375433e-12 1.0243191e-12 1.1322419e-13 
number of iterations: 1215 
   26100    264.70337    14561         7586         6975 1.142558e-12 1.0285762e-12 1.1398176e-13 
number of iterations: 1233 
   26200    265.38766    14636         7619         7017 1.1475481e-12 1.0328353e-12 1.147128e-13 
number of iterations: 1593 
   26300    266.25375    14723         7659         7064 1.1525801e-12 1.0370974e-12 1.1548272e-13 
number of iterations: 1067 
   26400    266.85747    14785         7685         7100 1.1574396e-12 1.041359e-12 1.1608057e-13 
number of iterations: 1381 
   26500    267.61443    14845         7712         7133 1.1622595e-12 1.0456231e-12 1.166364e-13 
number of iterations: 1235 
   26600    268.30901    14909         7752         7157 1.1669637e-12 1.0498887e-12  1.17075e-13 
number of iterations: 1381 
   26700    269.06643    14977         7786         7191 1.1717831e-12 1.0541558e-12 1.1762733e-13 
number of iterations: 1092 
   26800    269.68911    15034         7821         7213 1.1764158e-12 1.0584241e-12 1.1799168e-13 
number of iterations: 1196 
   26900    270.36826    15083         7842         7241 1.1811615e-12 1.0626942e-12 1.1846734e-13 
number of iterations: 1389 
   27000    271.13028    15150         7877         7273 1.1859572e-12 1.0669669e-12 1.189903e-13 
number of iterations: 1272 
   27100    271.84495    15210         7909         7301 1.1906532e-12 1.0712405e-12 1.1941276e-13 
number of iterations: 1018 
   27200    272.42448    15266         7932         7334  1.19549e-12 1.0755138e-12 1.1997625e-13 
number of iterations: 1349 
   27300    273.17493    15327         7957         7370 1.2003522e-12 1.0797897e-12 1.2056247e-13 
number of iterations: 1291 
   27400    273.92974    15374         7980         7394 1.205005e-12 1.0840676e-12 1.2093734e-13 
number of iterations: 943 
   27500    274.50054    15437         8012         7425 1.2098045e-12 1.0883458e-12 1.2145869e-13 
number of iterations: 1056 
   27600    275.24352    15501         8051         7450 1.2144702e-12 1.0926254e-12 1.2184475e-13 
number of iterations: 1213 
   27700    275.95275    15567         8089         7478 1.2192168e-12 1.0969068e-12 1.2230995e-13 
number of iterations: 1288 
   27800    276.72183    15616         8117         7499 1.2238058e-12 1.1011901e-12 1.2261561e-13 
number of iterations: 1070 
   27900    277.33744    15683         8149         7534 1.2286426e-12 1.1054741e-12 1.2316847e-13 
number of iterations: 1037 
   28000    277.97305    15733         8179         7554 1.2332782e-12 1.1097581e-12 1.2352007e-13 
number of iterations: 1180 
   28100    278.65165    15801         8210         7591 1.2381438e-12 1.1140449e-12 1.2409898e-13 
number of iterations: 896 
   28200    279.20117    15866         8242         7624 1.2429476e-12 1.1183309e-12 1.2461664e-13 
number of iterations: 1321 
   28300    279.98726    15928         8274         7654 1.2477085e-12 1.1226199e-12 1.2508853e-13 
number of iterations: 1243 
   28400    280.74377    15982         8305         7677 1.2523874e-12  1.12691e-12 1.254774e-13 
number of iterations: 1093 
   28500    281.50999    16039         8331         7708 1.2571976e-12 1.1312003e-12 1.259973e-13 
number of iterations: 1158 
   28600    282.22438    16105         8368         7737 1.261942e-12 1.1354914e-12 1.2645057e-13 
number of iterations: 1158 
   28700    282.87893    16164         8395         7769 1.2667652e-12 1.1397846e-12 1.2698066e-13 
number of iterations: 1146 
   28800    283.54518    16234         8436         7798  1.27153e-12 1.1440792e-12 1.2745078e-13 
number of iterations: 1096 
   28900    284.18803    16302         8478         7824 1.2762275e-12 1.1483752e-12 1.2785229e-13 
number of iterations: 896 
   29000    284.71676    16347         8508         7839 1.2807512e-12 1.1526717e-12 1.2807957e-13 
number of iterations: 1627 
   29100    285.63973    16408         8537         7871 1.2855569e-12 1.1569718e-12 1.2858513e-13 
number of iterations: 1175 
   29200    286.31101    16465         8563         7902 1.2903956e-12 1.1612728e-12 1.2912276e-13 
number of iterations: 1332 
   29300    287.10515    16517         8593         7924 1.2950617e-12 1.1655754e-12 1.2948634e-13 
number of iterations: 862 
   29400    287.65618    16583         8626         7957 1.2999148e-12 1.1698778e-12 1.3003701e-13 
number of iterations: 1251 
   29500    288.38297    16635         8654         7981 1.3046111e-12 1.1741827e-12 1.3042842e-13 
number of iterations: 967 
   29600    288.97738    16709         8690         8019 1.3095312e-12 1.1784878e-12 1.310434e-13 
number of iterations: 1327 
   29700    289.74697    16785         8719         8066 1.3146069e-12 1.1827945e-12 1.3181235e-13 
number of iterations: 1126 
   29800    290.40918    16846         8755         8091 1.3193328e-12 1.187103e-12 1.322298e-13 
number of iterations: 1288 
   29900    291.24937    16905         8789         8116 1.324053e-12 1.1914138e-12 1.3263921e-13 
number of iterations: 1124 
   30000    291.94746    16962         8819         8143 1.3287733e-12 1.1957257e-12 1.3304764e-13 
number of iterations: 1234 
   30100    292.66801    17023         8852         8171 1.3335294e-12 1.2000393e-12 1.334901e-13 
number of iterations: 1213 
   30200    293.42626    17085         8886         8199 1.3383075e-12 1.2043539e-12 1.3395362e-13 
number of iterations: 1024 
   30300    294.14574    17145         8923         8222 1.3429561e-12 1.2086694e-12 1.3428676e-13 
number of iterations: 1026 
   30400    294.80505    17200         8955         8245 1.347649e-12 1.2129859e-12 1.3466314e-13 
number of iterations: 1250 
   30500    295.51835    17243         8982         8261 1.3522411e-12 1.2173042e-12 1.3493689e-13 
number of iterations: 1276 
   30600     296.2393    17312         9016         8296 1.357105e-12 1.2216238e-12 1.3548124e-13 
number of iterations: 1217 
   30700    296.93105    17366         9051         8315 1.3617448e-12 1.2259442e-12 1.3580061e-13 
number of iterations: 1348 
   30800    297.68505    17432         9094         8338 1.3664641e-12 1.2302673e-12 1.3619679e-13 
number of iterations: 997 
   30900    298.27705    17487         9126         8361 1.371158e-12 1.2345914e-12 1.3656658e-13 
number of iterations: 1026 
   31000     298.8733    17549         9154         8395 1.3760103e-12 1.2389165e-12 1.3709386e-13 
number of iterations: 1182 
   31100     299.5519    17610         9189         8421 1.3807927e-12 1.2432434e-12 1.3754926e-13 
number of iterations: 1216 
   31200    300.31536    17667         9219         8448 1.3855408e-12 1.2475709e-12 1.3796985e-13 
number of iterations: 1201 
   31300    301.03738    17736         9252         8484 1.3904445e-12   1.2519e-12 1.3854452e-13 
number of iterations: 1308 
   31400    301.80659    17790         9276         8514 1.3952822e-12 1.2562312e-12 1.3905108e-13 
number of iterations: 1441 
   31500    302.60652    17841         9301         8540 1.4000813e-12 1.2605651e-12 1.3951617e-13 
number of iterations: 1293 
   31600    303.32655    17905         9340         8565 1.404854e-12 1.2649002e-12 1.3995381e-13 
number of iterations: 1027 
   31700    303.92307    17970         9372         8598 1.4097468e-12 1.2692364e-12 1.405104e-13 
number of iterations: 1168 
   31800    304.58769    18036         9411         8625 1.4145361e-12 1.273573e-12 1.4096316e-13 
number of iterations: 1358 
   31900    305.35356    18108         9449         8659 1.4194481e-12 1.2779116e-12 1.4153646e-13 
number of iterations: 1165 
   32000    306.03149    18169         9488         8681 1.4241167e-12 1.2822513e-12 1.4186544e-13 
number of iterations: 1356 
   32100    306.84204    18212         9509         8703 1.4288368e-12 1.2865934e-12 1.4224346e-13 
number of iterations: 1603 
   32200    307.74153    18272         9541         8731 1.4336618e-12 1.2909376e-12 1.4272426e-13 
number of iterations: 1546 
   32300    308.61496    18330         9571         8759 1.4384574e-12 1.2952849e-12 1.4317248e-13 
number of iterations: 944 
   32400    309.25613    18390         9607         8783 1.4432202e-12 1.2996318e-12 1.4358836e-13 
number of iterations: 1230 
   32500    309.97417    18441         9639         8802 1.447886e-12 1.303981e-12  1.43905e-13 
number of iterations: 1300 
   32600    310.73232    18503         9670         8833 1.4527396e-12 1.3083327e-12 1.4440683e-13 
number of iterations: 1461 
   32700    311.60523    18580         9700         8880 1.4578316e-12 1.3126865e-12 1.4514508e-13 
number of iterations: 1119 
   32800    312.30078    18636         9732         8904 1.4625519e-12 1.3170414e-12 1.4551055e-13 
number of iterations: 1292 
   32900    313.10294    18691         9765         8926 1.4672874e-12 1.3213978e-12 1.4588968e-13 
number of iterations: 1485 
   33000    313.97308    18756         9803         8953 1.4720455e-12 1.3257566e-12 1.4628891e-13 
number of iterations: 1036 
   33100    314.64638    18826         9846         8980 1.4768619e-12 1.3301162e-12 1.4674576e-13 
number of iterations: 1356 
   33200    315.45259    18878         9873         9005 1.4816274e-12 1.3344774e-12 1.4714996e-13 
number of iterations: 1675 
   33300    316.44046    18949         9912         9037 1.4865383e-12 1.3388417e-12 1.476966e-13 
number of iterations: 1445 
   33400    317.25616    19004         9949         9055 1.4912097e-12 1.3432085e-12 1.4800127e-13 
number of iterations: 1207 
   33500    317.99886    19060         9984         9076 1.4959027e-12 1.3475759e-12 1.4832683e-13 
number of iterations: 1330 
   33600    318.77714    19130        10018         9112 1.500851e-12 1.3519442e-12 1.4890682e-13 
number of iterations: 1092 
   33700    319.44621    19184        10050         9134 1.505603e-12 1.356314e-12 1.4928899e-13 
number of iterations: 1266 
   33800    320.26641    19250        10081         9169 1.5105262e-12 1.3606858e-12 1.4984042e-13 
number of iterations: 1084 
   33900    320.97563    19323        10111         9212 1.5156355e-12 1.3650589e-12 1.5057659e-13 
number of iterations: 1191 
   34000    321.77793    19375        10133         9242 1.5205003e-12 1.3694335e-12 1.5106678e-13 
number of iterations: 1355 
   34100    322.59585    19424        10166         9258 1.5251601e-12 1.3738109e-12 1.5134929e-13 
number of iterations: 1093 
   34200    323.24287    19478        10202         9276 1.5298157e-12 1.3781885e-12 1.5162725e-13 
number of iterations: 1160 
   34300    323.98168    19538        10235         9303 1.5346756e-12 1.3825678e-12 1.5210782e-13 
number of iterations: 955 
   34400    324.62402    19586        10262         9324 1.5393992e-12 1.3869474e-12 1.5245176e-13 
number of iterations: 1306 
   34500    326.06633    19645        10298         9347 1.5441645e-12 1.3913298e-12 1.5283469e-13 
number of iterations: 1474 
   34600    327.01993    19707        10326         9381 1.5491145e-12 1.3957143e-12 1.5340027e-13 
number of iterations: 1056 
   34700    327.64619    19767        10358         9409 1.5539532e-12 1.4000996e-12 1.5385357e-13 
number of iterations: 1186 
   34800      328.344    19824        10391         9433 1.5587751e-12 1.4044853e-12 1.5428974e-13 
number of iterations: 1460 
   34900    329.19505    19873        10419         9454 1.5634734e-12 1.4088734e-12 1.5459992e-13 
number of iterations: 1356 
   35000    330.14974    19942        10451         9491 1.568467e-12 1.4132644e-12 1.5520264e-13 
number of iterations: 1263 
   35100    330.98691    20009        10488         9521 1.5733791e-12 1.4176569e-12 1.5572227e-13 
number of iterations: 889 
   35200    331.55033    20060        10520         9540 1.5780825e-12 1.4220487e-12 1.560338e-13 
number of iterations: 1187 
   35300    332.33542    20111        10543         9568 1.5829435e-12 1.4264434e-12 1.5650009e-13 
number of iterations: 1469 
   35400    333.28866    20170        10577         9593 1.5877287e-12 1.4308398e-12 1.568889e-13 
number of iterations: 1343 
   35500    334.13749    20228        10602         9626 1.5926354e-12 1.4352383e-12 1.5739714e-13 
number of iterations: 1222 
   35600    334.89768    20300        10644         9656 1.5975808e-12 1.4396391e-12 1.5794175e-13 
number of iterations: 1432 
   35700    335.79674    20359        10682         9677 1.6023167e-12 1.4440418e-12 1.5827488e-13 
number of iterations: 1302 
   35800    336.56064    20414        10717         9697 1.6070528e-12 1.4484462e-12 1.5860666e-13 
number of iterations: 1081 
   35900    337.25243    20476        10750         9726 1.6119122e-12 1.4528516e-12 1.5906064e-13 
number of iterations: 1290 
   36000    338.07745    20539        10781         9758 1.6168272e-12 1.457259e-12 1.5956818e-13 
number of iterations: 1196 
   36100    338.81433    20591        10805         9786 1.6217037e-12 1.461668e-12 1.6003565e-13 
number of iterations: 1050 
   36200    339.52318    20666        10844         9822 1.626737e-12 1.4660769e-12 1.6066009e-13 
number of iterations: 1379 
   36300    340.41632    20711        10867         9844 1.6315009e-12 1.4704894e-12 1.6101153e-13 
number of iterations: 1207 
   36400    341.21658    20764        10890         9874 1.6364421e-12 1.4749032e-12 1.6153889e-13 
number of iterations: 1323 
   36500    342.05716    20831        10921         9910 1.6414303e-12 1.479319e-12 1.6211127e-13 
number of iterations: 1270 
   36600    342.81923    20905        10957         9948 1.646476e-12 1.4837362e-12 1.6273979e-13 
number of iterations: 1569 
   36700    343.76989    20965        10988         9977 1.6513964e-12 1.4881558e-12 1.6324055e-13 
number of iterations: 1296 
   36800     344.5591    21020        11019        10001 1.6562066e-12 1.4925771e-12 1.636295e-13 
number of iterations: 1378 
   36900    345.37396    21078        11057        10021 1.6609556e-12    1.497e-12 1.6395561e-13 
number of iterations: 1190 
   37000    346.10687    21132        11082        10050 1.6658622e-12 1.5014247e-12 1.6443747e-13 
number of iterations: 1421 
   37100    346.94532    21195        11122        10073 1.6706674e-12 1.5058515e-12 1.6481596e-13 
number of iterations: 1372 
   37200    347.74209    21269        11154        10115 1.6757466e-12 1.5102809e-12 1.6546572e-13 
number of iterations: 1325 
   37300    348.51733    21342        11188        10154 1.680849e-12 1.5147117e-12 1.6613733e-13 
number of iterations: 1009 
   37400    349.13509    21387        11212        10175 1.6856598e-12 1.5191423e-12 1.6651743e-13 
number of iterations: 1381 
   37500    349.93252    21443        11236        10207 1.6906328e-12 1.5235761e-12 1.6705669e-13 
number of iterations: 1467 
   37600      350.793    21496        11270        10226 1.6953547e-12 1.5280126e-12 1.6734211e-13 
number of iterations: 1068 
   37700    351.43083    21555        11308        10247 1.7001363e-12 1.5324497e-12 1.6768661e-13 
number of iterations: 1095 
   37800    352.09828    21619        11342        10277 1.7050695e-12 1.5368877e-12 1.681818e-13 
number of iterations: 1237 
   37900     352.8234    21682        11371        10311 1.7100265e-12 1.5413266e-12 1.6869995e-13 
number of iterations: 1792 
   38000    353.82266    21738        11401        10337 1.714839e-12 1.5457699e-12 1.6906914e-13 
number of iterations: 1139 
   38100    354.50395    21798        11430        10368 1.7197987e-12 1.5502138e-12 1.695849e-13 
number of iterations: 1351 
   38200      355.285    21866        11464        10402 1.7248235e-12  1.55466e-12 1.7016348e-13 
number of iterations: 997 
   38300    355.89953    21921        11485        10436 1.7298526e-12 1.5591069e-12 1.7074569e-13 
number of iterations: 1271 
   38400    356.64821    21990        11522        10468 1.7348593e-12 1.5635559e-12 1.7130339e-13 
number of iterations: 1223 
   38500    357.37301    22046        11556        10490 1.7396671e-12 1.5680061e-12  1.71661e-13 
number of iterations: 1608 
   38600    358.31016    22127        11598        10529 1.7447722e-12 1.5724594e-12 1.7231281e-13 
number of iterations: 1344 
   38700    359.10166    22192        11638        10554 1.7496443e-12 1.5769145e-12 1.727298e-13 
number of iterations: 1454 
   38800     359.9445    22254        11675        10579 1.7545093e-12 1.5813719e-12 1.731374e-13 
number of iterations: 1319 
   38900    360.73246    22321        11712        10609 1.759464e-12 1.5858311e-12 1.736329e-13 
number of iterations: 1378 
   39000    361.53537    22386        11750        10636 1.7643978e-12 1.5902922e-12 1.7410567e-13 
number of iterations: 1390 
   39100    362.34103    22450        11783        10667 1.7693612e-12 1.594755e-12 1.7460625e-13 
number of iterations: 1341 
   39200    363.12455    22502        11805        10697 1.774325e-12 1.5992197e-12 1.7510536e-13 
number of iterations: 1372 
   39300    363.92405    22570        11845        10725 1.7792528e-12 1.6036854e-12 1.7556741e-13 
number of iterations: 1140 
   39400    364.61091    22636        11892        10744 1.7840247e-12 1.6081521e-12 1.7587261e-13 
number of iterations: 1122 
   39500    365.29457    22712        11926        10786 1.7891709e-12 1.6126198e-12 1.7655105e-13 
number of iterations: 1210 
   39600     366.0211    22754        11955        10799 1.7938441e-12 1.6170891e-12 1.7675503e-13 
number of iterations: 1497 
   39700    366.88166    22829        11997        10832 1.7988725e-12 1.6215619e-12 1.7731052e-13 
number of iterations: 1390 
   39800    367.69851    22885        12034        10851 1.8036588e-12 1.6260374e-12 1.7762136e-13 
number of iterations: 1628 
   39900    368.63295    22943        12068        10875 1.808572e-12 1.6305152e-12 1.7805681e-13 
number of iterations: 1290 
   40000    369.39972    23001        12098        10903 1.8134987e-12 1.6349941e-12 1.7850462e-13 
number of iterations: 1665 
   40100    370.35715    23074        12125        10949 1.8187409e-12 1.6394765e-12 1.7926439e-13 
number of iterations: 1093 
   40200    371.03381    23143        12153        10990 1.8239165e-12 1.6439595e-12 1.7995702e-13 
number of iterations: 1394 
   40300    371.85141    23202        12183        11019 1.8288843e-12 1.6484446e-12 1.8043964e-13 
number of iterations: 1455 
   40400    372.70433    23260        12214        11046 1.8338279e-12 1.6529321e-12 1.8089584e-13 
number of iterations: 1406 
   40500    373.52761    23325        12245        11080 1.8388637e-12 1.6574212e-12 1.8144254e-13 
number of iterations: 1387 
   40600    374.36157    23376        12281        11095 1.8436115e-12 1.6619127e-12 1.8169878e-13 
number of iterations: 1035 
   40700     375.0154    23453        12320        11133 1.8486901e-12 1.666404e-12 1.8228615e-13 
number of iterations: 1313 
   40800    375.79584    23519        12350        11169 1.8537215e-12 1.670898e-12 1.8282354e-13 
number of iterations: 1403 
   40900    376.62754    23571        12373        11198 1.8587097e-12 1.6753937e-12 1.8331606e-13 
number of iterations: 1098 
   41000    377.36641    23650        12414        11236 1.8637897e-12 1.6798912e-12 1.8389857e-13 
number of iterations: 1265 
   41100    378.12397    23702        12446        11256 1.8686309e-12 1.6843909e-12 1.8423997e-13 
number of iterations: 1517 
   41200    379.01445    23759        12472        11287 1.8736636e-12 1.6888937e-12 1.8476988e-13 
number of iterations: 1476 
   41300    379.93284    23830        12509        11321 1.8787109e-12 1.6933985e-12 1.8531243e-13 
number of iterations: 1214 
   41400    380.68882    23896        12550        11346 1.8836142e-12 1.6979042e-12 1.8570998e-13 
number of iterations: 1136 
   41500     381.3818    23971        12588        11383 1.8887239e-12 1.7024108e-12 1.8631303e-13 
number of iterations: 1213 
   41600    382.11424    24033        12624        11409 1.8936326e-12 1.7069171e-12 1.8671547e-13 
number of iterations: 1400 
   41700    382.94026    24106        12663        11443 1.8987404e-12 1.7114273e-12 1.8731316e-13 
number of iterations: 1367 
   41800    383.74758    24179        12692        11487 1.9039862e-12 1.7159395e-12 1.8804667e-13 
number of iterations: 1656 
   41900    384.69857    24244        12729        11515 1.9089661e-12 1.720454e-12 1.8851211e-13 
number of iterations: 1262 
   42000    385.45903    24301        12759        11542 1.9139269e-12 1.7249692e-12 1.8895766e-13 
number of iterations: 1334 
   42100    386.25907    24365        12786        11579 1.9190224e-12 1.7294872e-12 1.8953517e-13 
number of iterations: 1374 
   42200    387.07975    24440        12815        11625 1.9242679e-12 1.7340078e-12 1.9026012e-13 
number of iterations: 1689 
   42300    388.05346    24505        12853        11652 1.929259e-12 1.7385323e-12 1.9072676e-13 
number of iterations: 1407 
   42400    388.90263    24575        12884        11691 1.9343948e-12 1.7430587e-12 1.913361e-13 
number of iterations: 1490 
   42500    389.86446    24639        12905        11734 1.9396037e-12 1.7475871e-12 1.9201662e-13 
number of iterations: 1415 
   42600    390.72176    24701        12934        11767 1.9446535e-12 1.7521172e-12 1.9253622e-13 
number of iterations: 1421 
   42700    391.56591    24754        12968        11786 1.9495128e-12 1.7566486e-12 1.9286424e-13 
number of iterations: 1227 
   42800    392.32752    24829        13003        11826 1.9547518e-12 1.7611819e-12 1.9356992e-13 
number of iterations: 1750 
   42900    393.32934    24892        13039        11853 1.9597184e-12 1.7657178e-12 1.9400063e-13 
number of iterations: 1366 
   43000    394.15138    24960        13074        11886 1.9647531e-12 1.7702563e-12 1.944968e-13 
number of iterations: 1288 
   43100    394.93582    25033        13115        11918 1.9698095e-12 1.7747955e-12 1.9501395e-13 
number of iterations: 1470 
   43200    395.81167    25117        13163        11954 1.9748891e-12 1.7793358e-12 1.9555337e-13 
number of iterations: 1467 
   43300    396.73446    25193        13205        11988 1.9799968e-12 1.7838795e-12 1.9611725e-13 
number of iterations: 1814 
   43400     397.7876    25259        13251        12008 1.9848693e-12 1.7884278e-12 1.9644151e-13 
number of iterations: 1024 
   43500    398.45641    25337        13280        12057 1.9901851e-12 1.792976e-12 1.9720909e-13 
number of iterations: 1428 
   43600    399.32326    25395        13308        12087 1.9952124e-12 1.7975276e-12 1.9768487e-13 
number of iterations: 1300 
   43700    400.12215    25459        13343        12116 2.0002112e-12 1.8020809e-12 1.9813034e-13 
number of iterations: 1318 
   43800    400.94927    25518        13373        12145 2.0051978e-12 1.8066359e-12 1.9856194e-13 
number of iterations: 1263 
   43900    401.72312    25582        13407        12175 2.0102202e-12 1.8111924e-12 1.990278e-13 
number of iterations: 1414 
   44000    402.57873    25625        13430        12195 2.0150781e-12 1.8157513e-12 1.9932682e-13 
number of iterations: 1496 
   44100    403.46847    25685        13466        12219 2.0200363e-12 1.8203126e-12 1.9972375e-13 
number of iterations: 1493 
   44200    404.35705    25751        13500        12251 2.0251691e-12 1.8248766e-12 2.002925e-13 
number of iterations: 1361 
   44300    405.18574    25815        13538        12277 2.0301097e-12 1.8294427e-12 2.0066704e-13 
number of iterations: 1281 
   44400     405.9798    25882        13582        12300 2.0350718e-12 1.8340099e-12 2.0106186e-13 
number of iterations: 1343 
   44500    406.80311    25948        13613        12335 2.0401983e-12 1.8385791e-12 2.016192e-13 
number of iterations: 2038 
   44600    407.96052    26026        13650        12376 2.045398e-12 1.8431539e-12 2.0224414e-13 
number of iterations: 1312 
   44700    408.76972    26085        13687        12398 2.0503484e-12 1.8477297e-12 2.026187e-13 
number of iterations: 1128 
   44800    409.48325    26142        13719        12423 2.0553079e-12 1.8523066e-12 2.0300128e-13 
number of iterations: 1410 
   44900    410.33202    26188        13743        12445 2.0602596e-12 1.8568856e-12 2.0337401e-13 
number of iterations: 1426 
   45000    411.20884    26238        13767        12471 2.0652913e-12 1.8614669e-12 2.0382445e-13 
number of iterations: 1277 
   45100    412.01143    26289        13795        12494 2.0702261e-12 1.8660504e-12 2.0417569e-13 
number of iterations: 1286 
   45200    412.80271    26350        13825        12525 2.0752932e-12 1.8706347e-12 2.0465848e-13 
number of iterations: 1202 
   45300    413.55744    26414        13857        12557 2.0803808e-12 1.8752213e-12 2.051595e-13 
number of iterations: 1423 
   45400    414.42044    26479        13886        12593 2.0855505e-12 1.8798097e-12 2.0574082e-13 
number of iterations: 1427 
   45500    415.28947    26528        13913        12615 2.0905068e-12 1.8843997e-12 2.0610709e-13 
number of iterations: 1578 
   45600    416.22779    26597        13951        12646 2.0955584e-12 1.8889927e-12 2.065657e-13 
number of iterations: 1245 
   45700    417.01677    26655        13982        12673 2.1006118e-12 1.8935876e-12 2.0702422e-13 
number of iterations: 1174 
   45800    417.75517    26728        14014        12714 2.105856e-12 1.8981833e-12 2.0767261e-13 
number of iterations: 1254 
   45900    418.57671    26788        14050        12738 2.1108524e-12 1.902781e-12 2.0807147e-13 
number of iterations: 1468 
   46000    419.47915    26848        14085        12763 2.1158813e-12 1.9073821e-12 2.0849917e-13 
number of iterations: 1477 
   46100     420.3981    26900        14107        12793 2.1209467e-12 1.9119854e-12 2.0896128e-13 
number of iterations: 1471 
   46200    421.31054    26967        14139        12828 2.1261232e-12 1.9165916e-12 2.0953162e-13 
number of iterations: 1334 
   46300    422.14578    27047        14179        12868  2.13132e-12 1.9211988e-12 2.1012127e-13 
number of iterations: 1247 
   46400    422.92523    27104        14211        12893 2.1363531e-12 1.9258079e-12 2.1054524e-13 
number of iterations: 1214 
   46500    423.69291    27162        14245        12917 2.1413845e-12 1.9304183e-12 2.1096624e-13 
number of iterations: 1535 
   46600    424.62594    27229        14276        12953 2.1465942e-12 1.9350322e-12 2.1156204e-13 
number of iterations: 1455 
   46700     425.5275    27308        14317        12991 2.1518461e-12 1.9396471e-12 2.1219901e-13 
number of iterations: 1134 
   46800    426.25762    27377        14354        13023 2.1569836e-12 1.9442637e-12 2.1271983e-13 
number of iterations: 1385 
   46900    427.12206    27435        14376        13059 2.162204e-12 1.9488826e-12 2.133214e-13 
number of iterations: 1358 
   47000    427.97091    27499        14415        13084 2.167202e-12 1.9535035e-12 2.1369855e-13 
number of iterations: 1132 
   47100    428.71739    27555        14444        13111 2.1722622e-12 1.9581252e-12 2.1413709e-13 
number of iterations: 1321 
   47200    429.55356    27632        14490        13142 2.1774179e-12 1.962749e-12 2.1466896e-13 
number of iterations: 1787 
   47300    430.63217    27699        14534        13165 2.1824223e-12 1.9673761e-12 2.1504617e-13 
number of iterations: 1429 
   47400    431.52903    27764        14573        13191 2.1874483e-12 1.9720061e-12 2.1544216e-13 
number of iterations: 1547 
   47500    432.48373    27808        14603        13205 2.1923099e-12 1.9766386e-12 2.156713e-13 
number of iterations: 1158 
   47600     433.2333    27867        14635        13232 2.197352e-12 1.9812723e-12 2.1607968e-13 
number of iterations: 1550 
   47700    434.18162    27930        14659        13271 2.2026464e-12 1.9859086e-12 2.167378e-13 
number of iterations: 1342 
   47800    435.02085    27994        14693        13301 2.2077738e-12 1.9905465e-12 2.1722721e-13 
number of iterations: 1372 
   47900    435.88742    28057        14721        13336 2.2129471e-12 1.9951867e-12 2.1776041e-13 
number of iterations: 1102 
   48000    436.60896    28128        14759        13369 2.2181203e-12 1.9998278e-12 2.1829257e-13 
number of iterations: 1495 
   48100    437.54381    28176        14782        13394 2.2231688e-12 2.0044719e-12 2.1869692e-13 
number of iterations: 1325 
   48200    438.38167    28229        14809        13420 2.2282216e-12 2.0091178e-12 2.1910377e-13 
number of iterations: 1080 
   48300    439.11846    28291        14836        13455 2.2334338e-12 2.0137648e-12 2.1966894e-13 
number of iterations: 1615 
   48400    440.15353    28369        14875        13494 2.2387573e-12 2.0184143e-12  2.20343e-13 
number of iterations: 1184 
   48500    440.94974    28440        14912        13528 2.2439823e-12 2.0230637e-12 2.2091867e-13 
number of iterations: 1293 
   48600     441.7733    28519        14955        13564 2.2491921e-12 2.0277162e-12 2.2147594e-13 
number of iterations: 1414 
   48700    442.65304    28579        14993        13586 2.2542233e-12 2.0323713e-12 2.2185204e-13 
number of iterations: 1178 
   48800    443.41961    28647        15021        13626 2.2595199e-12 2.0370276e-12 2.2249225e-13 
number of iterations: 1644 
   48900    444.40886    28715        15059        13656 2.2646868e-12 2.0416872e-12 2.2299962e-13 
number of iterations: 1605 
   49000    445.38661    28789        15103        13686 2.2698032e-12 2.0463498e-12 2.234534e-13 
number of iterations: 1373 
   49100     446.2441    28861        15144        13717 2.2749699e-12 2.051014e-12 2.2395591e-13 
number of iterations: 1599 
   49200    447.23045    28943        15191        13752 2.2801787e-12 2.0556808e-12 2.2449787e-13 
number of iterations: 1226 
   49300    448.02332    29030        15227        13803 2.2857118e-12 2.0603492e-12 2.2536264e-13 
number of iterations: 1348 
   49400      448.904    29095        15267        13828 2.2907592e-12 2.0650205e-12 2.2573872e-13 
number of iterations: 1405 
   49500    449.92877    29176        15306        13870 2.296092e-12 2.0696941e-12 2.2639792e-13 
number of iterations: 1368 
   49600    450.81614    29243        15344        13899 2.3012122e-12 2.074369e-12 2.2684318e-13 
number of iterations: 1672 
   49700    451.84317    29327        15373        13954 2.3067361e-12 2.079049e-12 2.2768713e-13 
number of iterations: 1152 
   49800    452.59978    29404        15405        13999 2.3121374e-12 2.0837292e-12 2.2840815e-13 
number of iterations: 1245 
   49900    453.40269    29458        15439        14019 2.3171331e-12 2.0884108e-12 2.2872229e-13 
number of iterations: 1794 
   50000    454.49276    29538        15480        14058 2.3224236e-12 2.0930963e-12 2.2932735e-13 
number of iterations: 1283 
   50100     455.3257    29601        15512        14089 2.3275966e-12 2.0977832e-12 2.2981337e-13 
number of iterations: 1441 
   50200    456.23032    29663        15544        14119 2.3327826e-12 2.1024734e-12 2.3030916e-13 
number of iterations: 1291 
   50300    457.06991    29727        15580        14147 2.3379152e-12 2.1071657e-12 2.3074959e-13 
number of iterations: 1619 
   50400    458.07148    29790        15607        14183 2.3431703e-12 2.1118611e-12 2.3130919e-13 
number of iterations: 1446 
   50500    458.99003    29849        15645        14204 2.3482274e-12 2.1165582e-12 2.316692e-13 
number of iterations: 1498 
   50600    459.94147    29910        15675        14235 2.3534137e-12 2.1212581e-12 2.3215561e-13 
number of iterations: 1209 
   50700    460.74799    29961        15705        14256 2.3584802e-12 2.1259595e-12 2.3252065e-13 
number of iterations: 1548 
   50800    461.72437    30016        15733        14283 2.3636274e-12 2.1306633e-12 2.3296408e-13 
number of iterations: 1369 
   50900    462.60744    30092        15772        14320 2.3690128e-12 2.135369e-12 2.3364376e-13 
number of iterations: 1263 
   51000    463.43813    30171        15814        14357 2.3743422e-12 2.1400755e-12 2.3426667e-13 
number of iterations: 1178 
   51100    464.23091    30238        15844        14394 2.3796415e-12 2.1447829e-12 2.3485863e-13 
number of iterations: 1752 
   51200    465.32029    30314        15892        14422 2.384892e-12 2.1494957e-12 2.3539627e-13 
number of iterations: 1671 
   51300    466.35569    30384        15933        14451 2.3900474e-12 2.1542118e-12 2.3583554e-13 
number of iterations: 1550 
   51400    467.33379    30449        15966        14483 2.3952967e-12 2.1589304e-12 2.3636628e-13 
number of iterations: 1623 
   51500    468.34206    30514        16005        14509 2.4004644e-12 2.1636533e-12 2.3681109e-13 
number of iterations: 1519 
   51600    469.31853    30581        16040        14541 2.4056716e-12 2.1683778e-12 2.3729379e-13 
number of iterations: 1775 
   51700    470.40243    30647        16070        14577 2.4109904e-12 2.1731055e-12 2.3788494e-13 
number of iterations: 1600 
   51800    471.41377    30706        16106        14600 2.4160986e-12 2.1778367e-12 2.3826187e-13 
number of iterations: 1524 
   51900    472.38164    30773        16138        14635 2.4214068e-12 2.1825709e-12 2.3883596e-13 
number of iterations: 1572 
   52000    473.37483    30839        16174        14665 2.4266466e-12 2.1873074e-12 2.3933914e-13 
number of iterations: 1529 
   52100    474.35131    30912        16217        14695 2.4318634e-12 2.192046e-12 2.3981742e-13 
number of iterations: 1670 
   52200    475.38963    30970        16256        14714 2.4369381e-12 2.1967888e-12 2.4014926e-13 
number of iterations: 1805 
   52300    476.49283    31048        16298        14750 2.4422305e-12 2.2015354e-12 2.4069506e-13 
number of iterations: 1438 
   52400     477.4176    31110        16328        14782 2.447503e-12 2.2062835e-12 2.4121948e-13 
number of iterations: 1214 
   52500    478.22223    31170        16361        14809 2.4526951e-12 2.2110331e-12 2.4166202e-13 
number of iterations: 1553 
   52600    479.21279    31243        16401        14842 2.4580092e-12 2.2157855e-12 2.4222377e-13 
number of iterations: 1101 
   52700     479.9735    31308        16438        14870 2.4631981e-12 2.2205386e-12 2.4265949e-13 
number of iterations: 1676 
   52800    481.04453    31374        16472        14902 2.4684378e-12 2.2252959e-12 2.4314191e-13 
number of iterations: 1577 
   52900    482.03786    31445        16508        14937 2.4737497e-12 2.2300565e-12 2.4369322e-13 
number of iterations: 1446 
   53000     482.9794    31527        16542        14985 2.4792916e-12 2.2348184e-12 2.4447324e-13 
number of iterations: 1788 
   53100    484.09379    31587        16572        15015 2.4845077e-12 2.2395845e-12 2.4492322e-13 
number of iterations: 1889 
   53200    485.25427    31663        16610        15053 2.4898584e-12 2.2443549e-12 2.455035e-13 
number of iterations: 1567 
   53300     486.2398    31720        16648        15072 2.4949351e-12 2.2491278e-12 2.4580733e-13 
number of iterations: 1631 
   53400    487.27614    31777        16673        15104 2.5002309e-12 2.2539033e-12 2.4632759e-13 
number of iterations: 1475 
   53500    488.22849    31858        16702        15156 2.5058636e-12 2.2586815e-12 2.4718211e-13 
number of iterations: 1621 
   53600    489.26556    31932        16748        15184 2.5110827e-12 2.2634635e-12 2.4761916e-13 
number of iterations: 1624 
   53700    490.29785    32010        16773        15237 2.5167626e-12 2.2682487e-12 2.4851391e-13 
number of iterations: 1713 
   53800    491.39673    32085        16815        15270 2.5220628e-12 2.2730363e-12 2.4902649e-13 
number of iterations: 1397 
   53900    492.30215    32165        16855        15310 2.5274911e-12 2.2778266e-12 2.4966445e-13 
number of iterations: 1265 
   54000    493.15774    32225        16885        15340 2.5327854e-12 2.2826179e-12 2.5016746e-13 
number of iterations: 1532 
   54100    494.13337    32290        16918        15372 2.5381356e-12 2.2874125e-12 2.5072309e-13 
number of iterations: 1614 
   54200    495.15757    32346        16952        15394 2.5433272e-12 2.292209e-12 2.5111821e-13 
number of iterations: 1209 
   54300    495.99009    32392        16986        15406 2.548329e-12 2.2970073e-12 2.5132162e-13 
number of iterations: 1520 
   54400    496.95486    32451        17024        15427 2.5534732e-12 2.3018087e-12 2.5166443e-13 
number of iterations: 1440 
   54500    497.88046    32521        17068        15453 2.5587176e-12 2.3066116e-12 2.5210603e-13 
number of iterations: 1737 
   54600    498.96631    32587        17105        15482 2.5640072e-12 2.3114184e-12 2.5258885e-13 
number of iterations: 1356 
   54700    499.91495    32661        17141        15520 2.5694167e-12 2.3162279e-12 2.5318884e-13 
number of iterations: 1489 
   54800    500.88904    32733        17173        15560 2.5749006e-12 2.3210391e-12 2.538615e-13 
number of iterations: 1669 
   54900    501.95032    32792        17205        15587 2.5801359e-12 2.3258546e-12 2.5428132e-13 
number of iterations: 1682 
   55000    503.01537    32868        17246        15622 2.5854872e-12 2.3306739e-12 2.5481329e-13 
number of iterations: 1685 
   55100    504.08406    32921        17278        15643 2.5906826e-12 2.3354958e-12 2.5518683e-13 
number of iterations: 1485 
   55200      505.057    33002        17312        15690 2.5962488e-12 2.3403202e-12 2.5592859e-13 
number of iterations: 1361 
   55300    505.96486    33065        17343        15722 2.6015592e-12 2.3451463e-12 2.5641295e-13 
number of iterations: 1485 
   55400    506.92549    33128        17380        15748 2.6068044e-12 2.3499753e-12 2.5682911e-13 
number of iterations: 1710 
   55500    508.00207    33195        17419        15776 2.6120882e-12 2.3548075e-12 2.5728067e-13 
number of iterations: 1758 
   55600    509.11963    33256        17447        15809 2.6174564e-12 2.3596436e-12 2.5781278e-13 
number of iterations: 1664 
   55700    510.30247    33317        17480        15837 2.6227294e-12 2.3644826e-12 2.582468e-13 
number of iterations: 1717 
   55800    511.40188    33385        17502        15883 2.6283084e-12 2.3693244e-12 2.5898395e-13 
number of iterations: 1333 
   55900    512.31325    33480        17545        15935 2.6340139e-12 2.3741682e-12 2.5984562e-13 
number of iterations: 944 
   56000    513.02057    33557        17578        15979 2.6395738e-12 2.3790108e-12  2.60563e-13 
number of iterations: 1644 
   56100    514.07255    33631        17618        16013 2.6449696e-12 2.3838594e-12 2.6111021e-13 
number of iterations: 1840 
   56200    515.22645    33696        17664        16032 2.6501693e-12 2.3887114e-12 2.6145784e-13 
number of iterations: 1820 
   56300    516.37218    33762        17694        16068 2.6555775e-12 2.3935672e-12 2.6201032e-13 
number of iterations: 1862 
   56400    517.54433    33833        17731        16102 2.6610133e-12 2.3984276e-12 2.6258563e-13 
number of iterations: 1371 
   56500    518.47221    33912        17783        16129 2.6663247e-12 2.403289e-12 2.6303571e-13 
number of iterations: 1754 
   56600     519.5884    33962        17810        16152 2.671581e-12 2.4081542e-12 2.6342683e-13 
number of iterations: 1696 
   56700    520.68066    34034        17848        16186 2.6769822e-12 2.4130232e-12  2.63959e-13 
number of iterations: 1552 
   56800    521.71459    34128        17899        16229 2.6826199e-12 2.4178941e-12 2.6472584e-13 
number of iterations: 1155 
   56900    522.53257    34217        17948        16269 2.6881446e-12 2.4227656e-12 2.6537895e-13 
number of iterations: 1803 
   57000    523.66794    34289        17977        16312 2.6936797e-12 2.4276424e-12 2.6603729e-13 
number of iterations: 1415 
   57100    524.61537    34356        18017        16339 2.6989951e-12 2.4325212e-12 2.664739e-13 
number of iterations: 1470 
   57200    525.59135    34413        18043        16370 2.7043847e-12 2.4374017e-12 2.6698306e-13 
number of iterations: 1624 
   57300    526.64617    34489        18083        16406 2.7098578e-12 2.4422859e-12 2.6757191e-13 
number of iterations: 1334 
   57400    527.55457    34553        18119        16434 2.7151709e-12 2.4471718e-12 2.6799903e-13 
number of iterations: 1561 
   57500    528.57563    34611        18158        16453 2.7203379e-12 2.4520605e-12 2.6827739e-13 
number of iterations: 1328 
   57600    529.48328    34684        18201        16483 2.7257559e-12 2.4569509e-12 2.6880498e-13 
number of iterations: 1409 
   57700    530.43227    34757        18241        16516 2.7311744e-12 2.4618435e-12 2.6933088e-13 
number of iterations: 1488 
   57800    531.43248    34833        18276        16557 2.7367526e-12 2.466738e-12 2.7001456e-13 
number of iterations: 1493 
   57900    532.42699    34901        18310        16591 2.7422116e-12 2.4716359e-12 2.7057568e-13 
number of iterations: 1669 
   58000    533.49918    34963        18339        16624 2.7476544e-12 2.4765377e-12 2.7111668e-13 
number of iterations: 1877 
   58100    534.68443    35038        18373        16665 2.7532646e-12 2.4814446e-12 2.7181993e-13 
number of iterations: 1266 
   58200    535.56869    35127        18412        16715 2.7589322e-12 2.4863524e-12 2.7257982e-13 
number of iterations: 1780 
   58300    536.71313    35195        18447        16748 2.764375e-12 2.4912651e-12 2.7310992e-13 
number of iterations: 1852 
   58400     537.8964    35284        18483        16801 2.7701904e-12 2.4961825e-12 2.7400793e-13 
number of iterations: 1936 
   58500    539.12373    35343        18515        16828 2.7755238e-12 2.5011048e-12 2.7441901e-13 
number of iterations: 1516 
   58600    540.13415    35418        18553        16865 2.7810278e-12 2.5060282e-12 2.7499962e-13 
number of iterations: 1277 
   58700    541.02085    35484        18590        16894 2.786396e-12 2.5109536e-12 2.7544239e-13 
number of iterations: 1688 
   58800    542.12425    35559        18627        16932 2.7919615e-12 2.5158833e-12 2.7607821e-13 
number of iterations: 1651 
   58900    543.19145    35620        18670        16950 2.7971599e-12 2.5208162e-12 2.7634373e-13 
number of iterations: 1710 
   59000    544.29114    35694        18712        16982 2.8026158e-12 2.5257518e-12 2.7686404e-13 
number of iterations: 1404 
   59100    545.24998    35764        18747        17017 2.808148e-12 2.5306895e-12 2.774585e-13 
number of iterations: 1935 
   59200      546.474    35832        18788        17044 2.813498e-12 2.5356325e-12 2.7786544e-13 
number of iterations: 1707 
   59300    547.57167    35903        18821        17082 2.8190593e-12 2.5405785e-12 2.7848079e-13 
number of iterations: 1241 
   59400    548.43683    35970        18858        17112 2.8244565e-12 2.5455238e-12 2.7893262e-13 
number of iterations: 1804 
   59500    549.59521    36037        18892        17145 2.8299529e-12 2.5504761e-12 2.794768e-13 
number of iterations: 1527 
   59600    550.61396    36099        18922        17177 2.835441e-12 2.5554311e-12 2.8000993e-13 
number of iterations: 1753 
   59700    551.76221    36153        18942        17211 2.8409415e-12 2.5603901e-12 2.8055142e-13 
number of iterations: 1437 
   59800    552.74274    36220        18978        17242 2.846375e-12 2.5653512e-12 2.8102381e-13 
number of iterations: 1450 
   59900    553.72869    36276        19003        17273 2.8518188e-12 2.5703152e-12 2.8150367e-13 
number of iterations: 1642 
   60000    554.81212    36360        19047        17313 2.8573984e-12 2.575282e-12 2.8211641e-13 
number of iterations: 1754 
   60100    555.95495    36429        19083        17346 2.8628942e-12 2.5802536e-12 2.8264054e-13 
number of iterations: 1616 
   60200    557.02907    36492        19118        17374 2.8683425e-12 2.5852275e-12 2.8311509e-13 
number of iterations: 1293 
   60300    557.93504    36558        19150        17408 2.8738909e-12 2.5902024e-12 2.8368848e-13 
number of iterations: 1572 
   60400    558.97629    36639        19190        17449 2.8795656e-12 2.595181e-12 2.8438458e-13 
number of iterations: 1858 
   60500    560.24521    36733        19228        17505 2.885418e-12 2.6001655e-12 2.8525251e-13 
number of iterations: 1340 
   60600    561.18205    36793        19265        17528 2.8907707e-12  2.60515e-12 2.8562066e-13 
[...]
number of iterations: 1754 
   65300    614.69378    40130        21064        19066 3.1539174e-12 2.8433262e-12 3.1059125e-13 
number of iterations: 1175 
   65400    615.57766    40202        21103        19099 3.1595965e-12 2.8484776e-12 3.1111893e-13 
number of iterations: 1885 
   65500    616.83529    40286        21150        19136 3.1653844e-12 2.8536343e-12 3.1175009e-13 
number of iterations: 1979 
   65600    618.17453    40361        21188        19173 3.1711568e-12 2.8587975e-12 3.1235935e-13 
number of iterations: 1651 
   65700    619.39859    40432        21223        19209 3.1768712e-12 2.8639629e-12 3.1290827e-13 
number of iterations: 1712 
   65800    620.61106    40499        21259        19240 3.1825486e-12 2.8691323e-12 3.134163e-13 
number of iterations: 1906 
   65900    621.89723    40571        21294        19277 3.1883246e-12 2.8743063e-12 3.1401824e-13 
number of iterations: 1570 
   66000     623.1166    40646        21326        19320 3.1941858e-12 2.8794843e-12 3.1470158e-13 
number of iterations: 1590 
   66100    624.33899    40713        21359        19354 3.1998922e-12 2.8846653e-12 3.1522688e-13 
number of iterations: 1544 
   66200    625.51534    40811        21413        19398 3.205742e-12 2.8898492e-12 3.1589286e-13 
number of iterations: 1827 
   66300    626.95352    40875        21447        19428 3.2114439e-12 2.8950374e-12 3.164065e-13 
number of iterations: 1786 
   66400    628.21683    40950        21491        19459 3.2171658e-12 2.9002289e-12 3.1693687e-13 
number of iterations: 1789 
   66500    629.52108    41034        21525        19509 3.2231676e-12 2.9054264e-12 3.1774117e-13 
number of iterations: 1404 
   66600    630.64261    41109        21570        19539 3.2288964e-12 2.9106244e-12 3.1827196e-13 
number of iterations: 1871 
   66700    631.92727    41172        21605        19567 3.2345606e-12 2.9158287e-12 3.1873191e-13 
number of iterations: 1645 
   66800    633.06272    41243        21633        19610 3.2404813e-12 2.9210365e-12 3.1944478e-13 
number of iterations: 1605 
   66900    634.17859    41320        21679        19641 3.246182e-12 2.926247e-12 3.1993502e-13 
number of iterations: 1819 
   67000    635.40243    41387        21706        19681 3.2520336e-12 2.9314612e-12 3.2057239e-13 
number of iterations: 1388 
   67100    636.41225    41470        21749        19721 3.2578599e-12 2.9366772e-12 3.2118271e-13 
number of iterations: 1673 
   67200    637.66298    41556        21798        19758 3.2636809e-12 2.9418976e-12 3.2178328e-13 
number of iterations: 1701 
   67300    638.87679    41629        21835        19794 3.2694801e-12 2.9471213e-12 3.2235874e-13 
number of iterations: 1432 
   67400    640.02791    41713        21873        19840 3.2754738e-12 2.9523472e-12 3.2312662e-13 
number of iterations: 1879 
   67500     641.2904    41804        21923        19881 3.2813402e-12 2.9575794e-12 3.2376087e-13 
number of iterations: 1697 
   67600    642.47287    41866        21964        19902 3.2869272e-12 2.9628159e-12 3.2411121e-13 
number of iterations: 1771 
   67700    643.67724    41936        22000        19936 3.2927349e-12 2.9680566e-12 3.2467832e-13 
number of iterations: 1553 
   67800    644.77772    42016        22039        19977 3.2986601e-12 2.9732994e-12 3.2536077e-13 
number of iterations: 1531 
   67900    645.86875    42071        22068        20003 3.3043183e-12 2.9785457e-12 3.2577263e-13 
number of iterations: 1813 
   68000    647.09973    42142        22112        20030 3.3100281e-12 2.9837967e-12 3.2623143e-13 
number of iterations: 1943 
   68100     648.3957    42228        22158        20070 3.315889e-12 2.9890542e-12 3.2683478e-13 
number of iterations: 1850 
   68200    649.66053    42297        22199        20098 3.3215767e-12 2.9943143e-12 3.2726237e-13 
number of iterations: 1811 
   68300    650.88165    42375        22238        20137 3.3275073e-12 2.9995788e-12 3.2792846e-13 
number of iterations: 1565 
   68400    652.00902    42434        22272        20162 3.3331311e-12 3.004847e-12 3.2828407e-13 
number of iterations: 2004 
   68500    653.33527    42501        22310        20191 3.3389162e-12 3.0101206e-12 3.287956e-13 
number of iterations: 1760 
   68600     654.5394    42567        22344        20223 3.3447173e-12 3.0153984e-12 3.2931892e-13 
number of iterations: 1359 
   68700    655.54449    42650        22384        20266 3.350697e-12 3.0206787e-12 3.3001835e-13 
number of iterations: 1449 
   68800    656.59857    42730        22426        20304 3.3565989e-12 3.0259614e-12 3.3063746e-13 
number of iterations: 1965 
   68900    657.91291    42797        22457        20340 3.3624676e-12 3.0312511e-12 3.3121656e-13 
number of iterations: 1634 
   69000    659.05882    42877        22500        20377 3.3683013e-12 3.0365438e-12 3.3175752e-13 
number of iterations: 1731 
   69100     660.2633    42945        22541        20404 3.374049e-12 3.0418397e-12 3.3220921e-13 
number of iterations: 1877 
   69200    661.53448    43014        22573        20441 3.3799479e-12 3.0471405e-12 3.3280736e-13 
number of iterations: 1597 
   69300    662.68048    43075        22606        20469 3.3856709e-12 3.0524446e-12 3.3322627e-13 
number of iterations: 1327 
   69400    663.67647    43164        22639        20525 3.3918219e-12 3.0577508e-12 3.3407109e-13 
number of iterations: 1948 
   69500    664.98797    43248        22686        20562 3.3977734e-12 3.0630641e-12 3.3470931e-13 
number of iterations: 1741 
   69600    666.19403    43327        22725        20602 3.4036923e-12 3.0683814e-12 3.3531081e-13 
number of iterations: 1597 
   69700    667.32686    43404        22766        20638 3.4095653e-12 3.0737011e-12 3.3586421e-13 
number of iterations: 1691 
   69800    668.50868    43492        22817        20675 3.4155111e-12 3.0790253e-12 3.3648581e-13 
number of iterations: 1919 
   69900    669.81527    43572        22861        20711 3.4214176e-12 3.0843549e-12 3.3706268e-13 
number of iterations: 1505 
   70000    670.90818    43640        22897        20743 3.4272631e-12 3.0896878e-12 3.3757524e-13 
number of iterations: 1869 
   70100    672.20363    43717        22939        20778 3.4331956e-12 3.0950247e-12 3.3817087e-13 
number of iterations: 1619 
   70200     673.3571    43791        22979        20812 3.4390651e-12 3.100364e-12 3.3870115e-13 
number of iterations: 1777 
   70300    674.58845    43870        23014        20856 3.4451277e-12 3.1057079e-12 3.3941979e-13 
number of iterations: 1817 
   70400    675.84163    43946        23047        20899 3.4511909e-12 3.1110574e-12 3.401335e-13 
number of iterations: 1437 
   70500    676.90358    44013        23087        20926 3.4569802e-12 3.1164084e-12 3.4057181e-13 
number of iterations: 1342 
   70600    677.92261    44099        23133        20966 3.4629848e-12 3.121761e-12 3.4122382e-13 
number of iterations: 1780 
   70700    679.15811    44169        23169        21000 3.4688695e-12 3.1271186e-12 3.4175087e-13 
number of iterations: 1844 
   70800    680.46877    44253        23217        21036 3.4748499e-12 3.1324821e-12 3.4236783e-13 
number of iterations: 1781 
   70900     681.7097    44312        23249        21063 3.4806853e-12 3.1378495e-12 3.4283577e-13 
number of iterations: 1822 
   71000    682.97689    44397        23291        21106 3.4867521e-12 3.1432211e-12 3.4353096e-13 
number of iterations: 1814 
   71100    684.23411    44469        23336        21133 3.4925769e-12 3.1485975e-12 3.4397936e-13 
number of iterations: 1954 
   71200    685.55103    44550        23382        21168 3.4985428e-12 3.1539791e-12 3.4456371e-13 
number of iterations: 2381 
   71300    687.08041    44621        23413        21208 3.504581e-12 3.1593697e-12 3.4521123e-13 
number of iterations: 2120 
   71400     688.4877    44684        23446        21238 3.5104732e-12 3.1647661e-12 3.4570711e-13 
number of iterations: 1537 
   71500     689.6772    44759        23486        21273 3.5164148e-12 3.1701645e-12 3.4625026e-13 
number of iterations: 1698 
   71600    690.86666    44844        23534        21310 3.5224299e-12 3.1755675e-12 3.4686239e-13 
number of iterations: 1541 
   71700     692.0143    44916        23567        21349 3.5285032e-12 3.1809734e-12 3.4752979e-13 
number of iterations: 1848 
   71800    693.28878    44995        23604        21391 3.5346086e-12 3.1863859e-12 3.4822263e-13 
number of iterations: 1587 
   71900     694.4358    45064        23640        21424 3.5405495e-12 3.1918004e-12 3.4874915e-13 
number of iterations: 1726 
   72000    695.65244    45147        23689        21458 3.5465685e-12 3.1972185e-12 3.4934998e-13 
number of iterations: 2218 
   72100    697.13392    45227        23729        21498 3.5526312e-12 3.2026453e-12 3.4998597e-13 
number of iterations: 1912 
   72200    698.43226    45308        23774        21534 3.5586269e-12 3.2080767e-12 3.5055017e-13 
number of iterations: 1595 
   72300    699.58697    45379        23819        21560 3.5645052e-12 3.2135107e-12 3.5099451e-13 
number of iterations: 2028 
   72400    700.95656    45449        23856        21593 3.5704919e-12 3.2189503e-12 3.5154156e-13 
number of iterations: 1319 
   72500    701.98079    45521        23900        21621 3.5764067e-12 3.2243907e-12 3.5201598e-13 
number of iterations: 1457 
   72600    703.07213    45594        23940        21654 3.5823906e-12 3.2298345e-12 3.525561e-13 
number of iterations: 1220 
   72700    704.03627    45681        23993        21688 3.5883716e-12 3.2352797e-12 3.5309182e-13 
number of iterations: 1830 
   72800    705.30825    45763        24042        21721 3.5943992e-12 3.2407312e-12 3.5366803e-13 
number of iterations: 1545 
   72900    706.43827    45854        24085        21769 3.600606e-12 3.2461859e-12 3.5442014e-13 
number of iterations: 1923 
   73000    707.75988    45923        24127        21796 3.6064975e-12 3.2516471e-12 3.5485046e-13 
number of iterations: 1813 
   73100    709.03136    46005        24164        21841 3.6127249e-12 3.2571123e-12 3.556126e-13 
number of iterations: 1876 
   73200    710.34134    46088        24203        21885 3.6189175e-12 3.2625836e-12 3.5633399e-13 
number of iterations: 1664 
   73300    711.53513    46169        24246        21923 3.6250443e-12 3.2680587e-12 3.5698565e-13 
number of iterations: 1588 
   73400    712.70972    46245        24290        21955 3.6310501e-12 3.2735367e-12 3.5751337e-13 
number of iterations: 1988 
   73500    714.06787    46309        24321        21988 3.637041e-12 3.279021e-12 3.5801997e-13 
number of iterations: 2026 
   73600    715.44363    46380        24356        22024 3.6430907e-12 3.284512e-12 3.585787e-13 
number of iterations: 1714 
   73700    716.67729    46446        24392        22054 3.6491055e-12 3.290006e-12 3.5909942e-13 
number of iterations: 1758 
   73800    717.92533    46514        24421        22093 3.6552291e-12 3.295504e-12 3.5972512e-13 
number of iterations: 1669 
   73900    719.14932    46589        24462        22127 3.661318e-12 3.3010056e-12 3.6031245e-13 
number of iterations: 1430 
   74000    720.25116    46675        24500        22175 3.6675988e-12 3.3065102e-12 3.6108857e-13 
number of iterations: 1762 
   74100    721.50066    46751        24536        22215 3.6737617e-12 3.3120198e-12 3.6174189e-13 
number of iterations: 1782 
   74200    722.78051    46829        24582        22247 3.6798306e-12 3.3175333e-12 3.6229732e-13 
number of iterations: 2354 
   74300    724.33209    46902        24619        22283 3.6859493e-12 3.3230569e-12 3.6289241e-13 
number of iterations: 1602 
   74400    725.51099    46985        24659        22326 3.6922025e-12 3.3285811e-12 3.6362145e-13 
number of iterations: 1973 
   74500    726.87767    47059        24694        22365 3.6983435e-12 3.3341124e-12 3.6423109e-13 
number of iterations: 1802 
   74600    728.14951    47143        24746        22397 3.7043845e-12 3.3396494e-12 3.647351e-13 
number of iterations: 1559 
   74700    729.31257    47205        24788        22417 3.7102384e-12 3.3451896e-12 3.6504881e-13 
number of iterations: 1660 
   74800    730.51854    47278        24823        22455 3.7164086e-12 3.3507328e-12 3.6567582e-13 
number of iterations: 1580 
   74900    731.70087    47355        24867        22488 3.722509e-12 3.3562802e-12 3.6622887e-13 
number of iterations: 1619 
   75000    732.90533    47438        24909        22529 3.7287149e-12 3.361832e-12 3.6688292e-13 
number of iterations: 1476 
   75100    734.02984    47526        24959        22567 3.7348593e-12 3.3673851e-12 3.6747414e-13 
number of iterations: 1693 
   75200    735.26014    47615        24994        22621 3.7412656e-12 3.3729439e-12 3.6832175e-13 
number of iterations: 1792 
   75300     736.5448    47706        25036        22670 3.7476091e-12 3.3785083e-12 3.6910078e-13 
number of iterations: 2024 
   75400    737.94233    47788        25079        22709 3.753836e-12 3.3840792e-12 3.6975679e-13 
number of iterations: 1787 
   75500    739.23534    47874        25123        22751 3.7601064e-12 3.389654e-12 3.7045237e-13 
number of iterations: 1902 
   75600    740.62622    47945        25161        22784 3.7661889e-12 3.3952353e-12 3.7095356e-13 
number of iterations: 2009 
   75700    742.00849    48025        25206        22819 3.7723492e-12 3.4008224e-12 3.7152676e-13 
number of iterations: 1840 
   75800    743.31273    48095        25232        22863 3.7786076e-12 3.4064146e-12 3.7219298e-13 
number of iterations: 1867 
   75900    744.64442    48214        25287        22927 3.7852402e-12 3.4120116e-12 3.7322852e-13 
number of iterations: 1789 
   76000    745.93723    48298        25325        22973 3.7915617e-12 3.4176136e-12 3.7394805e-13 
number of iterations: 1630 
   76100    747.14423    48380        25360        23020 3.797887e-12 3.4232194e-12 3.7466761e-13 
number of iterations: 1662 
   76200    748.36875    48481        25420        23061 3.8041512e-12 3.4288287e-12 3.7532241e-13 
number of iterations: 1660 
   76300    749.62049    48543        25450        23093  3.81029e-12 3.4344421e-12 3.7584786e-13 
number of iterations: 1709 
   76400    750.87478    48632        25497        23135 3.8166031e-12 3.4400597e-12 3.7654341e-13 
number of iterations: 1998 
   76500    752.28572    48698        25529        23169 3.8227602e-12 3.4456843e-12 3.7707591e-13 
number of iterations: 1723 
   76600    753.54422    48778        25569        23209 3.829042e-12 3.4513133e-12 3.7772875e-13 
number of iterations: 1891 
   76700    754.88585    48862        25618        23244 3.835274e-12 3.456948e-12 3.7832605e-13 
number of iterations: 2079 
   76800    756.32125    48958        25673        23285 3.8415628e-12 3.4625901e-12 3.789727e-13 
number of iterations: 1635 
   76900     757.5411    49037        25705        23332 3.8479977e-12 3.4682347e-12 3.7976304e-13 
number of iterations: 1792 
   77000    758.83807    49109        25743        23366 3.8541943e-12 3.4738847e-12 3.8030951e-13 
number of iterations: 1854 
   77100    760.17245    49186        25792        23394 3.8603053e-12 3.4795403e-12 3.8076499e-13 
number of iterations: 1986 
   77200    761.56904    49256        25833        23423 3.8664623e-12 3.4852011e-12 3.8126122e-13 
number of iterations: 1687 
   77300    762.83076    49328        25876        23452 3.8725743e-12 3.4908651e-12 3.8170912e-13 
number of iterations: 1532 
   77400    764.00568    49426        25919        23507 3.8790981e-12 3.4965334e-12 3.8256472e-13 
number of iterations: 1755 
   77500    765.29474    49494        25953        23541 3.8853278e-12 3.5022064e-12 3.8312142e-13 
number of iterations: 1792 
   77600    766.59777    49576        25997        23579 3.8916376e-12 3.5078842e-12 3.8375342e-13 
number of iterations: 1853 
   77700    767.93749    49646        26029        23617 3.8979644e-12 3.5135679e-12 3.8439648e-13 
number of iterations: 1838 
   77800    769.26582    49706        26061        23645 3.9041225e-12 3.5192561e-12 3.8486638e-13 
number of iterations: 2027 
   77900    770.70027    49788        26103        23685 3.9104505e-12 3.5249512e-12 3.8549933e-13 
number of iterations: 1627 
   78000    771.92052    49863        26142        23721 3.9166994e-12 3.5306506e-12 3.8604876e-13 
number of iterations: 1753 
   78100    773.22602    49939        26185        23754 3.9229657e-12 3.5363552e-12 3.8661052e-13 
number of iterations: 1707 
   78200    774.49276    50017        26221        23796 3.9293805e-12 3.5420643e-12 3.8731623e-13 
number of iterations: 1837 
   78300    775.82953    50090        26263        23827 3.9356137e-12 3.5477791e-12 3.878346e-13 
number of iterations: 1460 
   78400    776.97752    50175        26311        23864 3.9419496e-12 3.5534962e-12 3.8845343e-13 
number of iterations: 1795 
   78500    778.29521    50240        26357        23883 3.947979e-12 3.5592194e-12 3.8875954e-13 
number of iterations: 1688 
   78600    779.54666    50316        26404        23912 3.9541454e-12 3.5649459e-12 3.8919952e-13 
number of iterations: 1785 
   78700    780.86673    50417        26448        23969 3.9607839e-12 3.5706763e-12 3.9010762e-13 
number of iterations: 1826 
   78800    782.21719    50486        26484        24002 3.9670583e-12 3.5764124e-12 3.9064592e-13 
number of iterations: 1858 
   78900    783.57935    50563        26526        24037 3.9733308e-12 3.5821542e-12 3.9117657e-13 
number of iterations: 1814 
   79000      784.916    50672        26592        24080 3.9797583e-12 3.5879015e-12 3.9185683e-13 
number of iterations: 1971 
   79100    786.33846    50764        26632        24132 3.986331e-12 3.593656e-12 3.9267496e-13 
number of iterations: 1929 
   79200    787.73506    50847        26679        24168 3.9926934e-12 3.5994151e-12 3.9327837e-13 
number of iterations: 1994 
   79300    789.16694    50941        26715        24226 3.9994063e-12 3.6051817e-12 3.942246e-13 
number of iterations: 1595 
   79400    790.39452    51023        26752        24271 4.0058875e-12 3.6109509e-12 3.9493658e-13 
number of iterations: 1839 
   79500     791.7775    51109        26790        24319 4.0124432e-12 3.6167255e-12 3.9571773e-13 
number of iterations: 1717 
   79600    793.08399    51189        26835        24354 4.018749e-12 3.6225048e-12 3.9624421e-13 
number of iterations: 1649 
   79700    794.34517    51267        26875        24392 4.0251284e-12 3.628289e-12 3.9683937e-13 
number of iterations: 1899 
   79800    795.81493    51341        26919        24422 4.0314042e-12 3.6340797e-12 3.9732456e-13 
number of iterations: 2153 
   79900    797.48024    51428        26973        24455 4.0377412e-12 3.6398764e-12 3.9786473e-13 
number of iterations: 1545 
   80000    798.89344    51506        27014        24492 4.0441406e-12 3.6456761e-12 3.9846446e-13 
Loop time of 798.893 on 4 procs for 80000 steps with 51506 atoms

Performance: 86519672.599 tau/day, 100.139 timesteps/s
99.9% CPU use with 4 MPI tasks x no OpenMP threads

MPI task timing breakdown:
Section |  min time  |  avg time  |  max time  |%varavg| %total
---------------------------------------------------------------
Pair    | 56.163     | 60.692     | 65.408     |  53.7 |  7.60
Neigh   | 10.923     | 11.717     | 12.704     |  21.2 |  1.47
Comm    | 12.598     | 12.872     | 13.389     |   8.8 |  1.61
Output  | 0.25588    | 0.38523    | 0.52214    |  18.2 |  0.05
Modify  | 696.77     | 697.79     | 698.6      |   3.1 | 87.34
Other   |            | 15.44      |            |       |  1.93

Nlocal:    12876.5 ave 13934 max 12040 min
Histogram: 1 1 0 0 0 1 0 0 0 1
Nghost:    1884.75 ave 2228 max 1644 min
Histogram: 2 0 0 0 0 1 0 0 0 1
Neighs:    74312 ave 81482 max 69299 min
Histogram: 1 1 0 0 1 0 0 0 0 1

Total # of neighbors = 297248
Ave neighs/atom = 5.77113
Neighbor list builds = 2207
Dangerous builds = 0


Total wall time: 0:13:18
