/*--------------------------------*- C++ -*----------------------------------*\
| =========                 |                                                 |
| \\      /  F ield         | OpenFOAM: The Open Source CFD Toolbox           |
|  \\    /   O peration     | Version:  2.3.0                                 |
|   \\  /    A nd           | Web:      www.OpenFOAM.org                      |
|    \\/     M anipulation  |                                                 |
\*---------------------------------------------------------------------------*/
FoamFile
{
    version     2.0;
    format      ascii;
    class       Cloud<softParticle>;
    location    "0.0002/lagrangian/defaultCloud";
    object      positions;
}
// * * * * * * * * * * * * * * * * * * * * * * * * * * * * * * * * * * * * * //

20
(
(5e-05 5e-05 5e-06) 44
(5.2e-05 5e-05 5e-06) 45
(5.4e-05 5e-05 5e-06) 45
(5.6e-05 5e-05 5e-06) 45
(5.8e-05 5e-05 5e-06) 45
(6e-05 5e-05 5e-06) 45
(6.2e-05 5e-05 5e-06) 46
(6.4e-05 5e-05 5e-06) 46
(6.6e-05 5e-05 5e-06) 46
(6.8e-05 5e-05 5e-06) 46
(7e-05 5e-05 5e-06) 46
(7.2e-05 5e-05 5e-06) 47
(7.4e-05 5e-05 5e-06) 47
(7.6e-05 5e-05 5e-06) 47
(7.8e-05 5e-05 5e-06) 47
(8e-05 5e-05 5e-06) 47
(8.2e-05 5e-05 5e-06) 48
(8.4e-05 5e-05 5e-06) 48
(8.6e-05 5e-05 5e-06) 48
(8.8e-05 5e-05 5e-06) 48
)


// ************************************************************************* //
