/*--------------------------------*- C++ -*----------------------------------*\
| =========                 |                                                 |
| \\      /  F ield         | OpenFOAM: The Open Source CFD Toolbox           |
|  \\    /   O peration     | Version:  2.3.0                                 |
|   \\  /    A nd           | Web:      www.OpenFOAM.org                      |
|    \\/     M anipulation  |                                                 |
\*---------------------------------------------------------------------------*/
FoamFile
{
    version     2.0;
    format      ascii;
    class       vectorField;
    location    "0.0002/lagrangian/defaultCloud";
    object      U;
}
// * * * * * * * * * * * * * * * * * * * * * * * * * * * * * * * * * * * * * //


20
(
(0.98533 0.17066 0)
(0.985488 0.169747 0)
(0.985332 0.170646 0)
(0.985332 0.170646 0)
(0.985332 0.170646 0)
(0.875344 0.483501 0)
(0.876031 0.482254 0)
(0.87535 0.48349 0)
(0.87535 0.48349 0)
(0.876031 0.482254 0)
(0.87535 0.48349 0)
(0.690375 0.723452 0)
(0.690375 0.723452 0)
(0.691341 0.722529 0)
(0.691341 0.722529 0)
(0.494148 0.869378 0)
(0.494156 0.869373 0)
(0.487861 0.872921 0)
(0.487861 0.872921 0)
(0.494156 0.869373 0)
)


// ************************************************************************* //
