LAMMPS (5 Nov 2016)
# NUFEB simulation

atom_style	bio
atom_modify	map array sort 100 5.0e-7
boundary	ff ff ff
newton		off
processors  4 1 1

comm_modify	vel yes
read_data_bio atom.in
  orthogonal box = (0 0 0) to (0.0001 4e-05 0.0001)
  4 by 1 by 1 MPI processor grid
  reading atoms ...
  44 atoms
  5 nutrients

group HET type 1
40 atoms in group HET
group AOB type 2
1 atoms in group AOB
group NOB type 3
1 atoms in group NOB
group EPS type 4
1 atoms in group EPS
group DEAD type 5
1 atoms in group DEAD

neighbor	5e-7 bin
neigh_modify	delay 0 one 5000

##############Define DEM Variables&Commands##############

pair_style  gran/hooke/history 1.e-4 NULL 1.e-5 NULL 0.0 1
pair_coeff  * *

timestep 10

fix 1 all nve/limit 1e-8
fix fv all viscous 1e-5

fix xw all wall/gran hooke/history 2000 NULL 500.0 NULL 1.5 0 xplane  0.0   1.0e-04
fix yw all wall/gran hooke/history 2000 NULL 500.0 NULL 1.5 0 yplane  0.0   4.0e-05
fix zw all wall/gran hooke/history 2000 NULL 500.0 NULL 1.5 0 zplane  0.0   1.0e-04

variable kanc equal 50

fix xwa all walladh v_kanc xplane  0.0   1.0e-04
fix ywa all walladh v_kanc yplane  0.0   4.0e-05
fix zwa all walladh v_kanc zplane  0.0   1.0e-04

variable ke equal 5e+10
fix j1 all epsadh 1 v_ke 1

##############Define IBm Variables##############

#variables used in fix eps_extract
variable EPSdens equal 30
variable EPSratio equal 1.25

#variables used in fix division
variable divDia equal 1.36e-6

#variables used in fix kinetics
variable diffT equal 1e-4
variable tol equal 1e-6
variable etaHET equal 0.6
variable layer equal -1

#variables used in fix death
variable deadDia equal 9e-7


##############Define IBm Commands##############

fix k1 all kinetics 100 30 12 30 v_diffT v_layer niter 10000
fix kgm all kinetics/growth/monod v_EPSdens v_etaHET
fix g1 all kinetics/diffusion v_tol pp pp nd kg
fix d1 all divide 100 v_EPSdens v_divDia 978595
fix e1 HET eps_extract 100 v_EPSratio v_EPSdens 6274
fix d5 all death 100 v_deadDia

##############Define IBm Computes##############

compute myNtypes all ntypes

##############Simulation Output##############

#dump		id all custom 1000 snapshot.bubblemd id type diameter x y z
#dump		du1 all custom/vtk 1000 atom%_*.vtu id type diameter x y z
#dump		du2 all grid 100 grid_%_*.vti con
dump            du3 all bio 100 con bulk
thermo_style    custom step cpu atoms biomass c_myNtypes[*]
thermo		100
thermo_modify	lost ignore

run 40000
Neighbor list info ...
  3 neighbor list requests
  update every 1 steps, delay 0 steps, check yes
  max neighbors/atom: 5000, page size: 100000
  master list distance cutoff = 1.5e-06
  ghost atom cutoff = 1.5e-06
  binsize = 7.5e-07 -> bins = 134 54 134
Memory usage per processor = 3.89758 Mbytes
Step CPU Atoms biomass c_myNtypes[1] c_myNtypes[2] c_myNtypes[3] c_myNtypes[4] c_myNtypes[5] c_myNtypes[6] 
       0            0       44 3.141593e-15            0           40            1            1            1            1 
number of iterations: 10000 
     100     3.599791       44 4.4797211e-15            0           40            0            0            1            3 
number of iterations: 10000 
     200    6.9844382       44 6.2916782e-15            0           40            0            0            1            3 
number of iterations: 10000 
     300    10.303585       84 9.3198226e-15            0           40            0            0           41            3 
number of iterations: 10000 
     400     13.71455      148 1.2440032e-14            0           80            0            0           65            3 
number of iterations: 10000 
     500     17.17387      204 1.6597637e-14            0           80            0            0          121            3 
number of iterations: 10000 
     600    20.511992      262  2.06172e-14            0           96            0            0          163            3 
number of iterations: 10000 
     700    24.039888      412 2.5096256e-14            0          154            0            0          255            3 
number of iterations: 10000 
     800     27.40265      434 2.8683731e-14            0          160            0            0          271            3 
number of iterations: 10000 
     900    30.757826      496 3.2863792e-14            0          168            0            0          325            3 
number of iterations: 10000 
    1000    34.178706      590 3.715338e-14            0          198            0            0          389            3 
number of iterations: 10000 
    1100     37.54423      704 4.1426994e-14            0          246            0            0          455            3 
number of iterations: 10000 
    1200    40.825597      750 4.5201119e-14            0          266            0            0          481            3 
number of iterations: 10000 
    1300    44.137697      828 4.9364111e-14            0          290            0            0          535            3 
number of iterations: 10000 
    1400    47.427585      898 5.3373798e-14            0          322            0            0          573            3 
number of iterations: 9280 
    1500    50.479898      968 5.7751655e-14            0          330            0            0          635            3 
number of iterations: 8167 
    1600    53.219172     1040 6.1874576e-14            0          358            0            0          679            3 
number of iterations: 8414 
    1700    55.994364     1127 6.6344551e-14            0          379            0            0          745            3 
number of iterations: 7168 
    1800    58.363176     1211 7.0684616e-14            0          402            0            0          806            3 
number of iterations: 7109 
    1900    60.726965     1276 7.4701984e-14            0          433            0            0          840            3 
number of iterations: 7427 
    2000    63.403312     1343 7.8701373e-14            0          464            0            0          876            3 
number of iterations: 6569 
    2100    65.582685     1411 8.2807053e-14            0          488            0            0          920            3 
number of iterations: 6058 
    2200    67.593936     1492 8.6986146e-14            0          519            0            0          970            3 
number of iterations: 6295 
    2300    69.692047     1576 9.1329877e-14            0          548            0            0         1025            3 
number of iterations: 5665 
    2400    71.563367     1654 9.5552265e-14            0          574            0            0         1077            3 
number of iterations: 5863 
    2500    73.552848     1725 9.9744675e-14            0          596            0            0         1126            3 
number of iterations: 4376 
    2600    75.077142     1809 1.0386972e-13            0          637            0            0         1169            3 
number of iterations: 4119 
    2700    76.590094     1898 1.0821755e-13            0          660            0            0         1235            3 
number of iterations: 5020 
    2800    78.439066     1973 1.1240071e-13            0          684            0            0         1286            3 
number of iterations: 4257 
    2900    79.867967     2038 1.1648106e-13            0          703            0            0         1332            3 
number of iterations: 4447 
    3000    81.362693     2110 1.2052661e-13            0          733            0            0         1374            3 
number of iterations: 3781 
    3100    82.641334     2198 1.2494608e-13            0          752            0            0         1443            3 
number of iterations: 4380 
    3200    84.138128     2282 1.2929819e-13            0          770            0            0         1509            3 
number of iterations: 3361 
    3300    85.571576     2372 1.3358396e-13            0          800            0            0         1569            3 
number of iterations: 3288 
    3400    86.718542     2463 1.3785085e-13            0          830            0            0         1630            3 
number of iterations: 3580 
    3500    88.002224     2551 1.4212511e-13            0          857            0            0         1691            3 
number of iterations: 3699 
    3600      89.3306     2627 1.4618301e-13            0          887            0            0         1737            3 
number of iterations: 3476 
    3700    90.539591     2694 1.5021119e-13            0          910            0            0         1781            3 
number of iterations: 3195 
    3800    91.645165     2767 1.5421481e-13            0          939            0            0         1825            3 
number of iterations: 2696 
    3900     92.56094     2860 1.5847884e-13            0          969            0            0         1888            3 
number of iterations: 3332 
    4000    93.694746     2936 1.6255154e-13            0          996            0            0         1937            3 
number of iterations: 3326 
    4100    94.874267     3008 1.666471e-13            0         1017            0            0         1988            3 
number of iterations: 2888 
    4200     95.87672     3083 1.7083069e-13            0         1037            0            0         2043            3 
number of iterations: 2741 
    4300    96.806374     3162 1.7498265e-13            0         1061            0            0         2098            3 
number of iterations: 2795 
    4400    97.766913     3243 1.7903249e-13            0         1092            0            0         2148            3 
number of iterations: 2691 
    4500    98.703801     3315 1.8305292e-13            0         1115            0            0         2197            3 
number of iterations: 2457 
    4600    99.548855     3403 1.873227e-13            0         1133            0            0         2267            3 
number of iterations: 3045 
    4700    100.58118     3484 1.9131394e-13            0         1167            0            0         2314            3 
number of iterations: 2644 
    4800    101.48894     3563 1.9544184e-13            0         1188            0            0         2372            3 
number of iterations: 2380 
    4900    102.32796     3641 1.9944624e-13            0         1216            0            0         2422            3 
number of iterations: 2751 
    5000    103.32184     3709 2.034291e-13            0         1238            0            0         2468            3 
number of iterations: 2818 
    5100    104.28888     3783 2.0742981e-13            0         1263            0            0         2517            3 
number of iterations: 2284 
    5200    105.08427     3863 2.1136427e-13            0         1298            0            0         2562            3 
number of iterations: 2607 
    5300    105.98817     3946 2.1527601e-13            0         1332            0            0         2611            3 
number of iterations: 2694 
    5400    106.91259     4021 2.1923888e-13            0         1354            0            0         2664            3 
number of iterations: 2528 
    5500    107.80118     4106 2.2336248e-13            0         1376            0            0         2727            3 
number of iterations: 2154 
    5600    108.55036     4194 2.2753854e-13            0         1395            0            0         2796            3 
number of iterations: 2058 
    5700    109.27317     4291 2.3178488e-13            0         1417            0            0         2871            3 
number of iterations: 1706 
    5800    109.90365     4368 2.3581647e-13            0         1437            0            0         2928            3 
number of iterations: 1908 
    5900    110.67224     4447 2.3978609e-13            0         1461            0            0         2983            3 
number of iterations: 1731 
    6000    111.33528     4522 2.4366062e-13            0         1487            0            0         3032            3 
number of iterations: 1775 
    6100    111.97518     4612 2.4774099e-13            0         1514            0            0         3095            3 
number of iterations: 2042 
    6200    112.71131     4700 2.5181069e-13            0         1534            0            0         3163            3 
number of iterations: 2277 
    6300    113.50119     4773 2.5571656e-13            0         1556            0            0         3214            3 
number of iterations: 1954 
    6400    114.19731     4848 2.5970507e-13            0         1573            0            0         3272            3 
number of iterations: 1963 
    6500    114.89426     4934 2.6366358e-13            0         1601            0            0         3330            3 
number of iterations: 1799 
    6600    115.53027     5001 2.6746809e-13            0         1622            0            0         3376            3 
number of iterations: 1549 
    6700    116.09017     5111 2.7170872e-13            0         1649            0            0         3459            3 
number of iterations: 1928 
    6800    116.77289     5214 2.7585372e-13            0         1674            0            0         3537            3 
number of iterations: 1729 
    6900    117.41659     5312 2.7988035e-13            0         1704            0            0         3605            3 
number of iterations: 2040 
    7000    118.13455     5390 2.8378614e-13            0         1723            0            0         3664            3 
number of iterations: 1927 
    7100    118.81436     5462 2.876117e-13            0         1742            0            0         3717            3 
number of iterations: 2072 
    7200    119.55534     5552 2.9145504e-13            0         1774            0            0         3775            3 
number of iterations: 2062 
    7300    120.28233     5638 2.9534125e-13            0         1797            0            0         3838            3 
number of iterations: 1942 
    7400    120.97113     5733 2.9927259e-13            0         1828            0            0         3902            3 
number of iterations: 1995 
    7500    121.67789     5815 3.0310835e-13            0         1853            0            0         3959            3 
number of iterations: 1593 
    7600    122.25293     5890 3.0688945e-13            0         1875            0            0         4012            3 
number of iterations: 1921 
    7700    122.93551     5967 3.1059562e-13            0         1904            0            0         4060            3 
number of iterations: 1961 
    7800    123.63099     6068 3.146689e-13            0         1926            0            0         4139            3 
number of iterations: 1607 
    7900    124.20522     6147 3.1848901e-13            0         1946            0            0         4198            3 
number of iterations: 1686 
    8000    124.81241     6222 3.2211897e-13            0         1973            0            0         4246            3 
number of iterations: 2079 
    8100    125.54769     6313 3.2592763e-13            0         2002            0            0         4308            3 
number of iterations: 1988 
    8200    126.25056     6406 3.2973015e-13            0         2031            0            0         4372            3 
number of iterations: 1709 
    8300    126.86537     6478 3.3340964e-13            0         2050            0            0         4425            3 
number of iterations: 952 
    8400     127.2317     6565 3.3718422e-13            0         2074            0            0         4488            3 
number of iterations: 1991 
    8500    127.93568     6648 3.4086099e-13            0         2102            0            0         4543            3 
number of iterations: 1889 
    8600    128.61178     6723 3.4449265e-13            0         2127            0            0         4593            3 
number of iterations: 2048 
    8700     129.3321     6813 3.4834188e-13            0         2147            0            0         4663            3 
number of iterations: 1406 
    8800    129.85251     6902 3.5211946e-13            0         2172            0            0         4727            3 
number of iterations: 1609 
    8900    130.43273     6983 3.5585279e-13            0         2190            0            0         4790            3 
number of iterations: 1976 
    9000    131.13377     7065 3.5957533e-13            0         2212            0            0         4850            3 
number of iterations: 1816 
    9100    131.78307     7146 3.6312687e-13            0         2241            0            0         4902            3 
number of iterations: 2249 
    9200    132.57685     7224 3.6681659e-13            0         2260            0            0         4961            3 
number of iterations: 1472 
    9300     133.1153     7309 3.7056831e-13            0         2279            0            0         5027            3 
number of iterations: 1769 
    9400    133.75332     7428 3.7468099e-13            0         2304            0            0         5121            3 
number of iterations: 1539 
    9500    134.31402     7493 3.782357e-13            0         2317            0            0         5173            3 
number of iterations: 1952 
    9600    135.01629     7590 3.8198971e-13            0         2347            0            0         5240            3 
number of iterations: 1971 
    9700    135.72357     7682 3.8569519e-13            0         2372            0            0         5307            3 
number of iterations: 1993 
    9800    136.44126     7766 3.8930886e-13            0         2398            0            0         5365            3 
number of iterations: 1870 
    9900    137.11739     7856 3.9308589e-13            0         2415            0            0         5438            3 
number of iterations: 1936 
   10000    137.81503     7938 3.9674229e-13            0         2431            0            0         5504            3 
number of iterations: 1790 
   10100    138.45932     8022 4.0043335e-13            0         2447            0            0         5572            3 
number of iterations: 1659 
   10200    139.06551     8117 4.041311e-13            0         2473            0            0         5641            3 
number of iterations: 1222 
   10300    139.52979     8203 4.0769891e-13            0         2501            0            0         5699            3 
number of iterations: 1960 
   10400     140.2332     8298 4.1149455e-13            0         2522            0            0         5773            3 
number of iterations: 1637 
   10500    140.84441     8377 4.1503261e-13            0         2545            0            0         5829            3 
number of iterations: 1709 
   10600    141.49711     8453 4.1851465e-13            0         2565            0            0         5885            3 
number of iterations: 1434 
   10700    142.06049     8539 4.2210819e-13            0         2587            0            0         5949            3 
number of iterations: 1304 
   10800     142.5601     8630 4.2578473e-13            0         2605            0            0         6022            3 
number of iterations: 1596 
   10900    143.14871     8710 4.2926437e-13            0         2628            0            0         6079            3 
number of iterations: 1697 
   11000    143.78132     8793 4.3282237e-13            0         2649            0            0         6141            3 
number of iterations: 1529 
   11100    144.36598     8877 4.3635907e-13            0         2668            0            0         6206            3 
number of iterations: 1826 
   11200    145.03666     8973 4.3996283e-13            0         2694            0            0         6276            3 
number of iterations: 2196 
   11300    145.85727     9052 4.4345693e-13            0         2714            0            0         6335            3 
number of iterations: 1395 
   11400    146.38874     9128 4.469912e-13            0         2727            0            0         6398            3 
number of iterations: 1868 
   11500    147.06437     9224 4.5056182e-13            0         2754            0            0         6467            3 
number of iterations: 1592 
   11600    147.67819     9301 4.540292e-13            0         2775            0            0         6523            3 
number of iterations: 1980 
   11700    148.40584     9400 4.5766623e-13            0         2799            0            0         6598            3 
number of iterations: 1510 
   11800    148.97921     9496 4.6128903e-13            0         2823            0            0         6670            3 
number of iterations: 1789 
   11900    149.64402     9579 4.647612e-13            0         2839            0            0         6737            3 
number of iterations: 2248 
   12000    150.46504     9683 4.6848538e-13            0         2860            0            0         6820            3 
number of iterations: 1680 
   12100    151.09173     9765 4.7200619e-13            0         2875            0            0         6887            3 
number of iterations: 1779 
   12200    151.75396     9839 4.753402e-13            0         2895            0            0         6941            3 
number of iterations: 1655 
   12300    152.36984     9911 4.7875028e-13            0         2909            0            0         6999            3 
number of iterations: 1743 
   12400    153.04989     9994 4.8223284e-13            0         2928            0            0         7063            3 
number of iterations: 2055 
   12500    153.89204    10087 4.8580054e-13            0         2947            0            0         7137            3 
number of iterations: 1687 
   12600    154.55722    10167 4.8917704e-13            0         2967            0            0         7197            3 
number of iterations: 1888 
   12700    155.25121    10267   4.9262e-13            0         2999            0            0         7265            3 
number of iterations: 1750 
   12800    156.12523    10350 4.9588983e-13            0         3028            0            0         7319            3 
number of iterations: 1940 
   12900    156.88173    10426 4.9918081e-13            0         3049            0            0         7374            3 
number of iterations: 2271 
   13000    157.70209    10517 5.0266351e-13            0         3072            0            0         7442            3 
number of iterations: 1390 
   13100     158.2396    10614 5.0628622e-13            0         3086            0            0         7525            3 
number of iterations: 2018 
   13200    158.99021    10699 5.0967822e-13            0         3108            0            0         7588            3 
number of iterations: 2047 
   13300    159.75371    10811 5.1329575e-13            0         3136            0            0         7672            3 
number of iterations: 1689 
   13400    160.38064    10914 5.1690341e-13            0         3155            0            0         7756            3 
number of iterations: 1766 
   13500    161.05751    11009 5.204429e-13            0         3173            0            0         7833            3 
number of iterations: 1904 
   13600    161.76322    11104 5.2394997e-13            0         3192            0            0         7909            3 
number of iterations: 1881 
   13700    162.45102    11202 5.2741662e-13            0         3214            0            0         7985            3 
number of iterations: 1666 
   13800    163.10873    11287 5.3079913e-13            0         3231            0            0         8053            3 
number of iterations: 2228 
   13900    163.96552    11397 5.3439558e-13            0         3252            0            0         8142            3 
number of iterations: 2227 
   14000    164.77519    11497 5.3792397e-13            0         3272            0            0         8222            3 
number of iterations: 1999 
   14100    165.50981    11601 5.4140274e-13            0         3303            0            0         8295            3 
number of iterations: 1832 
   14200    166.18849    11682 5.4473271e-13            0         3317            0            0         8362            3 
number of iterations: 2037 
   14300    166.93408    11770 5.4805832e-13            0         3338            0            0         8429            3 
number of iterations: 1840 
   14400    167.61379    11869 5.5156251e-13            0         3359            0            0         8507            3 
number of iterations: 1809 
   14500    168.29157    11984 5.5511797e-13            0         3387            0            0         8594            3 
number of iterations: 1766 
   14600    168.95142    12071 5.5838236e-13            0         3408            0            0         8660            3 
number of iterations: 2080 
   14700     169.7209    12183 5.6191977e-13            0         3430            0            0         8750            3 
number of iterations: 2108 
   14800    170.52936    12254 5.6508906e-13            0         3444            0            0         8807            3 
number of iterations: 1658 
   14900    171.15482    12365 5.6864748e-13            0         3465            0            0         8897            3 
number of iterations: 1977 
   15000    171.88845    12447 5.7190835e-13            0         3482            0            0         8962            3 
number of iterations: 2002 
   15100     172.6596    12545 5.7530546e-13            0         3503            0            0         9039            3 
number of iterations: 2028 
   15200    173.42651    12627 5.7846052e-13            0         3529            0            0         9095            3 
number of iterations: 1900 
   15300    174.14843    12733 5.8189207e-13            0         3553            0            0         9177            3 
number of iterations: 1934 
   15400    174.87448    12838 5.8529929e-13            0         3576            0            0         9259            3 
number of iterations: 1372 
   15500    175.41295    12928 5.8847548e-13            0         3601            0            0         9324            3 
number of iterations: 2366 
   15600    176.38805    13017 5.9172798e-13            0         3619            0            0         9395            3 
number of iterations: 1899 
   15700     177.1743    13114 5.9511399e-13            0         3635            0            0         9476            3 
number of iterations: 2044 
   15800    177.97309    13199 5.9827442e-13            0         3654            0            0         9542            3 
number of iterations: 2109 
   15900    178.79193    13297 6.0160659e-13            0         3672            0            0         9622            3 
number of iterations: 2739 
   16000    179.83102    13393 6.0475027e-13            0         3700            0            0         9690            3 
number of iterations: 2204 
   16100     180.7136    13511 6.0822811e-13            0         3729            0            0         9779            3 
number of iterations: 2156 
   16200    181.65244    13589 6.1129889e-13            0         3749            0            0         9837            3 
number of iterations: 2468 
   16300    182.67882    13694 6.1468226e-13            0         3768            0            0         9923            3 
number of iterations: 1819 
   16400    183.42864    13786 6.1796579e-13            0         3786            0            0         9997            3 
number of iterations: 1735 
   16500    184.18911    13870 6.2110297e-13            0         3808            0            0        10059            3 
number of iterations: 2149 
   16600    185.10744    13984 6.2470858e-13            0         3824            0            0        10157            3 
number of iterations: 1722 
   16700    185.84329    14079 6.279672e-13            0         3844            0            0        10232            3 
number of iterations: 2216 
   16800    187.02405    14178 6.3120373e-13            0         3869            0            0        10306            3 
number of iterations: 2317 
   16900    187.99452    14270 6.3443023e-13            0         3886            0            0        10381            3 
number of iterations: 2141 
   17000    188.82644    14360 6.3758407e-13            0         3909            0            0        10448            3 
number of iterations: 2423 
   17100    189.74237    14447 6.4068244e-13            0         3931            0            0        10513            3 
number of iterations: 2496 
   17200    190.67067    14541 6.4376281e-13            0         3959            0            0        10579            3 
number of iterations: 2179 
   17300    191.54888    14630 6.4686754e-13            0         3978            0            0        10649            3 
number of iterations: 2063 
   17400    192.39457    14718 6.5001267e-13            0         3992            0            0        10723            3 
number of iterations: 2060 
   17500    193.22617    14822 6.5348013e-13            0         4003            0            0        10816            3 
number of iterations: 2487 
   17600    194.13967    14913 6.5674037e-13            0         4017            0            0        10893            3 
number of iterations: 2781 
   17700    195.17964    15019 6.6001701e-13            0         4042            0            0        10974            3 
number of iterations: 2597 
   17800    196.14485    15112 6.6322247e-13            0         4060            0            0        11049            3 
number of iterations: 1921 
   17900    197.07394    15204 6.6637216e-13            0         4085            0            0        11116            3 
number of iterations: 2368 
   18000    198.04259    15303 6.6946404e-13            0         4112            0            0        11188            3 
number of iterations: 2509 
   18100    199.08046    15405 6.7259533e-13            0         4136            0            0        11266            3 
number of iterations: 1864 
   18200    199.96492    15501 6.7575818e-13            0         4158            0            0        11340            3 
number of iterations: 2496 
   18300    201.03511    15598 6.7893467e-13            0         4178            0            0        11417            3 
number of iterations: 2312 
   18400    202.04471    15706 6.8224858e-13            0         4199            0            0        11504            3 
number of iterations: 1945 
   18500    202.85354    15796 6.8526633e-13            0         4225            0            0        11568            3 
number of iterations: 2355 
   18600    203.77505    15881 6.8824692e-13            0         4250            0            0        11628            3 
number of iterations: 1568 
   18700    204.44747    15971 6.9128234e-13            0         4269            0            0        11699            3 
number of iterations: 2135 
   18800    205.26473    16067 6.9444832e-13            0         4285            0            0        11779            3 
number of iterations: 2120 
   18900    206.11071    16167 6.9759308e-13            0         4306            0            0        11858            3 
number of iterations: 2313 
   19000    207.01984    16279 7.008698e-13            0         4329            0            0        11947            3 
number of iterations: 2192 
   19100    207.91049    16387 7.0416241e-13            0         4349            0            0        12035            3 
number of iterations: 2104 
   19200    208.75661    16477 7.0724018e-13            0         4367            0            0        12107            3 
number of iterations: 2325 
   19300    209.65595    16577 7.1033847e-13            0         4387            0            0        12187            3 
number of iterations: 2106 
   19400     210.5156    16669 7.1339829e-13            0         4405            0            0        12261            3 
number of iterations: 2609 
   19500    211.51153    16766 7.1647216e-13            0         4422            0            0        12341            3 
number of iterations: 2192 
   19600    212.46556    16901 7.1995025e-13            0         4450            0            0        12448            3 
number of iterations: 2107 
   19700    213.32634    17007 7.2316697e-13            0         4470            0            0        12534            3 
number of iterations: 2806 
   19800    214.39427    17121 7.264714e-13            0         4491            0            0        12627            3 
number of iterations: 2603 
   19900     215.4139    17216 7.2952416e-13            0         4508            0            0        12705            3 
number of iterations: 1755 
   20000     216.1187    17319 7.3265289e-13            0         4529            0            0        12787            3 
number of iterations: 2658 
   20100    217.12243    17445 7.3606019e-13            0         4554            0            0        12888            3 
number of iterations: 1603 
   20200    217.84685    17539 7.3905588e-13            0         4575            0            0        12961            3 
number of iterations: 2755 
   20300    218.95106    17635 7.4204152e-13            0         4599            0            0        13033            3 
number of iterations: 2037 
   20400    219.76072    17746 7.4511784e-13            0         4628            0            0        13115            3 
number of iterations: 2263 
   20500    220.70646    17865 7.4834506e-13            0         4655            0            0        13207            3 
number of iterations: 2090 
   20600    221.54982    17956 7.5128779e-13            0         4672            0            0        13281            3 
number of iterations: 2060 
   20700    222.40212    18070 7.5445456e-13            0         4696            0            0        13371            3 
number of iterations: 2577 
   20800     223.4856    18173 7.5759364e-13            0         4713            0            0        13457            3 
number of iterations: 2172 
   20900     224.3872    18265 7.6060005e-13            0         4729            0            0        13533            3 
number of iterations: 1996 
   21000    225.17723    18364 7.6359274e-13            0         4750            0            0        13611            3 
number of iterations: 2886 
   21100    226.30998    18455 7.6658897e-13            0         4765            0            0        13687            3 
number of iterations: 2183 
   21200    227.17362    18567 7.6980624e-13            0         4780            0            0        13784            3 
number of iterations: 1867 
   21300    227.94948    18668 7.7279492e-13            0         4799            0            0        13866            3 
number of iterations: 1809 
   21400    228.69457    18771 7.7576696e-13            0         4823            0            0        13945            3 
number of iterations: 2434 
   21500    229.68894    18901 7.7902425e-13            0         4856            0            0        14042            3 
number of iterations: 2300 
   21600    230.62749    18999 7.8203231e-13            0         4875            0            0        14121            3 
number of iterations: 2506 
   21700    231.61566    19110 7.8523973e-13            0         4893            0            0        14214            3 
number of iterations: 2878 
   21800    232.79078    19219 7.8820499e-13            0         4922            0            0        14294            3 
number of iterations: 2461 
   21900    233.82141    19324 7.9118418e-13            0         4947            0            0        14374            3 
number of iterations: 2252 
   22000    234.77783    19432 7.9425996e-13            0         4968            0            0        14461            3 
number of iterations: 2394 
   22100    235.73648    19541 7.9733851e-13            0         4994            0            0        14544            3 
number of iterations: 2322 
   22200    236.69352    19637 8.0045916e-13            0         5007            0            0        14627            3 
number of iterations: 2351 
   22300     237.6176    19752 8.0351742e-13            0         5040            0            0        14709            3 
number of iterations: 2546 
   22400    238.64969    19861 8.0661257e-13            0         5060            0            0        14798            3 
number of iterations: 2213 
   22500    239.57128    19973 8.0969054e-13            0         5082            0            0        14888            3 
number of iterations: 2066 
   22600     240.4652    20085 8.1269056e-13            0         5110            0            0        14972            3 
number of iterations: 2475 
   22700    241.48837    20172 8.1542973e-13            0         5135            0            0        15034            3 
number of iterations: 2236 
   22800    242.56166    20282   8.1852e-13            0         5155            0            0        15124            3 
number of iterations: 2800 
   22900    243.83268    20390 8.2155419e-13            0         5175            0            0        15212            3 
number of iterations: 2385 
   23000    244.84515    20509 8.2466417e-13            0         5200            0            0        15306            3 
number of iterations: 2495 
   23100    245.83683    20617 8.2759976e-13            0         5229            0            0        15385            3 
number of iterations: 2656 
   23200    246.88805    20723 8.3048423e-13            0         5257            0            0        15463            3 
number of iterations: 2281 
   23300    247.89441    20840 8.3361205e-13            0         5278            0            0        15559            3 
number of iterations: 2367 
   23400    248.85472    20939 8.3652997e-13            0         5299            0            0        15637            3 
number of iterations: 2416 
   23500    249.83954    21052 8.396107e-13            0         5317            0            0        15732            3 
number of iterations: 2356 
   23600     250.8195    21149 8.4241351e-13            0         5341            0            0        15805            3 
number of iterations: 2089 
   23700    251.71172    21262 8.4545111e-13            0         5361            0            0        15898            3 
number of iterations: 2160 
   23800    252.64166    21370 8.4842973e-13            0         5383            0            0        15984            3 
number of iterations: 2594 
   23900    253.76296    21484 8.5135617e-13            0         5413            0            0        16068            3 
number of iterations: 2270 
   24000    254.69885    21601 8.5440532e-13            0         5436            0            0        16162            3 
number of iterations: 2053 
   24100    255.58605    21713 8.5737047e-13            0         5460            0            0        16250            3 
number of iterations: 2969 
   24200    256.78465    21831 8.6047509e-13            0         5482            0            0        16346            3 
number of iterations: 2863 
   24300    257.91482    21934 8.6337426e-13            0         5499            0            0        16432            3 
number of iterations: 2330 
   24400    258.87579    22065 8.6665758e-13            0         5524            0            0        16538            3 
number of iterations: 2307 
   24500     259.8458    22145 8.692844e-13            0         5545            0            0        16597            3 
number of iterations: 2518 
   24600    260.85736    22253 8.7235589e-13            0         5559            0            0        16691            3 
number of iterations: 2391 
   24700    261.84721    22371 8.7542294e-13            0         5582            0            0        16786            3 
number of iterations: 2403 
   24800    262.83516    22487 8.7845657e-13            0         5604            0            0        16879            4 
number of iterations: 2086 
   24900      263.982    22613 8.8152648e-13            0         5631            0            0        16978            4 
number of iterations: 2703 
   25000    265.04931    22734 8.8461184e-13            0         5653            0            0        17077            4 
number of iterations: 2141 
   25100    265.95488    22848 8.8750214e-13            0         5680            0            0        17164            4 
number of iterations: 2094 
   25200    266.83779    22960 8.9046355e-13            0         5702            0            0        17254            4 
number of iterations: 2097 
   25300    267.73767    23073 8.9333345e-13            0         5733            0            0        17336            4 
number of iterations: 2438 
   25400    268.91236    23202 8.9642842e-13            0         5759            0            0        17439            4 
number of iterations: 2593 
   25500    269.98265    23339 8.9960584e-13            0         5783            0            0        17552            4 
number of iterations: 2836 
   25600    271.10211    23455 9.0266302e-13            0         5803            0            0        17648            4 
number of iterations: 2472 
   25700    272.13871    23564 9.0540196e-13            0         5833            0            0        17727            4 
number of iterations: 2489 
   25800    273.18792    23671 9.0830246e-13            0         5851            0            0        17816            4 
number of iterations: 2483 
   25900    274.34668    23782 9.1116746e-13            0         5876            0            0        17902            4 
number of iterations: 2617 
   26000    275.43014    23900 9.1413752e-13            0         5902            0            0        17994            4 
number of iterations: 2830 
   26100    276.57971    24023 9.171216e-13            0         5931            0            0        18088            4 
number of iterations: 2576 
   26200     277.6357    24138 9.2014305e-13            0         5952            0            0        18182            4 
number of iterations: 2526 
   26300    278.68081    24235 9.2280453e-13            0         5979            0            0        18252            4 
number of iterations: 2989 
   26400    279.88268    24330 9.2554602e-13            0         5997            0            0        18329            4 
number of iterations: 2424 
   26500    280.91982    24431 9.2829579e-13            0         6020            0            0        18405            6 
number of iterations: 2780 
   26600    282.03395    24556 9.3128321e-13            0         6047            0            0        18503            6 
number of iterations: 2316 
   26700    283.04997    24677 9.3413243e-13            0         6075            0            0        18596            6 
number of iterations: 2996 
   26800    284.34043    24783 9.3696606e-13            0         6092            0            0        18685            6 
number of iterations: 2165 
   26900    285.30818    24898 9.3983324e-13            0         6117            0            0        18775            6 
number of iterations: 2344 
   27000    286.30112    25032 9.4292454e-13            0         6139            0            0        18886            7 
number of iterations: 2716 
   27100    287.39688    25140 9.4576933e-13            0         6159            0            0        18974            7 
number of iterations: 2199 
   27200    288.35714    25264 9.4883062e-13            0         6179            0            0        19078            7 
number of iterations: 2618 
   27300    289.46919    25391 9.5186473e-13            0         6204            0            0        19180            7 
number of iterations: 3051 
   27400    290.68803    25530 9.5496413e-13            0         6231            0            0        19291            8 
number of iterations: 2785 
   27500    291.81263    25660 9.5802678e-13            0         6256            0            0        19395            9 
number of iterations: 3047 
   27600    293.02629    25784 9.6104438e-13            0         6278            0            0        19497            9 
number of iterations: 2182 
   27700    293.96393    25916 9.6420962e-13            0         6297            0            0        19610            9 
number of iterations: 2471 
   27800    295.02845    26039 9.6709587e-13            0         6323            0            0        19707            9 
number of iterations: 3216 
   27900    296.31391    26181 9.702752e-13            0         6351            0            0        19821            9 
number of iterations: 3112 
   28000    297.58932    26299 9.7313733e-13            0         6375            0            0        19915            9 
number of iterations: 2408 
   28100    298.59734    26434 9.7615208e-13            0         6400            0            0        20024           10 
number of iterations: 3169 
   28200    300.09633    26541 9.7882555e-13            0         6429            0            0        20102           10 
number of iterations: 2511 
   28300    301.16713    26655 9.8169901e-13            0         6446            0            0        20197           12 
number of iterations: 2730 
   28400    302.28383    26782 9.8463067e-13            0         6477            0            0        20292           13 
number of iterations: 2539 
   28500    303.36895    26901 9.8758414e-13            0         6494            0            0        20393           14 
number of iterations: 3539 
   28600    304.85367    27029 9.9055925e-13            0         6518            0            0        20494           17 
number of iterations: 2843 
   28700     306.0504    27133 9.9334916e-13            0         6533            0            0        20582           18 
number of iterations: 2452 
   28800    307.09999    27252 9.9627182e-13            0         6554            0            0        20680           18 
number of iterations: 2813 
   28900    308.32174    27376 9.9926787e-13            0         6571            0            0        20784           21 
number of iterations: 3317 
   29000    309.69143    27499 1.0022729e-12            0         6587            0            0        20890           22 
number of iterations: 3239 
   29100    311.04452    27622 1.0052247e-12            0         6605            0            0        20994           23 
number of iterations: 2659 
   29200    312.18211    27743 1.0081017e-12            0         6635            0            0        21085           23 
number of iterations: 2782 
   29300    313.38713    27894 1.0113137e-12            0         6662            0            0        21208           24 
number of iterations: 3090 
   29400    314.71867    28013 1.014158e-12            0         6690            0            0        21298           25 
number of iterations: 2810 
   29500    315.91663    28143 1.0171451e-12            0         6710            0            0        21405           28 
number of iterations: 2385 
   29600    316.97214    28260 1.0199702e-12            0         6734            0            0        21498           28 
number of iterations: 2568 
   29700    318.07116    28386 1.0229814e-12            0         6749            0            0        21607           30 
number of iterations: 2589 
   29800    319.21815    28527 1.0259385e-12            0         6781            0            0        21714           32 
number of iterations: 2738 
   29900    320.41677    28637 1.0287272e-12            0         6799            0            0        21805           33 
number of iterations: 2717 
   30000     321.5667    28749 1.0314715e-12            0         6825            0            0        21890           34 
number of iterations: 2913 
   30100    322.82543    28886 1.0344941e-12            0         6853            0            0        21999           34 
number of iterations: 2860 
   30200    324.04804    29025 1.0375142e-12            0         6886            0            0        22105           34 
number of iterations: 2513 
   30300    325.15773    29149 1.0404159e-12            0         6905            0            0        22207           37 
number of iterations: 2277 
   30400    326.24463    29264 1.0431492e-12            0         6929            0            0        22296           39 
number of iterations: 2552 
   30500    327.35973    29394 1.0461575e-12            0         6948            0            0        22404           42 
number of iterations: 2429 
   30600     328.4512    29525 1.0491124e-12            0         6970            0            0        22512           43 
number of iterations: 2064 
   30700    329.41744    29665 1.0522365e-12            0         6993            0            0        22627           45 
number of iterations: 3537 
   30800    330.90814    29799 1.0551797e-12            0         7019            0            0        22732           48 
number of iterations: 2895 
   30900    332.18644    29949 1.0583555e-12            0         7045            0            0        22853           51 
number of iterations: 2166 
   31000     333.1704    30049 1.0609738e-12            0         7066            0            0        22929           54 
number of iterations: 3072 
   31100    334.47575    30185 1.0639128e-12            0         7094            0            0        23032           59 
number of iterations: 2824 
   31200    335.83003    30333 1.0670574e-12            0         7115            0            0        23158           60 
number of iterations: 2722 
   31300    337.04662    30447 1.0698853e-12            0         7133            0            0        23251           63 
number of iterations: 2693 
   31400    338.20338    30568 1.0726865e-12            0         7157            0            0        23347           64 
number of iterations: 3486 
   31500    339.66812    30701 1.0756515e-12            0         7178            0            0        23455           68 
number of iterations: 2456 
   31600    341.25791    30858 1.0789864e-12            0         7197            0            0        23590           71 
number of iterations: 3192 
   31700    342.60797    30988 1.0819855e-12            0         7220            0            0        23694           74 
number of iterations: 3376 
   31800    344.05966    31125 1.0850003e-12            0         7245            0            0        23804           76 
number of iterations: 2659 
   31900    345.23969    31291 1.0882338e-12            0         7275            0            0        23935           81 
number of iterations: 2825 
   32000    346.47173    31405 1.0909444e-12            0         7300            0            0        24020           85 
number of iterations: 2961 
   32100    347.77186    31550 1.0941405e-12            0         7312            0            0        24149           89 
number of iterations: 2336 
   32200    348.86426    31696 1.097231e-12            0         7336            0            0        24270           90 
number of iterations: 3403 
   32300    350.29149    31828 1.1003598e-12            0         7350            0            0        24386           92 
number of iterations: 3215 
   32400    351.67006    31941 1.1031762e-12            0         7367            0            0        24481           93 
number of iterations: 3104 
   32500    353.05341    32077 1.1061957e-12            0         7392            0            0        24590           95 
number of iterations: 2734 
   32600    354.28494    32217 1.1090939e-12            0         7425            0            0        24694           98 
number of iterations: 2662 
   32700    355.50496    32346 1.1119889e-12            0         7448            0            0        24798          100 
number of iterations: 2185 
   32800    356.58172    32496 1.1150689e-12            0         7477            0            0        24916          103 
number of iterations: 2522 
   32900    357.75698    32618 1.1179817e-12            0         7493            0            0        25017          108 
number of iterations: 2214 
   33000     358.8324    32753 1.1209026e-12            0         7516            0            0        25125          112 
number of iterations: 2846 
   33100    360.11754    32879 1.1236975e-12            0         7544            0            0        25221          114 
number of iterations: 3213 
   33200    361.50436    33003 1.1266913e-12            0         7553            0            0        25328          122 
number of iterations: 2680 
   33300     362.7206    33156 1.129862e-12            0         7574            0            0        25458          124 
number of iterations: 2864 
   33400    363.97625    33287 1.132752e-12            0         7595            0            0        25564          128 
number of iterations: 2408 
   33500    365.13028    33428 1.1357598e-12            0         7621            0            0        25673          134 
number of iterations: 3028 
   33600    366.65574    33568 1.1387634e-12            0         7646            0            0        25779          143 
number of iterations: 2971 
   33700     367.9718    33687 1.1415624e-12            0         7666            0            0        25875          146 
number of iterations: 3155 
   33800    369.33554    33814 1.1444366e-12            0         7683            0            0        25976          155 
number of iterations: 2735 
   33900    370.55459    33957 1.1474778e-12            0         7705            0            0        26093          159 
number of iterations: 2363 
   34000     371.8508    34100 1.1504524e-12            0         7737            0            0        26203          160 
number of iterations: 3177 
   34100    373.23791    34246 1.1536115e-12            0         7752            0            0        26327          167 
number of iterations: 2716 
   34200    374.48123    34384 1.1565954e-12            0         7770            0            0        26439          175 
number of iterations: 2768 
   34300    375.73508    34515 1.1595409e-12            0         7785            0            0        26549          181 
number of iterations: 3787 
   34400    377.37161    34647 1.1624304e-12            0         7807            0            0        26653          187 
number of iterations: 1391 
   34500    378.16797    34784 1.1653593e-12            0         7831            0            0        26763          190 
number of iterations: 2652 
   34600    379.41647    34944 1.1684631e-12            0         7859            0            0        26884          201 
number of iterations: 3080 
   34700    380.78113    35103 1.1717053e-12            0         7879            0            0        27015          209 
number of iterations: 2662 
   34800    382.02181    35259 1.1749089e-12            0         7902            0            0        27145          212 
number of iterations: 3279 
   34900     383.4706    35400 1.1779211e-12            0         7918            0            0        27260          222 
number of iterations: 3084 
   35000    384.87618    35542 1.1809609e-12            0         7938            0            0        27377          227 
number of iterations: 2786 
   35100    386.23271    35671 1.1839152e-12            0         7955            0            0        27482          234 
number of iterations: 3054 
   35200    387.61168    35800 1.1868552e-12            0         7972            0            0        27589          239 
number of iterations: 3128 
   35300    388.98789    35939 1.1898796e-12            0         7993            0            0        27701          245 
number of iterations: 3021 
   35400     390.3471    36077 1.1929085e-12            0         8009            0            0        27814          254 
number of iterations: 3140 
   35500    391.82549    36234 1.1960925e-12            0         8035            0            0        27939          260 
number of iterations: 2516 
   35600    393.05677    36373 1.1990142e-12            0         8062            0            0        28046          265 
number of iterations: 2842 
   35700    394.33477    36536 1.2023428e-12            0         8084            0            0        28183          269 
number of iterations: 3067 
   35800    395.68934    36680 1.2054538e-12            0         8107            0            0        28301          272 
number of iterations: 2619 
   35900    396.89676    36798 1.2082519e-12            0         8119            0            0        28399          280 
number of iterations: 3160 
   36000    398.28504    36942 1.2113768e-12            0         8137            0            0        28520          285 
number of iterations: 2329 
   36100    399.38261    37069 1.214271e-12            0         8155            0            0        28624          290 
number of iterations: 3226 
   36200     400.7944    37186 1.2170239e-12            0         8175            0            0        28718          293 
number of iterations: 3255 
   36300     402.2039    37321 1.2199979e-12            0         8193            0            0        28829          299 
number of iterations: 2615 
   36400    403.46899    37456 1.222912e-12            0         8217            0            0        28936          303 
number of iterations: 2603 
   36500    404.67316    37590 1.2257809e-12            0         8247            0            0        29037          306 
number of iterations: 2961 
   36600    406.00328    37708 1.2286583e-12            0         8263            0            0        29134          311 
number of iterations: 2626 
   36700    407.20499    37840 1.2316056e-12            0         8288            0            0        29238          314 
number of iterations: 3232 
   36800    408.67977    38017 1.2349732e-12            0         8318            0            0        29376          323 
number of iterations: 2912 
   36900    410.04418    38159 1.2380444e-12            0         8332            0            0        29495          332 
number of iterations: 3169 
   37000    411.45122    38314 1.2411832e-12            0         8360            0            0        29618          336 
number of iterations: 3119 
   37100    412.84146    38455 1.2442635e-12            0         8377            0            0        29739          339 
number of iterations: 3179 
   37200    414.23368    38605 1.2473137e-12            0         8404            0            0        29856          345 
number of iterations: 3334 
   37300    415.74505    38771 1.2507031e-12            0         8421            0            0        29997          353 
number of iterations: 3004 
   37400    417.11586    38907 1.2537274e-12            0         8443            0            0        30108          356 
number of iterations: 3500 
   37500     418.6448    39064 1.2569954e-12            0         8462            0            0        30237          365 
number of iterations: 2969 
   37600    420.00884    39207 1.2601677e-12            0         8474            0            0        30357          376 
number of iterations: 2985 
   37700    421.38843    39360 1.2632525e-12            0         8504            0            0        30471          385 
number of iterations: 3362 
   37800    422.86094    39510 1.266391e-12            0         8523            0            0        30592          395 
number of iterations: 3118 
   37900    424.25049    39633 1.2692377e-12            0         8542            0            0        30685          406 
number of iterations: 3004 
   38000    425.62559    39786 1.2723862e-12            0         8566            0            0        30807          413 
number of iterations: 2805 
   38100    426.92097    39936 1.2754167e-12            0         8591            0            0        30926          419 
number of iterations: 3587 
   38200    428.46983    40067 1.2782853e-12            0         8616            0            0        31023          428 
number of iterations: 2967 
   38300    429.81704    40215 1.2814434e-12            0         8633            0            0        31146          436 
number of iterations: 3181 
   38400    431.26086    40369 1.2846813e-12            0         8650            0            0        31276          443 
number of iterations: 3205 
   38500    432.70029    40507 1.2877611e-12            0         8666            0            0        31392          449 
number of iterations: 3424 
   38600    434.36147    40669 1.2911426e-12            0         8683            0            0        31533          453 
number of iterations: 3058 
   38700    435.77922    40806 1.2942954e-12            0         8699            0            0        31650          457 
number of iterations: 2598 
   38800    437.01567    40961 1.2973357e-12            0         8725            0            0        31764          472 
number of iterations: 2125 
   38900    438.12928    41111 1.3004326e-12            0         8748            0            0        31881          482 
number of iterations: 2945 
   39000    439.51452    41234 1.3032645e-12            0         8768            0            0        31975          491 
number of iterations: 3169 
   39100    440.97577    41375 1.3062341e-12            0         8784            0            0        32083          508 
number of iterations: 2817 
   39200    442.32203    41546 1.309574e-12            0         8810            0            0        32219          517 
number of iterations: 2733 
   39300    443.64033    41699 1.3126696e-12            0         8843            0            0        32333          523 
number of iterations: 3065 
   39400    445.05928    41854 1.3158113e-12            0         8863            0            0        32457          534 
number of iterations: 2738 
   39500     446.3784    42019 1.3191586e-12            0         8880            0            0        32595          544 
number of iterations: 2717 
   39600    447.68515    42162 1.3222793e-12            0         8896            0            0        32711          555 
number of iterations: 2404 
   39700    448.87526    42321 1.3254242e-12            0         8916            0            0        32837          568 
number of iterations: 3716 
   39800    450.51478    42493 1.3289312e-12            0         8934            0            0        32984          575 
number of iterations: 3290 
   39900    452.03322    42648 1.3321115e-12            0         8955            0            0        33111          582 
number of iterations: 2762 
   40000    453.37753    42799 1.3353312e-12            0         8975            0            0        33231          593 
Loop time of 453.378 on 4 procs for 40000 steps with 42799 atoms

Performance: 76227855.961 tau/day, 88.227 timesteps/s
98.1% CPU use with 4 MPI tasks x no OpenMP threads

MPI task timing breakdown:
Section |  min time  |  avg time  |  max time  |%varavg| %total
---------------------------------------------------------------
Pair    | 11.548     | 13.811     | 16.272     |  50.4 |  3.05
Neigh   | 9.8009     | 11.287     | 12.966     |  36.5 |  2.49
Comm    | 4.3709     | 4.8591     | 5.0823     |  13.1 |  1.07
Output  | 16.735     | 16.815     | 16.893     |   1.5 |  3.71
Modify  | 395.89     | 397.5      | 399.08     |   6.0 | 87.68
Other   |            | 9.102      |            |       |  2.01

Nlocal:    10699.8 ave 13705 max 8032 min
Histogram: 1 0 1 0 0 0 1 0 0 1
Nghost:    1079.75 ave 1568 max 695 min
Histogram: 1 0 1 0 0 1 0 0 0 1
Neighs:    48759.8 ave 63850 max 35093 min
Histogram: 1 0 1 0 0 0 1 0 0 1

Total # of neighbors = 195039
Ave neighs/atom = 4.55709
Neighbor list builds = 1416
Dangerous builds = 0

Total wall time: 0:07:33
