LAMMPS (5 Nov 2016)
# NUFEB simulation

atom_style	bio
atom_modify	map array sort 100 5.0e-7
boundary	ff ff ff
newton		off
#processors  2 1 1

comm_modify	vel yes
read_data_bio atom.in
  orthogonal box = (0 0 0) to (0.0001 4e-05 0.0001)
  1 by 1 by 1 MPI processor grid
  reading atoms ...
  44 atoms
  5 nutrients

group HET type 1
40 atoms in group HET
group AOB type 2
1 atoms in group AOB
group NOB type 3
1 atoms in group NOB
group EPS type 4
1 atoms in group EPS
group DEAD type 5
1 atoms in group DEAD

neighbor	5e-7 bin
neigh_modify	delay 0 one 5000

#pair_style none
pair_style  gran/hooke/history 1.e-4 NULL 1.e-5 NULL 0.0 1

pair_coeff  * *
timestep 10

fix 1 all nve/limit 1e-8

fix fv all viscous 1e-5

fix xw all wall/gran hooke/history 2000 NULL 500.0 NULL 1.5 0 xplane  0.0   1.0e-04
fix yw all wall/gran hooke/history 2000 NULL 500.0 NULL 1.5 0 yplane  0.0   4.0e-05
fix zw all wall/gran hooke/history 2000 NULL 500.0 NULL 1.5 0 zplane  0.0   1.0e-04

variable kanc equal 50

fix xwa all walladh v_kanc xplane  0.0   1.0e-04
fix ywa all walladh v_kanc yplane  0.0   4.0e-05
fix zwa all walladh v_kanc zplane  0.0   1.0e-04

##############Ibm Variable Definitions##############

#Defining EPS density and ratio variables
variable EPSdens equal 30
variable EPSratio equal 1.25
variable divMass equal 2e-16

variable ke equal 5e+10

#Defining kinetics variables
variable temp equal 298.15
variable gasTran equal 0.08205746
variable gvol equal 8e-14
variable rth equal 0.0083144
variable pressure equal 1
variable ph equal 7.0
variable etaHET equal 0.6

#Defining diffusion variables
variable diffT equal 1e-4
variable tol equal 1e-6
variable bl equal -1
variable Q equal -1
variable rvol equal 1
variable Af equal -1

#Defining critical diameter of death
variable deadMass equal 6e-17

##############Ibm functions##############

fix k1 all kinetics 100 30 12 30 v_temp v_rth v_gvol v_gasTran v_ph v_diffT v_bl
fix kgm all kinetics/growth/monod v_EPSdens v_etaHET
fix g1 all kinetics/diffusion exp v_tol v_Q v_rvol v_Af pp pp nd kg
fix d1 all divide 100 v_EPSdens v_divMass 31231
fix e1 HET eps_extract 100 v_EPSratio v_EPSdens 12425
fix j1 all epsadh 1 v_ke 1
fix d5 all death 100 v_deadMass

##############Ibm compute##############

compute myNtypes all ntypes
#compute myRough all roughness 25 25

##############Simulation outputs##############

dump		id all custom 1000 snapshot.bubblemd id type diameter x y z
#dump            d0 all bio 10 concentration
thermo_style    custom step cpu atoms biomass c_myNtypes[*]
thermo		100
thermo_modify	lost ignore

run 40000
Neighbor list info ...
  3 neighbor list requests
  update every 1 steps, delay 0 steps, check yes
  max neighbors/atom: 5000, page size: 100000
  master list distance cutoff = 1.5e-06
  ghost atom cutoff = 1.5e-06
  binsize = 7.5e-07 -> bins = 134 54 134
Memory usage per processor = 13.5482 Mbytes
Step CPU Atoms biomass c_myNtypes[1] c_myNtypes[2] c_myNtypes[3] c_myNtypes[4] c_myNtypes[5] 
       0            0       44 3.141593e-15           40            1            1            1            1 
     100    10.426094       44 4.4820565e-15           40            0            0            1            3 
     200    20.931099       44 6.2983664e-15           40            0            0            1            3 
     300    31.580189       84 9.3072192e-15           40            0            0           41            3 
     400    42.298706      162 1.2583363e-14           80            0            0           79            3 
     500     52.88576      204 1.6526791e-14           80            0            0          121            3 
     600    63.610718      285 2.0741887e-14          105            0            0          177            3 
     700    74.356066      391 2.503583e-14          144            0            0          244            3 
     800    85.161204      442 2.890652e-14          160            0            0          279            3 
     900    96.072387      503 3.3076521e-14          168            0            0          332            3 
    1000    103.96122      587 3.7253726e-14          199            0            0          385            3 
    1100    111.07962      666 4.1410082e-14          230            0            0          433            3 
    1200    118.04447      735 4.5364472e-14          267            0            0          465            3 
    1300    123.84565      826 4.9765762e-14          293            0            0          530            3 
    1400    129.25127      900 5.4022539e-14          315            0            0          582            3 
    1500    133.90357      966 5.8303977e-14          331            0            0          632            3 
    1600    138.42566     1035 6.2534722e-14          351            0            0          681            3 
    1700    142.88146     1113 6.6897883e-14          373            0            0          737            3 
    1800    146.54146     1191 7.1133877e-14          407            0            0          781            3 
    1900     150.2584     1253 7.5330879e-14          428            0            0          822            3 
    2000     153.1366     1336 7.9680431e-14          458            0            0          875            3 
    2100    155.99921     1428 8.4040671e-14          495            0            0          930            3 
    2200    159.15237     1508 8.8322476e-14          525            0            0          980            3 
    2300    161.67126     1594 9.2727138e-14          554            0            0         1037            3 
    2400    164.55647     1659 9.6977116e-14          572            0            0         1084            3 
    2500    167.15031     1759 1.0139443e-13          612            0            0         1144            3 
    2600    169.00777     1845 1.0573792e-13          641            0            0         1201            3 
    2700    171.23791     1911 1.0987368e-13          665            0            0         1243            3 
    2800     173.2159     1991 1.1421045e-13          690            0            0         1298            3 
    2900    174.85171     2070 1.1855562e-13          708            0            0         1359            3 
    3000    176.73448     2140 1.2273475e-13          732            0            0         1405            3 
    3100    178.26412     2215 1.2695116e-13          761            0            0         1451            3 
    3200    179.71203     2297 1.3126029e-13          787            0            0         1507            3 
    3300    181.32302     2368 1.355531e-13          806            0            0         1559            3 
    3400    182.51721     2442 1.3971029e-13          834            0            0         1605            3 
    3500    183.98209     2510 1.4389951e-13          854            0            0         1653            3 
    3600    184.93187     2607 1.4826435e-13          891            0            0         1713            3 
    3700    186.51826     2680 1.5247941e-13          914            0            0         1763            3 
    3800    188.05003     2766 1.5684587e-13          936            0            0         1827            3 
    3900    189.20122     2843 1.6106694e-13          960            0            0         1880            3 
    4000    190.54488     2920 1.6527337e-13          984            0            0         1933            3 
    4100    191.74427     3003 1.6950721e-13         1014            0            0         1986            3 
    4200    192.93316     3091 1.7386892e-13         1039            0            0         2049            3 
    4300    194.17323     3176 1.780404e-13         1069            0            0         2104            3 
    4400    195.18946     3239 1.8212796e-13         1086            0            0         2150            3 
    4500    196.23913     3311 1.8614594e-13         1115            0            0         2193            3 
    4600    197.07979     3396 1.9041805e-13         1137            0            0         2256            3 
    4700    198.02087     3502 1.9490271e-13         1164            0            0         2335            3 
    4800    199.17098     3575 1.9899256e-13         1187            0            0         2385            3 
    4900    200.24014     3654 2.030919e-13         1215            0            0         2436            3 
    5000    201.10578     3733 2.0721472e-13         1239            0            0         2491            3 
    5100    202.10713     3803 2.1125469e-13         1261            0            0         2539            3 
    5200    202.86498     3878 2.1524177e-13         1291            0            0         2584            3 
    5300    204.14652     3960 2.1937648e-13         1315            0            0         2642            3 
    5400    205.20193     4040 2.2349451e-13         1335            0            0         2702            3 
    5500    206.05396     4115 2.2750263e-13         1359            0            0         2753            3 
    5600    207.14792     4175 2.3144803e-13         1376            0            0         2796            3 
    5700    207.87852     4260 2.3547274e-13         1408            0            0         2849            3 
    5800    208.87372     4341 2.3954836e-13         1432            0            0         2906            3 
    5900    209.91051     4432 2.4364459e-13         1463            0            0         2966            3 
    6000    210.97805     4515 2.4775265e-13         1486            0            0         3026            3 
    6100    211.92169     4606 2.5188046e-13         1511            0            0         3092            3 
    6200    213.10657     4693 2.5597186e-13         1536            0            0         3154            3 
    6300    214.00247     4771 2.5997651e-13         1557            0            0         3211            3 
    6400    214.60421     4864 2.6412788e-13         1584            0            0         3277            3 
    6500     215.8176     4932 2.6802097e-13         1605            0            0         3324            3 
    6600    216.86944     5011 2.7190828e-13         1634            0            0         3374            3 
    6700    217.82729     5082 2.7585234e-13         1651            0            0         3428            3 
    6800    218.96985     5150 2.7974151e-13         1670            0            0         3477            3 
    6900    220.15298     5258 2.8398145e-13         1697            0            0         3558            3 
    7000    221.04387     5350 2.8806918e-13         1721            0            0         3626            3 
    7100    221.99632     5442 2.9204305e-13         1752            0            0         3687            3 
    7200    222.71747     5528 2.9599201e-13         1776            0            0         3749            3 
    7300    223.86017     5603 2.9980443e-13         1801            0            0         3799            3 
    7400    224.81542     5671 3.0358532e-13         1822            0            0         3846            3 
    7500    225.88402     5762 3.0762445e-13         1845            0            0         3914            3 
    7600    226.80533     5843 3.1149213e-13         1867            0            0         3973            3 
    7700    227.71901     5926 3.1537202e-13         1894            0            0         4029            3 
    7800    228.53097     6023 3.1930863e-13         1927            0            0         4093            3 
    7900    229.56042     6108 3.2316102e-13         1956            0            0         4149            3 
    8000    230.42091     6205 3.2720181e-13         1981            0            0         4221            3 
    8100    231.07314     6292 3.3115482e-13         2002            0            0         4287            3 
    8200    231.73463     6395 3.3511149e-13         2035            0            0         4357            3 
    8300    232.96227     6472 3.3885033e-13         2058            0            0         4411            3 
    8400    233.73704     6560 3.4271744e-13         2083            0            0         4474            3 
    8500    234.95681     6658 3.4674226e-13         2104            0            0         4551            3 
    8600    235.74742     6748 3.5057148e-13         2129            0            0         4616            3 
    8700    236.52067     6850 3.5451702e-13         2156            0            0         4691            3 
    8800    237.44085     6945 3.5827531e-13         2189            0            0         4753            3 
    8900    238.38954     7039 3.6219011e-13         2211            0            0         4825            3 
    9000    239.17387     7127 3.6601152e-13         2234            0            0         4890            3 
    9100     240.3319     7209 3.6977873e-13         2254            0            0         4952            3 
    9200    241.26885     7283 3.7340753e-13         2277            0            0         5003            3 
    9300    242.02761     7358 3.7704598e-13         2300            0            0         5055            3 
    9400    243.30668     7448 3.8080833e-13         2326            0            0         5119            3 
    9500    244.05504     7535 3.8458084e-13         2345            0            0         5187            3 
    9600    245.06539     7612 3.8829406e-13         2362            0            0         5247            3 
    9700    246.54012     7690 3.9204226e-13         2378            0            0         5309            3 
    9800    247.57652     7764 3.956252e-13         2399            0            0         5362            3 
    9900    248.64579     7839 3.9937129e-13         2411            0            0         5425            3 
   10000    249.89988     7907 4.0301024e-13         2424            0            0         5480            3 
   10100    250.77313     7998 4.0672994e-13         2449            0            0         5546            3 
   10200    251.72662     8070 4.1026859e-13         2472            0            0         5595            3 
   10300    252.58798     8156 4.138718e-13         2502            0            0         5651            3 
   10400    253.39065     8250 4.1765455e-13         2527            0            0         5720            3 
   10500    254.13557     8330 4.2125965e-13         2548            0            0         5779            3 
   10600    255.03569     8437 4.2517001e-13         2573            0            0         5861            3 
   10700    256.32416     8540 4.2904304e-13         2593            0            0         5944            3 
   10800    257.14164     8621 4.3265746e-13         2613            0            0         6005            3 
   10900    257.93168     8691 4.361501e-13         2633            0            0         6055            3 
   11000    259.19627     8775 4.3974634e-13         2657            0            0         6115            3 
   11100    260.16907     8846 4.4327222e-13         2672            0            0         6171            3 
   11200    260.90596     8937 4.4702891e-13         2690            0            0         6244            3 
   11300    262.28304     9025 4.5069076e-13         2710            0            0         6312            3 
   11400    263.80817     9110 4.5431344e-13         2730            0            0         6377            3 
   11500    264.84699     9192 4.5777812e-13         2756            0            0         6433            3 
   11600    265.81945     9281 4.6134338e-13         2781            0            0         6497            3 
   11700    267.07236     9380  4.64864e-13         2819            0            0         6558            3 
   11800    268.32287     9480 4.6851303e-13         2845            0            0         6632            3 
   11900    269.33036     9566 4.7206035e-13         2864            0            0         6699            3 
   12000    270.45276     9661 4.7568681e-13         2886            0            0         6772            3 
   12100    271.35798     9741 4.791882e-13         2902            0            0         6836            3 
   12200    272.53468     9830 4.8276548e-13         2919            0            0         6908            3 
   12300    273.86587     9922 4.8641789e-13         2937            0            0         6982            3 
   12400    275.21621    10020 4.9012475e-13         2955            0            0         7062            3 
   12500    276.19124    10120 4.9383363e-13         2976            0            0         7141            3 
   12600    276.90495    10207 4.9745231e-13         2986            0            0         7218            3 
   12700    277.95847    10301 5.0114567e-13         2999            0            0         7299            3 
   12800    280.11597    10395 5.0474443e-13         3018            0            0         7374            3 
   12900    281.73035    10475 5.0816513e-13         3036            0            0         7436            3 
   13000     282.8879    10558 5.1162496e-13         3056            0            0         7499            3 
   13100    284.55076    10650 5.150807e-13         3079            0            0         7568            3 
   13200    285.91373    10724 5.1840484e-13         3096            0            0         7625            3 
   13300    287.48423    10808 5.2188697e-13         3113            0            0         7692            3 
   13400    288.53057    10898 5.2536267e-13         3136            0            0         7759            3 
   13500    289.70252    10989 5.2885898e-13         3157            0            0         7829            3 
   13600    291.07375    11093 5.3222549e-13         3194            0            0         7896            3 
   13700     292.2064    11182 5.3561859e-13         3216            0            0         7963            3 
   13800    293.87694    11264 5.3899351e-13         3235            0            0         8026            3 
   13900    294.84973    11348 5.4237281e-13         3252            0            0         8093            3 
   14000    296.53937    11450 5.459757e-13         3275            0            0         8172            3 
   14100    297.70421    11535 5.4940336e-13         3288            0            0         8244            3 
   14200    298.93283    11637 5.5299252e-13         3307            0            0         8327            3 
   14300    300.61682    11745 5.5668102e-13         3326            0            0         8416            3 
   14400    302.41747    11847 5.6016007e-13         3351            0            0         8493            3 
   14500    303.76147    11950 5.6372846e-13         3373            0            0         8574            3 
   14600    305.20986    12058 5.6720231e-13         3402            0            0         8653            3 
   14700      306.548    12165 5.7065219e-13         3433            0            0         8729            3 
   14800    307.87106    12258 5.7412086e-13         3450            0            0         8805            3 
   14900    309.32215    12357 5.7742841e-13         3478            0            0         8876            3 
   15000    310.99507    12433 5.8067174e-13         3492            0            0         8938            3 
   15100    312.83096    12523 5.8391267e-13         3518            0            0         9002            3 
   15200    314.32321    12611 5.873167e-13         3534            0            0         9074            3 
   15300    315.83814    12706 5.9064774e-13         3557            0            0         9146            3 
   15400    317.19278    12801 5.9399567e-13         3580            0            0         9218            3 
   15500    318.93522    12897 5.9725804e-13         3611            0            0         9283            3 
   15600     320.7068    12996 6.0067575e-13         3631            0            0         9362            3 
   15700    322.14956    13089  6.03962e-13         3653            0            0         9433            3 
   15800    323.55076    13193 6.0744464e-13         3670            0            0         9520            3 
   15900    324.96419    13281 6.1074772e-13         3684            0            0         9594            3 
   16000    326.27235    13376 6.1393398e-13         3714            0            0         9659            3 
   16100    328.14226    13460 6.170918e-13         3739            0            0         9718            3 
   16200    329.66645    13566 6.2058891e-13         3755            0            0         9808            3 
   16300    330.94475    13659 6.2377139e-13         3781            0            0         9875            3 
   16400    332.24415    13763 6.2718607e-13         3804            0            0         9956            3 
   16500    333.64729    13841 6.3015807e-13         3832            0            0        10006            3 
   16600     335.5581    13945 6.3357881e-13         3855            0            0        10087            3 
   16700    337.24592    14046 6.3687769e-13         3882            0            0        10161            3 
   16800    338.74429    14151 6.4030848e-13         3902            0            0        10246            3 
   16900    340.13296    14251 6.4360252e-13         3923            0            0        10325            3 
   17000    341.45793    14335 6.4687521e-13         3932            0            0        10400            3 
   17100    343.21519    14418 6.4999783e-13         3950            0            0        10465            3 
   17200    344.52627    14518 6.5326336e-13         3971            0            0        10544            3 
   17300     346.5048    14621 6.5667578e-13         3989            0            0        10629            3 
   17400    348.09403    14739 6.6003389e-13         4020            0            0        10716            3 
   17500    349.57002    14830 6.6323991e-13         4034            0            0        10793            3 
   17600    351.08835    14930 6.6652305e-13         4054            0            0        10873            3 
   17700    352.88489    15027 6.6962409e-13         4082            0            0        10942            3 
   17800    354.26712    15102 6.7270137e-13         4094            0            0        11005            3 
   17900    356.29202    15196 6.7585771e-13         4114            0            0        11079            3 
   18000    357.56424    15298 6.7898976e-13         4144            0            0        11151            3 
   18100    359.79122    15389 6.8209244e-13         4161            0            0        11225            3 
   18200    361.27859    15483 6.8525341e-13         4181            0            0        11299            3 
   18300    362.82654    15593 6.8869176e-13         4196            0            0        11394            3 
   18400    365.30238    15694 6.9186044e-13         4221            0            0        11470            3 
   18500     366.4294    15778 6.9493133e-13         4238            0            0        11537            3 
   18600    368.15478    15871 6.9804212e-13         4257            0            0        11611            3 
   18700    369.84403    15989 7.0137073e-13         4283            0            0        11703            3 
   18800    371.51894    16103 7.0470685e-13         4302            0            0        11798            3 
   18900    373.32599    16185 7.0760213e-13         4327            0            0        11855            3 
   19000    375.62345    16284 7.1063354e-13         4357            0            0        11924            3 
   19100    377.45039    16379 7.1367385e-13         4382            0            0        11994            3 
   19200    379.42311    16480 7.1680662e-13         4403            0            0        12074            3 
   19300    381.48504    16597 7.2014716e-13         4422            0            0        12172            3 
   19400    383.73117    16700 7.2325861e-13         4448            0            0        12249            3 
   19500    385.69803    16806 7.2642039e-13         4470            0            0        12333            3 
   19600    387.69995    16913 7.2958864e-13         4492            0            0        12418            3 
   19700     389.4878    16992 7.325522e-13         4504            0            0        12485            3 
   19800    391.11625    17105 7.357646e-13         4530            0            0        12572            3 
   19900    393.69048    17224 7.3915313e-13         4548            0            0        12673            3 
   20000    395.84395    17323 7.4232666e-13         4563            0            0        12757            3 
   20100    397.11123    17442 7.4552573e-13         4591            0            0        12848            3 
   20200    399.58515    17536 7.4852974e-13         4616            0            0        12917            3 
   20300    401.77063    17628 7.5149193e-13         4637            0            0        12988            3 
   20400    403.92735    17731 7.5462647e-13         4658            0            0        13070            3 
   20500    405.84195    17828 7.5752063e-13         4687            0            0        13138            3 
   20600    407.96343    17921 7.6043335e-13         4710            0            0        13208            3 
   20700    410.21468    18022 7.6349755e-13         4727            0            0        13292            3 
   20800    411.83315    18113 7.6655556e-13         4741            0            0        13369            3 
   20900    413.64473    18219 7.6969838e-13         4762            0            0        13454            3 
   21000    415.92235    18314 7.7259115e-13         4783            0            0        13528            3 
   21100    417.64137    18403 7.7551573e-13         4801            0            0        13599            3 
   21200    420.31953    18515 7.7861832e-13         4824            0            0        13688            3 
   21300    422.44397    18639 7.8178399e-13         4859            0            0        13777            3 
   21400    424.76713    18766 7.8513753e-13         4878            0            0        13885            3 
   21500    427.69792    18884 7.883569e-13         4900            0            0        13981            3 
   21600    430.20962    18966 7.9119491e-13         4915            0            0        14048            3 
   21700    432.54079    19064 7.9414649e-13         4933            0            0        14128            3 
   21800    434.95858    19186 7.9734023e-13         4955            0            0        14228            3 
   21900    437.15913    19280 8.0020951e-13         4981            0            0        14296            3 
   22000    440.41614    19406 8.0338961e-13         5009            0            0        14394            3 
   22100    442.91984    19511 8.0641585e-13         5033            0            0        14475            3 
   22200    446.13752    19619 8.0952751e-13         5054            0            0        14562            3 
   22300    448.18646    19737 8.1270228e-13         5075            0            0        14659            3 
   22400    450.80847    19838 8.1556893e-13         5099            0            0        14736            3 
   22500    454.09194    19955 8.1870336e-13         5118            0            0        14834            3 
   22600     457.2273    20061 8.2174905e-13         5138            0            0        14920            3 
   22700    461.07848    20172 8.247805e-13         5165            0            0        15004            3 
   22800    464.09211    20268 8.2771986e-13         5179            0            0        15086            3 
   22900    467.05236    20361 8.3043707e-13         5207            0            0        15151            3 
   23000    469.56915    20482 8.3359435e-13         5233            0            0        15246            3 
   23100    471.96246    20583 8.3645704e-13         5258            0            0        15322            3 
   23200    473.72446    20710 8.3964183e-13         5284            0            0        15423            3 
   23300    476.50905    20819 8.4263309e-13         5305            0            0        15511            3 
   23400    479.12817    20923 8.4554618e-13         5324            0            0        15596            3 
   23500    480.90039    21039 8.4857769e-13         5345            0            0        15691            3 
   23600    484.34042    21151 8.5154072e-13         5370            0            0        15778            3 
   23700    486.36685    21255 8.5443981e-13         5389            0            0        15863            3 
   23800    489.16131    21354 8.5728675e-13         5410            0            0        15941            3 
   23900    491.84778    21464 8.6018046e-13         5432            0            0        16029            3 
   24000     494.7745    21573 8.6310664e-13         5458            0            0        16112            3 
   24100    497.72558    21670 8.6598101e-13         5475            0            0        16192            3 
   24200    500.79289    21785 8.6886701e-13         5506            0            0        16276            3 
   24300    503.21748    21880 8.7157256e-13         5532            0            0        16345            3 
   24400    506.82298    22001 8.746297e-13         5556            0            0        16442            3 
   24500    509.29977    22099 8.7750494e-13         5574            0            0        16522            3 
   24600    512.12144    22221 8.8057492e-13         5595            0            0        16623            3 
   24700    515.49185    22356 8.8377897e-13         5620            0            0        16733            3 
   24800    518.60099    22475 8.867765e-13         5645            0            0        16827            3 
   24900    521.24257    22588 8.8970563e-13         5670            0            0        16915            3 
   25000    524.71634    22706 8.926386e-13         5694            0            0        17009            3 
   25100    527.75982    22812 8.9548882e-13         5718            0            0        17091            3 
   25200    532.47527    22914 8.9834272e-13         5736            0            0        17175            3 
   25300    535.13127    23033 9.0129603e-13         5760            0            0        17270            3 
   25400    538.74504    23135 9.0404662e-13         5786            0            0        17345            4 
   25500    541.98628    23250 9.0698761e-13         5810            0            0        17436            4 
   25600    545.38119    23373 9.1009236e-13         5828            0            0        17541            4 
   25700    548.61706    23501 9.1318768e-13         5850            0            0        17647            4 
   25800    551.51948    23618 9.161578e-13         5871            0            0        17743            4 
   25900    554.81837    23738 9.1913188e-13         5895            0            0        17839            4 
   26000    556.83094    23866 9.2232101e-13         5915            0            0        17947            4 
   26100     560.8176    23982 9.2518228e-13         5941            0            0        18036            5 
   26200    563.83435    24087 9.2798358e-13         5964            0            0        18118            5 
   26300    566.84074    24216 9.3107441e-13         5982            0            0        18229            5 
   26400    569.54938    24320 9.3393173e-13         5997            0            0        18317            6 
   26500    572.67402    24428 9.3682646e-13         6015            0            0        18406            7 
   26600     576.4504    24546 9.3985579e-13         6032            0            0        18507            7 
   26700    581.23635    24678 9.4288836e-13         6062            0            0        18609            7 
   26800    585.10157    24802 9.4583938e-13         6088            0            0        18707            7 
   26900    588.07936    24906 9.4859179e-13         6110            0            0        18788            8 
   27000    592.01778    25027 9.514913e-13         6135            0            0        18883            9 
   27100    594.50494    25148 9.5437908e-13         6162            0            0        18976           10 
   27200    597.75075    25275 9.5733551e-13         6186            0            0        19077           12 
   27300    601.77854    25414 9.6043573e-13         6215            0            0        19186           13 
   27400    606.85759    25543 9.633478e-13         6245            0            0        19285           13 
   27500    610.20056    25662 9.6628177e-13         6268            0            0        19381           13 
   27600    613.02376    25790 9.6926144e-13         6289            0            0        19486           15 
   27700    616.89653    25908 9.7218839e-13         6307            0            0        19585           16 
   27800     620.5486    26020 9.7501727e-13         6328            0            0        19676           16 
   27900    623.98396    26132 9.7788076e-13         6344            0            0        19772           16 
   28000    627.35758    26259 9.8082904e-13         6369            0            0        19872           18 
   28100    631.87323    26388 9.837959e-13         6399            0            0        19971           18 
   28200     636.8389    26510 9.866663e-13         6421            0            0        20070           19 
   28300    641.21925    26622 9.8948173e-13         6441            0            0        20161           20 
   28400    644.82041    26746 9.9241815e-13         6466            0            0        20258           22 
   28500    648.11912    26865 9.9531221e-13         6486            0            0        20354           25 
   28600    651.27357    26986 9.9824451e-13         6507            0            0        20454           25 
   28700    654.43761    27106 1.0010864e-12         6529            0            0        20550           27 
   28800    657.73441    27234 1.0040818e-12         6551            0            0        20655           28 
   28900    661.90303    27349 1.0069218e-12         6570            0            0        20750           29 
   29000    667.87561    27489 1.0099365e-12         6597            0            0        20860           32 
   29100    671.90945    27618  1.01289e-12         6620            0            0        20965           33 
   29200    678.55326    27751 1.0158264e-12         6644            0            0        21072           35 
   29300     683.3339    27878 1.0187262e-12         6667            0            0        21174           37 
   29400    687.35619    27998 1.0216174e-12         6689            0            0        21270           39 
   29500    692.12159    28111 1.0244602e-12         6704            0            0        21366           41 
   29600    695.63826    28227 1.0272597e-12         6724            0            0        21459           44 
   29700    700.80247    28361 1.0302263e-12         6752            0            0        21562           47 
   29800     705.0813    28488 1.0331059e-12         6777            0            0        21658           53 
   29900    709.25347    28604 1.0358411e-12         6802            0            0        21746           56 
   30000    713.40936    28716 1.0386567e-12         6820            0            0        21838           58 
   30100    718.04611    28839 1.0415776e-12         6839            0            0        21939           61 
   30200    721.79176    28957 1.0444421e-12         6854            0            0        22039           64 
   30300    726.00787    29087 1.0473443e-12         6880            0            0        22142           65 
   30400    730.61701    29206 1.0501208e-12         6905            0            0        22233           68 
   30500     734.6428    29333 1.0529633e-12         6930            0            0        22331           72 
   30600    739.99541    29457 1.0557703e-12         6955            0            0        22429           73 
   30700     742.9705    29586 1.0586913e-12         6973            0            0        22537           76 
   30800    747.63737    29718 1.0615729e-12         7000            0            0        22638           80 
   30900    751.80413    29803 1.063897e-12         7022            0            0        22699           82 
   31000     756.1954    29948 1.0670895e-12         7036            0            0        22825           87 
   31100    761.31096    30083 1.0701158e-12         7055            0            0        22939           89 
   31200    767.81256    30240 1.0733044e-12         7077            0            0        23071           92 
   31300    771.46388    30379 1.0763618e-12         7101            0            0        23185           93 
   31400    776.16854    30502 1.0792468e-12         7123            0            0        23285           94 
   31500    780.02878    30632 1.0822212e-12         7141            0            0        23396           95 
   31600    785.23861    30746 1.0849786e-12         7160            0            0        23488           98 
   31700    789.57552    30880 1.087943e-12         7177            0            0        23602          101 
   31800    795.46404    30997 1.0907174e-12         7199            0            0        23695          103 
   31900    800.19765    31116 1.0935394e-12         7217            0            0        23791          108 
   32000    803.61341    31250 1.0963319e-12         7251            0            0        23888          111 
   32100    808.56484    31378 1.0992526e-12         7266            0            0        23995          117 
   32200    812.90304    31510 1.1021888e-12         7289            0            0        24097          124 
   32300     816.5744    31627 1.1049523e-12         7317            0            0        24185          125 
   32400    821.55513    31765 1.1079382e-12         7342            0            0        24294          129 
   32500    827.43249    31886 1.1108425e-12         7350            0            0        24401          135 
   32600    832.39918    32010 1.1137303e-12         7371            0            0        24501          138 
   32700    837.04592    32126 1.1164666e-12         7390            0            0        24594          142 
   32800    842.54945    32260 1.1194893e-12         7407            0            0        24708          145 
   32900    847.46474    32377 1.1222305e-12         7429            0            0        24799          149 
   33000    853.22865    32515 1.125143e-12         7457            0            0        24903          155 
   33100    858.85096    32628 1.1278593e-12         7477            0            0        24992          159 
   33200    864.07019    32749 1.1306583e-12         7502            0            0        25085          162 
   33300    869.61865    32901 1.1338202e-12         7525            0            0        25209          167 
   33400     874.5118    33019 1.1365335e-12         7546            0            0        25302          171 
   33500    880.25013    33135 1.1393024e-12         7563            0            0        25398          174 
   33600     885.2345    33272 1.1422489e-12         7586            0            0        25506          180 
   33700    890.77491    33405 1.1452242e-12         7603            0            0        25616          186 
   33800    895.56407    33538 1.1480984e-12         7615            0            0        25726          197 
   33900    900.09284    33677 1.1510593e-12         7635            0            0        25839          203 
   34000    904.21966    33822 1.1541176e-12         7658            0            0        25956          208 
   34100    910.22941    33939 1.1567895e-12         7680            0            0        26044          215 
   34200    916.62324    34057 1.1595301e-12         7695            0            0        26137          225 
   34300    921.25232    34186 1.1623434e-12         7718            0            0        26237          231 
   34400    926.75386    34340 1.1655542e-12         7739            0            0        26367          234 
   34500    931.88292    34465 1.168393e-12         7758            0            0        26470          237 
   34600    937.32629    34599 1.1713976e-12         7768            0            0        26584          247 
   34700    941.81282    34741 1.1744814e-12         7790            0            0        26702          249 
   34800    948.60425    34857 1.1772398e-12         7803            0            0        26800          254 
   34900    953.50803    34980 1.1800721e-12         7823            0            0        26900          257 
   35000    959.30226    35109 1.1829688e-12         7837            0            0        27003          269 
   35100    963.96263    35262 1.186074e-12         7860            0            0        27125          277 
   35200    970.17739    35399 1.1889879e-12         7879            0            0        27236          284 
   35300    976.02609    35519 1.1917476e-12         7897            0            0        27332          290 
   35400     981.1209    35685 1.1950215e-12         7919            0            0        27468          298 
   35500    984.52895    35826 1.1979745e-12         7941            0            0        27582          303 
   35600    989.34981    35962 1.2009487e-12         7956            0            0        27696          310 
   35700    994.47307    36103 1.2038082e-12         7984            0            0        27802          317 
   35800    1002.1894    36233 1.2067461e-12         8002            0            0        27908          323 
   35900    1006.8311    36382 1.2096902e-12         8023            0            0        28023          336 
   36000    1014.9301    36533 1.2127645e-12         8043            0            0        28147          343 
   36100     1020.856    36679 1.2158301e-12         8067            0            0        28264          348 
   36200    1028.1073    36808 1.2186452e-12         8084            0            0        28365          359 
   36300     1033.645    36948 1.2216277e-12         8101            0            0        28480          367 
   36400    1039.2338    37084 1.2244598e-12         8126            0            0        28586          372 
   36500    1046.0968    37226 1.2274802e-12         8137            0            0        28704          385 
   36600    1053.3285    37366 1.2304647e-12         8148            0            0        28819          399 
   36700    1061.0901    37520 1.2334615e-12         8177            0            0        28939          404 
   36800    1068.5192    37684 1.2366651e-12         8199            0            0        29071          414 
   36900    1074.0053    37815 1.2395311e-12         8218            0            0        29176          421 
   37000    1081.4588    37976 1.2427272e-12         8236            0            0        29308          432 
   37100    1087.4615    38132 1.2459112e-12         8256            0            0        29434          442 
   37200    1094.7104    38289 1.249031e-12         8278            0            0        29562          449 
   37300    1099.9823    38434 1.2521986e-12         8290            0            0        29688          456 
   37400    1106.9816    38549 1.2549149e-12         8309            0            0        29778          462 
   37500    1112.3538    38701 1.2580908e-12         8319            0            0        29908          474 
   37600    1118.4677    38862 1.2614411e-12         8337            0            0        30043          482 
   37700    1123.9991    39010 1.2645035e-12         8362            0            0        30158          490 
   37800    1129.6083    39143 1.267512e-12         8376            0            0        30268          499 
   37900    1136.5574    39277 1.2703556e-12         8398            0            0        30373          506 
   38000    1142.3853    39416 1.2734438e-12         8409            0            0        30487          520 
   38100    1148.5481    39557 1.2762522e-12         8431            0            0        30589          537 
   38200    1155.7146    39684 1.2791552e-12         8439            0            0        30690          555 
   38300    1162.1988    39878 1.2828203e-12         8452            0            0        30858          568 
   38400    1169.1517    40011 1.2858324e-12         8461            0            0        30969          581 
   38500    1176.2934    40151 1.2888047e-12         8484            0            0        31076          591 
   38600    1182.0553    40284 1.2918375e-12         8498            0            0        31188          598 
   38700    1189.4468    40446 1.2949652e-12         8525            0            0        31312          609 
   38800    1197.0151    40590 1.2979727e-12         8544            0            0        31427          619 
   38900    1205.2559    40744 1.301217e-12         8554            0            0        31557          633 
   39000     1212.205    40883 1.3042402e-12         8562            0            0        31669          652 
   39100    1218.5822    41045 1.3074561e-12         8588            0            0        31795          662 
   39200    1226.2319    41194 1.3106367e-12         8598            0            0        31919          677 
   39300    1234.0935    41329 1.3135741e-12         8613            0            0        32027          689 
   39400    1239.8687    41474 1.3165859e-12         8631            0            0        32141          702 
   39500    1246.8763    41620 1.3198396e-12         8635            0            0        32269          716 
   39600     1253.567    41788 1.3232107e-12         8653            0            0        32409          726 
   39700     1260.794    41950 1.3263286e-12         8680            0            0        32533          737 
   39800    1268.1171    42116 1.3296173e-12         8697            0            0        32668          751 
   39900    1276.9196    42256 1.3326323e-12         8712            0            0        32782          762 
   40000    1282.7723    42409 1.3357265e-12         8731            0            0        32905          773 
Loop time of 1282.77 on 1 procs for 40000 steps with 42409 atoms

Performance: 26941646.877 tau/day, 31.182 timesteps/s
100.0% CPU use with 1 MPI tasks x no OpenMP threads

MPI task timing breakdown:
Section |  min time  |  avg time  |  max time  |%varavg| %total
---------------------------------------------------------------
Pair    | 35.113     | 35.113     | 35.113     |   0.0 |  2.74
Neigh   | 40.36      | 40.36      | 40.36      |   0.0 |  3.15
Comm    | 2.7481     | 2.7481     | 2.7481     |   0.0 |  0.21
Output  | 0.97334    | 0.97334    | 0.97334    |   0.0 |  0.08
Modify  | 1199.1     | 1199.1     | 1199.1     |   0.0 | 93.48
Other   |            | 4.432      |            |       |  0.35

Nlocal:    42409 ave 42409 max 42409 min
Histogram: 1 0 0 0 0 0 0 0 0 0
Nghost:    0 ave 0 max 0 min
Histogram: 1 0 0 0 0 0 0 0 0 0
Neighs:    189488 ave 189488 max 189488 min
Histogram: 1 0 0 0 0 0 0 0 0 0

Total # of neighbors = 189488
Ave neighs/atom = 4.46811
Neighbor list builds = 1424
Dangerous builds = 0

Total wall time: 0:21:22
