LAMMPS (5 Nov 2016)
# NUFEB simulation

atom_style	bio
atom_modify	map array sort 100 5.0e-7
boundary	ff ff ff
newton		off
processors  4 1 1

comm_modify	vel yes
read_data_bio atom.in
  orthogonal box = (0 0 0) to (0.0001 4e-05 0.0001)
  4 by 1 by 1 MPI processor grid
  reading atoms ...
  44 atoms
  5 nutrients

group HET type 1
40 atoms in group HET
group AOB type 2
1 atoms in group AOB
group NOB type 3
1 atoms in group NOB
group EPS type 4
1 atoms in group EPS
group DEAD type 5
1 atoms in group DEAD

neighbor	5e-7 bin
neigh_modify	delay 0 one 5000

##############Define DEM Variables&Commands##############

pair_style  gran/hooke/history 1.e-4 NULL 1.e-5 NULL 0.0 1
pair_coeff  * *

timestep 10

fix 1 all nve/limit 1e-8
fix fv all viscous 1e-5

fix xw all wall/gran hooke/history 2000 NULL 500.0 NULL 1.5 0 xplane  0.0   1.0e-04
fix yw all wall/gran hooke/history 2000 NULL 500.0 NULL 1.5 0 yplane  0.0   4.0e-05
fix zw all wall/gran hooke/history 2000 NULL 500.0 NULL 1.5 0 zplane  0.0   1.0e-04

variable kanc equal 50

fix xwa all walladh v_kanc xplane  0.0   1.0e-04
fix ywa all walladh v_kanc yplane  0.0   4.0e-05
fix zwa all walladh v_kanc zplane  0.0   1.0e-04

variable ke equal 5e+10
fix j1 all epsadh 1 v_ke 1

##############Define IBm Variables##############

#variables used in fix eps_extract
variable EPSdens equal 30
variable EPSratio equal 1.25

#variables used in fix division
variable divDia equal 1.36e-6

#variables used in fix kinetics
variable diffT equal 1e-4
variable tol equal 1e-6
variable etaHET equal 0.6
variable layer equal -1

#variables used in fix death
variable deadDia equal 9e-7


##############Define IBm Commands##############

fix k1 all kinetics 100 30 12 30 v_diffT v_layer niter 10000
fix kgm all kinetics/growth/monod v_EPSdens v_etaHET
fix g1 all kinetics/diffusion v_tol pp pp nd kg
fix d1 all divide 100 v_EPSdens v_divDia 978595
fix e1 HET eps_extract 100 v_EPSratio v_EPSdens 6274
fix d5 all death 100 v_deadDia

##############Define IBm Computes##############

compute myNtypes all ntypes

##############Simulation Output##############

dump		id all custom 1000 snapshot.bubblemd id type diameter x y z
thermo_style    custom step cpu atoms biomass c_myNtypes[*]
thermo		100
thermo_modify	lost ignore

run 40000
Neighbor list info ...
  3 neighbor list requests
  update every 1 steps, delay 0 steps, check yes
  max neighbors/atom: 5000, page size: 100000
  master list distance cutoff = 1.5e-06
  ghost atom cutoff = 1.5e-06
  binsize = 7.5e-07 -> bins = 134 54 134
Memory usage per processor = 4.89845 Mbytes
Step CPU Atoms biomass c_myNtypes[1] c_myNtypes[2] c_myNtypes[3] c_myNtypes[4] c_myNtypes[5] 
       0            0       44 3.141593e-15            8            1            0            0            0 
     100    3.3118491       44 4.4801035e-15            8            0            0            0            1 
     200    6.5660341       44 6.2930703e-15            8            0            0            0            1 
     300    9.8287811       84 9.3238905e-15            8            0            0            8            1 
     400    13.094759      144 1.2409294e-14           16            0            0           10            1 
     500     16.37486      204 1.6639726e-14           16            0            0           24            1 
     600    19.658476      252 2.054266e-14           19            0            0           28            1 
     700    22.935374      412 2.5184792e-14           31            0            0           51            1 
     800    26.217362      436 2.8804219e-14           32            0            0           55            1 
     900     29.51025      484 3.2802453e-14           34            0            0           59            1 
    1000    31.936073      578 3.7139964e-14           41            0            0           71            1 
    1100    34.203831      700 4.1663988e-14           47            0            0           94            1 
    1200    36.236407      732 4.5421128e-14           52            0            0           98            1 
    1300    37.815646      816 4.9572598e-14           60            0            0          106            1 
    1400    39.555599      883 5.3681318e-14           65            0            0          114            1 
    1500    41.039394      952 5.7977331e-14           68            0            0          120            1 
    1600    42.154083     1030 6.2455918e-14           70            0            0          133            1 
    1700    43.309168     1119 6.7009787e-14           77            0            0          150            1 
    1800    44.308108     1205 7.1368001e-14           83            0            0          167            1 
    1900    45.139434     1291 7.567966e-14           89            0            0          178            1 
    2000    46.116865     1361 7.9768829e-14           98            0            0          187            1 
    2100    46.992374     1430 8.3810245e-14          105            0            0          192            1 
    2200    47.776021     1501 8.7999052e-14          114            0            0          195            1 
    2300    48.424677     1567 9.2209561e-14          118            0            0          202            1 
    2400    49.118928     1643 9.6488568e-14          124            0            0          212            1 
    2500    49.777421     1729 1.0082477e-13          131            0            0          221            1 
    2600    50.342379     1805 1.0504875e-13          136            0            0          230            1 
    2700    50.933175     1898 1.0953855e-13          138            0            0          254            1 
    2800    51.490623     1986 1.1393216e-13          145            0            0          267            1 
    2900    52.079609     2073 1.1830196e-13          150            0            0          284            1 
    3000    52.608193     2166 1.2262521e-13          157            0            0          304            1 
    3100    53.053654     2240 1.2681274e-13          160            0            0          308            1 
    3200    53.502875     2322 1.3134591e-13          167            0            0          323            1 
    3300    53.915067     2378 1.3547343e-13          170            0            0          333            1 
    3400    54.312572     2447 1.3956207e-13          179            0            0          343            1 
    3500    54.712607     2555 1.4406831e-13          186            0            0          358            1 
    3600    55.081818     2626 1.4818907e-13          193            0            0          362            1 
    3700    55.445152     2701 1.5234334e-13          196            0            0          373            1 
    3800    55.755458     2775 1.5644593e-13          203            0            0          381            1 
    3900    56.070238     2864 1.6076618e-13          207            0            0          389            1 
    4000     56.40384     2940 1.648981e-13          215            0            0          403            1 
    4100    56.665168     3039 1.6935809e-13          222            0            0          423            1 
    4200    57.000152     3144 1.7379026e-13          227            0            0          445            1 
    4300    57.278021     3217 1.7786175e-13          232            0            0          450            1 
    4400    57.672786     3290 1.8185298e-13          241            0            0          459            1 
    4500    57.927346     3355 1.8587069e-13          244            0            0          465            1 
    4600    58.229228     3436 1.9001049e-13          253            0            0          477            1 
    4700     58.46111     3506 1.9409717e-13          256            0            0          489            1 
    4800    58.722626     3585 1.9835089e-13          258            0            0          499            1 
    4900    58.925505     3664 2.023372e-13          265            0            0          506            1 
    5000    59.191599     3756 2.0650017e-13          272            0            0          523            1 
    5100    59.433093     3820 2.1045566e-13          280            0            0          532            1 
    5200     59.70009     3918 2.1475178e-13          288            0            0          555            1 
    5300    59.926036     3992 2.1880139e-13          293            0            0          568            1 
    5400    60.144674     4077 2.2292326e-13          297            0            0          582            1 
    5500    60.368711     4168 2.2717697e-13          301            0            0          595            1 
    5600    60.620415     4241 2.3108965e-13          308            0            0          601            1 
    5700    60.809251     4324 2.3524363e-13          311            0            0          615            1 
    5800    61.021493     4408 2.3923299e-13          317            0            0          629            1 
    5900    61.223942     4489 2.4325765e-13          320            0            0          637            1 
    6000      61.4287     4561 2.4712892e-13          328            0            0          645            1 
    6100    61.627634     4658 2.5133586e-13          333            0            0          661            1 
    6200    61.841547     4752 2.553979e-13          346            0            0          676            1 
    6300    62.013411     4840 2.5950748e-13          353            0            0          696            1 
    6400    62.250643     4936 2.6370862e-13          356            0            0          709            1 
    6500    62.423904     5013 2.6762965e-13          362            0            0          720            1 
    6600    62.635829     5098 2.7163986e-13          370            0            0          731            1 
    6700    62.906928     5183 2.7567413e-13          376            0            0          745            1 
    6800      63.1098     5286 2.7984093e-13          383            0            0          767            1 
    6900    63.270344     5392 2.8401681e-13          390            0            0          783            1 
    7000    63.527687     5459 2.8781639e-13          394            0            0          803            1 
    7100      63.7352     5538 2.9174329e-13          401            0            0          813            1 
    7200    63.990937     5617 2.9576933e-13          405            0            0          833            1 
    7300    64.169886     5716 2.9988696e-13          408            0            0          849            1 
    7400    64.320179     5802 3.038701e-13          411            0            0          867            1 
    7500     64.47358     5867 3.0770852e-13          414            0            0          884            1 
    7600    64.692009     5948 3.1153632e-13          418            0            0          892            1 
    7700    64.942026     6027 3.1544335e-13          422            0            0          899            1 
    7800     65.08399     6107 3.1925632e-13          428            0            0          907            1 
    7900    65.235033     6175 3.2293824e-13          435            0            0          919            1 
    8000    65.422466     6268 3.2677193e-13          445            0            0          932            1 
    8100    65.652148     6360 3.3071564e-13          449            0            0          948            1 
    8200    65.882529     6429 3.3441238e-13          450            0            0          952            1 
    8300    66.077408     6508 3.3823523e-13          453            0            0          958            1 
    8400    66.267907     6587 3.4204926e-13          460            0            0          972            1 
    8500    66.451856     6678 3.4588134e-13          463            0            0          983            1 
    8600    66.606821     6757 3.4969002e-13          466            0            0          999            1 
    8700    66.784352     6842 3.5353401e-13          470            0            0         1009            1 
    8800    66.938936     6926 3.573312e-13          477            0            0         1020            1 
    8900    67.139749     7028 3.6124197e-13          485            0            0         1034            1 
    9000    67.338537     7105 3.6495754e-13          490            0            0         1045            1 
    9100    67.611672     7204 3.6885807e-13          499            0            0         1062            1 
    9200    67.872384     7285 3.7254594e-13          502            0            0         1082            1 
    9300    68.055855     7398 3.7657893e-13          507            0            0         1102            1 
    9400    68.252082     7482 3.8027757e-13          510            0            0         1120            1 
    9500    68.530558     7585 3.8427529e-13          515            0            0         1139            1 
    9600    68.745462     7668 3.8784369e-13          519            0            0         1149            1 
    9700    68.929045     7751 3.9157532e-13          523            0            0         1166            1 
    9800    69.238497     7814 3.950876e-13          528            0            0         1177            1 
    9900    69.452056     7897 3.9874923e-13          532            0            0         1187            1 
   10000    69.718562     7984 4.0241593e-13          537            0            0         1200            1 
   10100     69.99108     8072 4.0619362e-13          542            0            0         1214            1 
   10200     70.19536     8151 4.0979183e-13          549            0            0         1230            1 
   10300    70.356108     8223 4.1330197e-13          554            0            0         1241            1 
   10400    70.610868     8313 4.170135e-13          561            0            0         1254            1 
   10500    70.800389     8410 4.2070836e-13          563            0            0         1265            1 
   10600    70.978212     8471 4.2419611e-13          565            0            0         1268            1 
   10700    71.183648     8580 4.2797788e-13          571            0            0         1284            1 
   10800    71.355699     8670 4.3159761e-13          579            0            0         1303            1 
   10900    71.605316     8767 4.3526407e-13          582            0            0         1324            1 
   11000    71.753688     8850 4.3878426e-13          589            0            0         1337            1 
   11100    71.990515     8930 4.4235696e-13          592            0            0         1351            1 
   11200    72.213372     9033 4.4621919e-13          599            0            0         1367            1 
   11300    72.464913     9134 4.4990712e-13          603            0            0         1383            1 
   11400    72.717056     9215 4.5350871e-13          608            0            0         1399            1 
   11500    72.904234     9299 4.5703347e-13          611            0            0         1410            1 
   11600    73.044708     9390 4.6053609e-13          621            0            0         1424            1 
   11700    73.271653     9487 4.6416712e-13          624            0            0         1436            1 
   11800    73.469982     9567 4.6768215e-13          625            0            0         1450            1 
   11900    73.703508     9675 4.715283e-13          627            0            0         1476            1 
   12000    73.904781     9764 4.7507089e-13          629            0            0         1495            1 
   12100    74.096277     9863 4.7881352e-13          633            0            0         1512            1 
   12200    74.269119     9966 4.8253691e-13          635            0            0         1536            1 
   12300    74.471653    10058 4.8612872e-13          641            0            0         1552            1 
   12400    74.712926    10148 4.8974505e-13          645            0            0         1562            1 
   12500     74.90429    10238 4.9321038e-13          651            0            0         1573            1 
   12600    75.121537    10321 4.966266e-13          658            0            0         1580            1 
   12700    75.319712    10409 5.0000171e-13          667            0            0         1594            1 
   12800    75.549689    10472 5.0325337e-13          672            0            0         1606            1 
   12900    75.762077    10557 5.0662265e-13          680            0            0         1623            1 
   13000    76.055437    10645 5.1009857e-13          686            0            0         1646            1 
   13100    76.252827    10738 5.1360565e-13          689            0            0         1656            1 
   13200    76.536618    10841 5.1716053e-13          693            0            0         1671            1 
   13300    76.753043    10933 5.2060627e-13          697            0            0         1685            1 
   13400    76.962245    11042 5.2441829e-13          702            0            0         1706            1 
   13500    77.173543    11154 5.2798328e-13          709            0            0         1723            1 
   13600    77.457674    11258 5.3154667e-13          715            0            0         1740            1 
   13700     77.70381    11351 5.3504421e-13          720            0            0         1753            1 
   13800     78.01206    11441 5.3836916e-13          724            0            0         1767            1 
   13900    78.244887    11540 5.4186552e-13          731            0            0         1788            1 
   14000    78.436003    11623 5.4521352e-13          735            0            0         1801            1 
   14100     78.71771    11722 5.4873706e-13          739            0            0         1819            1 
   14200    79.003617    11811 5.5211947e-13          740            0            0         1836            1 
   14300    79.209505    11901 5.5549178e-13          742            0            0         1851            1 
   14400    79.458364    12016 5.5904745e-13          751            0            0         1872            1 
   14500    79.665206    12101 5.6234119e-13          756            0            0         1897            1 
   14600     79.85796    12194 5.6571511e-13          761            0            0         1911            1 
   14700    80.117278    12281 5.6891019e-13          769            0            0         1920            1 
   14800    80.445844    12384 5.7230607e-13          775            0            0         1934            1 
   14900    80.703684    12463 5.7550568e-13          778            0            0         1947            1 
   15000    80.983369    12577 5.7906635e-13          788            0            0         1967            1 
   15100    81.345954    12661 5.8241001e-13          791            0            0         1982            1 
   15200    81.559172    12756 5.8581189e-13          795            0            0         2002            1 
   15300    81.810941    12849 5.8907069e-13          800            0            0         2019            1 
   15400    82.060965    12954 5.9257003e-13          802            0            0         2034            1 
   15500     82.28928    13058 5.9598844e-13          808            0            0         2047            1 
   15600    82.590219    13139 5.9921911e-13          812            0            0         2064            1 
   15700    82.896932    13221 6.0242457e-13          815            0            0         2076            1 
   15800    83.154846    13318 6.0576639e-13          817            0            0         2090            1 
   15900    83.443374    13419 6.0912955e-13          821            0            0         2106            1 
   16000    83.776755    13503 6.1237179e-13          824            0            0         2122            1 
   16100    84.060961    13605 6.1578002e-13          832            0            0         2135            1 
   16200    84.385363    13719 6.1924662e-13          836            0            0         2147            1 
   16300    84.664527    13803 6.224115e-13          840            0            0         2162            1 
   16400    84.895287    13908 6.2579181e-13          845            0            0         2179            1 
   16500    85.180273    14024 6.2916759e-13          852            0            0         2197            1 
   16600    85.385613    14132 6.3252261e-13          859            0            0         2211            1 
   16700    85.643723    14219 6.3561557e-13          862            0            0         2228            1 
   16800    85.886998    14306 6.3881437e-13          866            0            0         2241            1 
   16900    86.221709    14389 6.4198498e-13          869            0            0         2253            1 
   17000    86.512708    14510 6.4550258e-13          876            0            0         2271            1 
   17100    86.841008    14586 6.4837407e-13          879            0            0         2281            1 
   17200    87.135537    14688 6.5166769e-13          882            0            0         2300            1 
   17300    87.418749    14777 6.5477042e-13          888            0            0         2312            1 
   17400    87.825304    14873 6.5802147e-13          893            0            0         2322            1 
   17500    88.117228    14967 6.6125939e-13          895            0            0         2336            1 
   17600    88.485927    15066 6.6439132e-13          899            0            0         2359            1 
   17700    88.753784    15165 6.675117e-13          904            0            0         2376            1 
   17800    89.145915    15264 6.7072587e-13          907            0            0         2391            1 
   17900    89.409891    15364 6.7389887e-13          911            0            0         2410            1 
   18000    89.750747    15478 6.7725223e-13          918            0            0         2426            1 
   18100    90.108817    15577 6.8043557e-13          920            0            0         2448            1 
   18200    90.499614    15698 6.8383301e-13          923            0            0         2473            1 
   18300    90.791907    15800 6.869726e-13          930            0            0         2486            1 
   18400    91.164947    15878 6.8993083e-13          932            0            0         2502            1 
   18500    91.455784    15963 6.9299419e-13          932            0            0         2514            1 
   18600    91.829664    16070 6.9627381e-13          935            0            0         2533            1 
   18700    92.103213    16168 6.9952031e-13          939            0            0         2553            1 
   18800    92.461528    16268 7.0261503e-13          946            0            0         2575            1 
   18900    92.886039    16367 7.057703e-13          948            0            0         2591            1 
   19000    93.267368    16465 7.0875014e-13          956            0            0         2601            1 
   19100    93.645547    16564 7.1187101e-13          962            0            0         2617            1 
   19200    93.922889    16678 7.1514896e-13          968            0            0         2639            1 
   19300    94.131411    16774 7.1819023e-13          974            0            0         2650            1 
   19400    94.463854    16868 7.2119062e-13          979            0            0         2663            1 
   19500    94.845111    16972 7.2447561e-13          981            0            0         2679            1 
   19600    95.148536    17087 7.2770767e-13          981            0            0         2699            1 
   19700     95.60146    17171 7.3067329e-13          985            0            0         2708            1 
   19800    95.905548    17296 7.3404957e-13          987            0            0         2721            1 
   19900    96.310779    17395 7.3703377e-13          992            0            0         2741            1 
   20000    96.738728    17500 7.4007844e-13          994            0            0         2751            1 
   20100    97.043439    17622 7.433395e-13         1001            0            0         2768            1 
   20200    97.325749    17731 7.4645717e-13         1005            0            0         2788            1 
   20300    97.622158    17846 7.4955026e-13         1009            0            0         2807            1 
   20400    98.043948    17949 7.5276411e-13         1011            0            0         2821            1 
   20500    98.445083    18057 7.5590429e-13         1013            0            0         2835            1 
   20600    98.758707    18151 7.5887815e-13         1015            0            0         2848            1 
   20700    99.180584    18238 7.6185347e-13         1018            0            0         2862            1 
   20800    99.591853    18328 7.6472251e-13         1026            0            0         2881            1 
   20900    99.985292    18431 7.6775824e-13         1032            0            0         2893            1 
   21000    100.36037    18531 7.7074795e-13         1038            0            0         2913            1 
   21100    100.72706    18640 7.738126e-13         1043            0            0         2934            1 
   21200    101.03443    18738 7.7677121e-13         1044            0            0         2955            1 
   21300    101.49288    18831 7.7975259e-13         1053            0            0         2971            1 
   21400    101.82371    18928 7.8273832e-13         1053            0            0         2991            1 
   21500    102.17155    19027 7.8570407e-13         1056            0            0         3003            1 
   21600     102.5212    19147 7.8896388e-13         1062            0            0         3033            1 
   21700    102.88603    19257 7.9203588e-13         1067            0            0         3053            1 
   21800    103.29334    19356 7.9499364e-13         1070            0            0         3073            1 
   21900      103.775    19481 7.9825387e-13         1073            0            0         3094            1 
   22000    104.15498    19605 8.0145251e-13         1077            0            0         3121            1 
   22100    104.69748    19710 8.0449439e-13         1080            0            0         3131            1 
   22200    105.04716    19833 8.0758696e-13         1081            0            0         3159            1 
   22300    105.44522    19951 8.1074667e-13         1087            0            0         3177            1 
   22400    105.99158    20073 8.1387925e-13         1098            0            0         3190            1 
   22500    106.34325    20167 8.166476e-13         1102            0            0         3204            1 
   22600    106.77109    20271 8.1946456e-13         1107            0            0         3219            1 
   22700    107.21944    20388 8.2244483e-13         1110            0            0         3235            1 
   22800    107.52701    20501 8.2546697e-13         1115            0            0         3249            1 
   22900    107.99361    20605 8.2842694e-13         1120            0            0         3271            1 
   23000    108.41828    20722 8.3161219e-13         1122            0            0         3290            1 
   23100    108.72282    20837 8.3453409e-13         1124            0            0         3308            1 
   23200     109.1914    20961 8.3766553e-13         1125            0            0         3320            1 
   23300    109.54324    21059 8.4053895e-13         1131            0            0         3339            1 
   23400    110.12858    21164 8.4339602e-13         1135            0            0         3358            1 
   23500    110.47139    21275 8.4642621e-13         1138            0            0         3379            1 
   23600    110.85434    21385 8.494863e-13         1143            0            0         3397            1 
   23700     111.2267    21488 8.5242479e-13         1146            0            0         3406            1 
   23800    111.69784    21607 8.5541797e-13         1153            0            0         3423            1 
   23900    112.14221    21711 8.5827895e-13         1156            0            0         3436            1 
   24000    112.62431    21838 8.6137955e-13         1162            0            0         3452            1 
   24100    113.00493    21938 8.641831e-13         1165            0            0         3467            1 
   24200    113.39297    22055 8.6714963e-13         1170            0            0         3483            1 
   24300    113.83705    22155 8.699905e-13         1175            0            0         3504            1 
   24400    114.35157    22264 8.7291331e-13         1176            0            0         3516            1 
   24500    114.84836    22384 8.7592115e-13         1181            0            0         3539            1 
   24600    115.35467    22509 8.789456e-13         1185            0            0         3555            1 
   24700    115.84968    22624 8.8195362e-13         1190            0            0         3579            1 
   24800    116.24222    22713 8.846368e-13         1192            0            0         3596            1 
   24900    116.64485    22819 8.8742903e-13         1195            0            0         3607            1 
   25000    117.13954    22926 8.9031435e-13         1202            0            0         3627            1 
   25100    117.62196    23038 8.9317064e-13         1203            0            0         3642            1 
   25200     118.2176    23163 8.9616173e-13         1207            0            0         3661            1 
   25300    118.75516    23262 8.9892299e-13         1211            0            0         3685            1 
   25400    119.18925    23396 9.0204158e-13         1213            0            0         3710            1 
   25500    119.83179    23496 9.0470931e-13         1216            0            0         3731            1 
   25600    120.32701    23616 9.0758204e-13         1221            0            0         3743            1 
   25700     120.7148    23744 9.1057842e-13         1228            0            0         3761            1 
   25800    121.28594    23859 9.1344249e-13         1232            0            0         3784            1 
   25900    121.90814    23974 9.1624356e-13         1234            0            0         3801            1 
   26000    122.30316    24087 9.1910752e-13         1236            0            0         3816            1 
   26100     122.8487    24218 9.220788e-13         1239            0            0         3835            1 
   26200    123.32662    24347 9.2514424e-13         1244            0            0         3863            1 
   26300    124.04336    24456 9.2793824e-13         1245            0            0         3871            1 
   26400    124.52896    24561 9.3073719e-13         1251            0            0         3887            1 
   26500    125.14421    24684 9.3373843e-13         1252            0            0         3906            1 
   26600    125.60349    24816 9.3686262e-13         1254            0            0         3925            1 
   26700    126.10444    24909 9.3943509e-13         1258            0            0         3935            1 
   26800    126.58112    25024 9.4239282e-13         1262            0            0         3951            1 
   26900    127.09418    25163 9.4555675e-13         1264            0            0         3976            1 
   27000    127.72281    25271 9.4837589e-13         1267            0            0         3998            1 
   27100    128.42362    25396 9.5138315e-13         1271            0            0         4012            1 
   27200    129.15621    25531 9.544088e-13         1274            0            0         4036            1 
   27300    129.63517    25664 9.5755579e-13         1277            0            0         4058            1 
   27400    130.33981    25769 9.6024171e-13         1285            0            0         4074            1 
   27500    130.87418    25906 9.6339252e-13         1286            0            0         4096            1 
   27600    131.33816    26029 9.6635798e-13         1290            0            0         4124            1 
   27700    131.89738    26160 9.6937381e-13         1296            0            0         4140            1 
   27800     132.5345    26280 9.7224048e-13         1299            0            0         4155            1 
   27900    133.41655    26384 9.7484865e-13         1305            0            0         4170            1 
   28000    134.17225    26497 9.7772609e-13         1311            0            0         4175            1 
   28100    134.96482    26603 9.8032627e-13         1314            0            0         4194            1 
   28200    135.42071    26713 9.8301184e-13         1321            0            0         4209            1 
   28300    136.05611    26838 9.8589845e-13         1325            0            0         4224            1 
   28400    136.64106    26970 9.8889733e-13         1328            0            0         4243            1 
   28500    137.19646    27103 9.9182112e-13         1332            0            0         4272            1 
   28600    137.77289    27219 9.9458463e-13         1335            0            0         4283            1 
   28700    138.34884    27329 9.9738181e-13         1338            0            0         4299            1 
   28800    138.84703    27458 1.0003447e-12         1343            0            0         4312            1 
   28900    139.58704    27597 1.0033969e-12         1347            0            0         4332            2 
   29000     140.1808    27740 1.006426e-12         1353            0            0         4345            2 
   29100    140.77571    27855  1.00915e-12         1354            0            0         4358            3 
   29200    141.46357    27995 1.0121427e-12         1357            0            0         4379            3 
   29300    142.13364    28114 1.0149278e-12         1363            0            0         4385            3 
   29400    142.77899    28224 1.0176387e-12         1363            0            0         4401            3 
   29500     143.4765    28337 1.0203135e-12         1366            0            0         4421            3 
   29600    144.06529    28479 1.0234068e-12         1365            0            0         4440            3 
   29700    144.69032    28615 1.0263386e-12         1369            0            0         4465            3 
   29800    145.49652    28721 1.0290351e-12         1374            0            0         4479            4 
   29900    146.16063    28856 1.0320365e-12         1377            0            0         4501            4 
   30000    146.92081    28976 1.0349068e-12         1379            0            0         4531            4 
   30100    147.64698    29116 1.0378827e-12         1382            0            0         4547            4 
   30200    148.45544    29261 1.0408732e-12         1387            0            0         4575            5 
   30300    149.03737    29354 1.0434182e-12         1388            0            0         4587            7 
   30400    149.66786    29508 1.0465463e-12         1391            0            0         4617            9 
   30500    150.46214    29616 1.0491583e-12         1393            0            0         4631            9 
   30600    151.00823    29744 1.0519563e-12         1397            0            0         4658           11 
   30700    151.69361    29860 1.054662e-12         1399            0            0         4674           12 
   30800    152.61218    29999 1.0577934e-12         1400            0            0         4696           12 
   30900    153.17671    30120 1.0605483e-12         1405            0            0         4714           12 
   31000    153.85116    30252 1.0633478e-12         1410            0            0         4729           13 
   31100    154.55298    30382 1.0662832e-12         1414            0            0         4744           13 
   31200    155.21556    30510 1.069161e-12         1417            0            0         4760           14 
   31300    156.04222    30647 1.0722295e-12         1420            0            0         4784           15 
   31400    156.74337    30782 1.0752326e-12         1422            0            0         4806           15 
   31500    157.29839    30912 1.0781477e-12         1429            0            0         4825           15 
   31600     158.0022    31033 1.0809176e-12         1430            0            0         4843           15 
   31700    158.79673    31158 1.0838161e-12         1433            0            0         4858           15 
   31800    159.41755    31266 1.0863779e-12         1435            0            0         4874           16 
   31900    160.04785    31387 1.0891757e-12         1436            0            0         4890           17 
   32000    160.86219    31534 1.0923304e-12         1442            0            0         4914           17 
   32100    161.64583    31670 1.0952527e-12         1445            0            0         4927           17 
   32200    162.22712    31798 1.0981065e-12         1450            0            0         4940           17 
   32300    162.85973    31925 1.1010476e-12         1450            0            0         4955           17 
   32400    163.49709    32066 1.1040658e-12         1454            0            0         4972           18 
   32500     164.1035    32194 1.1068433e-12         1459            0            0         4984           18 
   32600    164.78238    32311 1.1095712e-12         1460            0            0         5000           20 
   32700    165.52621    32425 1.1122539e-12         1462            0            0         5019           20 
   32800    166.24654    32543 1.1150169e-12         1465            0            0         5037           20 
   32900    166.89192    32643 1.1175283e-12         1468            0            0         5053           20 
   33000    167.73297    32789 1.1205059e-12         1470            0            0         5072           21 
   33100    168.36636    32921 1.1233377e-12         1476            0            0         5095           21 
   33200    169.14041    33077 1.1265662e-12         1477            0            0         5120           23 
   33300    169.97647    33220 1.1295184e-12         1482            0            0         5132           24 
   33400    171.01477    33373 1.1326074e-12         1484            0            0         5146           25 
   33500    171.84921    33511 1.1355744e-12         1489            0            0         5159           27 
   33600    172.55338    33630 1.1383332e-12         1492            0            0         5176           27 
   33700    173.43538    33754 1.1409757e-12         1500            0            0         5191           28 
   33800    174.05129    33877 1.1436809e-12         1504            0            0         5210           28 
   33900    174.70428    34010 1.1465284e-12         1506            0            0         5226           28 
   34000    175.48502    34131 1.1492012e-12         1510            0            0         5242           29 
   34100    176.19174    34279 1.1522816e-12         1513            0            0         5266           29 
   34200    177.00576    34428 1.1553662e-12         1517            0            0         5286           29 
   34300     177.8047    34569 1.1583293e-12         1517            0            0         5311           30 
   34400    178.53142    34711 1.1613318e-12         1523            0            0         5325           30 
   34500    179.33818    34835 1.1641009e-12         1528            0            0         5343           30 
   34600    180.03692    34959 1.1668627e-12         1532            0            0         5368           30 
   34700     180.6309    35106 1.1697452e-12         1534            0            0         5397           33 
   34800    181.52231    35255 1.1727467e-12         1541            0            0         5422           34 
   34900    182.36347    35370 1.175372e-12         1545            0            0         5433           35 
   35000    183.29042    35509 1.1783438e-12         1546            0            0         5459           36 
   35100    184.12023    35684 1.1816072e-12         1547            0            0         5481           36 
   35200    185.00428    35809 1.1844063e-12         1545            0            0         5497           37 
   35300    185.69013    35931 1.1871146e-12         1546            0            0         5509           39 
   35400    186.66542    36061 1.1898861e-12         1546            0            0         5531           40 
   35500    187.43472    36194 1.1927461e-12         1543            0            0         5550           45 
   35600    188.51829    36332 1.1956762e-12         1550            0            0         5563           46 
   35700    189.44685    36474 1.1986669e-12         1553            0            0         5585           48 
   35800    190.50671    36620 1.2015704e-12         1557            0            0         5605           49 
   35900    191.30742    36754 1.2044881e-12         1557            0            0         5622           51 
   36000    192.01334    36912 1.2076058e-12         1562            0            0         5641           51 
   36100    192.66733    37071 1.2108773e-12         1565            0            0         5668           51 
   36200    193.52134    37193 1.2135852e-12         1568            0            0         5688           52 
   36300    194.33312    37300 1.2162967e-12         1569            0            0         5711           52 
   36400    195.19119    37426 1.2192415e-12         1571            0            0         5734           52 
   36500    195.99268    37555 1.2221295e-12         1573            0            0         5745           54 
   36600    196.90004    37698 1.224937e-12         1575            0            0         5763           55 
   36700    197.75713    37843 1.2279269e-12         1576            0            0         5782           57 
   36800    198.78379    37989 1.2309617e-12         1576            0            0         5801           58 
   36900    199.65921    38130 1.233954e-12         1576            0            0         5828           61 
   37000    200.71682    38274 1.2369751e-12         1577            0            0         5847           61 
   37100    201.76898    38441 1.2400462e-12         1580            0            0         5866           61 
   37200    202.93082    38597 1.243293e-12         1585            0            0         5885           61 
   37300    204.26234    38737 1.2462735e-12         1587            0            0         5903           62 
   37400    205.33204    38900 1.2495318e-12         1589            0            0         5930           64 
   37500     206.4651    39037 1.2524789e-12         1589            0            0         5951           67 
   37600    207.33271    39189 1.2554365e-12         1596            0            0         5973           69 
   37700    208.64411    39332  1.25843e-12         1600            0            0         5996           71 
   37800    209.91869    39474 1.2614013e-12         1601            0            0         6014           76 
   37900     210.8661    39619 1.2643316e-12         1605            0            0         6034           76 
   38000    212.38411    39758 1.2671917e-12         1603            0            0         6053           81 
   38100    213.74424    39900 1.2701256e-12         1601            0            0         6073           88 
   38200    214.78818    40055 1.2733003e-12         1599            0            0         6093           91 
   38300    215.75764    40214 1.2764126e-12         1603            0            0         6118           93 
   38400    216.65483    40372 1.2795203e-12         1604            0            0         6132           96 
   38500    217.73703    40519 1.2824495e-12         1605            0            0         6147           98 
   38600    219.12088    40656 1.2854786e-12         1611            0            0         6165           98 
   38700    219.92332    40801 1.2884694e-12         1612            0            0         6187          100 
   38800    220.98079    40941 1.2914097e-12         1611            0            0         6210          104 
   38900    222.42043    41095 1.2944919e-12         1612            0            0         6234          106 
   39000     223.4752    41240 1.2975376e-12         1615            0            0         6253          108 
   39100    224.52099    41403 1.3007493e-12         1614            0            0         6274          110 
   39200    225.47429    41542 1.3037902e-12         1613            0            0         6293          111 
   39300    226.68086    41682 1.306765e-12         1613            0            0         6302          112 
   39400    227.71054    41824 1.3097656e-12         1616            0            0         6320          115 
   39500    229.17393    41971 1.3129085e-12         1613            0            0         6347          119 
   39600    230.20592    42134 1.3161528e-12         1613            0            0         6374          122 
   39700    231.21662    42296 1.3192908e-12         1613            0            0         6391          126 
   39800    232.19237    42475 1.3226533e-12         1613            0            0         6417          128 
   39900    233.32186    42638 1.3258097e-12         1614            0            0         6437          131 
   40000    234.45226    42793 1.329054e-12         1615            0            0         6454          133 
Loop time of 234.452 on 4 procs for 40000 steps with 42793 atoms

Performance: 147407374.640 tau/day, 170.610 timesteps/s
99.9% CPU use with 4 MPI tasks x no OpenMP threads

MPI task timing breakdown:
Section |  min time  |  avg time  |  max time  |%varavg| %total
---------------------------------------------------------------
Pair    | 11.674     | 14.56      | 17.903     |  74.1 |  6.21
Neigh   | 9.5894     | 11.626     | 13.791     |  59.1 |  4.96
Comm    | 4.6792     | 5.2129     | 5.4455     |  13.7 |  2.22
Output  | 0.35928    | 0.46712    | 0.578      |  15.7 |  0.20
Modify  | 189.53     | 191.62     | 193.7      |  14.2 | 81.73
Other   |            | 10.97      |            |       |  4.68

Nlocal:    10698.2 ave 13069 max 8202 min
Histogram: 2 0 0 0 0 0 0 0 0 2
Nghost:    1086.75 ave 1718 max 757 min
Histogram: 1 1 1 0 0 0 0 0 0 1
Neighs:    49677.5 ave 63952 max 36863 min
Histogram: 2 0 0 0 0 0 0 0 1 1

Total # of neighbors = 198710
Ave neighs/atom = 4.64352
Neighbor list builds = 1446
Dangerous builds = 0

Total wall time: 0:03:54
