LAMMPS (5 Nov 2016)
# NUFEB simulation

atom_style	bio
atom_modify	map array sort 100 5.0e-7
boundary	ff ff ff
newton		off
processors  1 1 1

comm_modify	vel yes
read_data_bio atom.in
  orthogonal box = (0 0 0) to (0.0001 4e-05 0.0001)
  1 by 1 by 1 MPI processor grid
  reading atoms ...
  44 atoms
  5 nutrients

group HET type 1
40 atoms in group HET
group AOB type 2
1 atoms in group AOB
group NOB type 3
1 atoms in group NOB
group EPS type 4
1 atoms in group EPS
group DEAD type 5
1 atoms in group DEAD

neighbor	5e-7 bin
neigh_modify	delay 0 one 5000

#pair_style none
pair_style  gran/hooke/history 1.e-4 NULL 1.e-5 NULL 0.0 1

pair_coeff  * *
timestep 10

fix 1 all nve/limit 1e-8

fix fv all viscous 1e-5

fix xw all wall/gran hooke/history 2000 NULL 500.0 NULL 1.5 0 xplane  0.0   1.0e-04
fix yw all wall/gran hooke/history 2000 NULL 500.0 NULL 1.5 0 yplane  0.0   4.0e-05
fix zw all wall/gran hooke/history 2000 NULL 500.0 NULL 1.5 0 zplane  0.0   1.0e-04

variable kanc equal 50

fix xwa all walladh v_kanc xplane  0.0   1.0e-04
fix ywa all walladh v_kanc yplane  0.0   4.0e-05
fix zwa all walladh v_kanc zplane  0.0   1.0e-04

##############Ibm Variable Definitions##############

#Defining EPS density and ratio variables
variable EPSdens equal 30
variable EPSratio equal 1.25
variable divMass equal 2e-16

variable ke equal 5e+10

#Defining kinetics variables
variable temp equal 298.15
variable gasTran equal 0.08205746
variable gvol equal 8e-14
variable rth equal 0.0083144
variable pressure equal 1
variable ph equal 7.0
variable etaHET equal 0.6

#Defining diffusion variables
variable diffT equal 1e-4
variable tol equal 1e-6
variable bl equal -1
variable shearRate equal 0.0

#Defining critical diameter of death
variable deadMass equal 6e-17


##############Ibm functions##############

fix k1 all kinetics 100 30 12 30 v_temp v_rth v_gvol v_gasTran v_ph v_diffT v_bl
fix kgm all kinetics/growth/monod v_EPSdens v_etaHET 1
fix g1 all kinetics/diffusion v_shearRate v_tol pp pp nd kg
fix d1 all divide 100 v_EPSdens v_divMass 978595
fix e1 HET eps_extract 100 v_EPSratio v_EPSdens 6274
fix j1 all epsadh 1 v_ke 1
fix d5 all death 100 v_deadMass

##############Ibm compute##############

compute myNtypes all ntypes
#compute myRough all roughness 25 25

##############Simulation outputs##############

dump		id all custom 1000 snapshot.bubblemd id type diameter x y z
#dump            d0 all bio 10 concentration
thermo_style    custom step cpu atoms biomass c_myNtypes[*]
thermo		100
thermo_modify	lost ignore

run 40000
Neighbor list info ...
  3 neighbor list requests
  update every 1 steps, delay 0 steps, check yes
  max neighbors/atom: 5000, page size: 100000
  master list distance cutoff = 1.5e-06
  ghost atom cutoff = 1.5e-06
  binsize = 7.5e-07 -> bins = 134 54 134
Memory usage per processor = 13.5482 Mbytes
Step CPU Atoms biomass c_myNtypes[1] c_myNtypes[2] c_myNtypes[3] c_myNtypes[4] c_myNtypes[5] 
       0            0       44 3.141593e-15           40            1            1            1            1 
     100     10.46534       44 4.4801379e-15           40            0            0            1            3 
     200    20.842946       44 6.2932136e-15           40            0            0            1            3 
     300    31.239129       84 9.3124015e-15           40            0            0           41            3 
     400    41.574599      156 1.2535257e-14           80            0            0           73            3 
     500    51.963661      204 1.6573117e-14           80            0            0          121            3 
     600     62.27345      267 2.067725e-14           99            0            0          165            3 
     700    72.718649      384 2.5067273e-14          142            0            0          239            3 
     800    83.331039      427 2.8780504e-14          160            0            0          264            3 
     900    93.998787      490 3.2962022e-14          172            0            0          315            3 
    1000    101.55881      559 3.7128868e-14          191            0            0          365            3 
    1100    109.05356      659 4.1489684e-14          229            0            0          427            3 
    1200    115.13637      731 4.5299626e-14          277            0            0          451            3 
    1300    121.75607      805 4.9565175e-14          295            0            0          507            3 
    1400    127.05602      875 5.3771354e-14          318            0            0          554            3 
    1500    131.25284      966 5.8305697e-14          337            0            0          626            3 
    1600    135.21595     1026 6.2563974e-14          351            0            0          672            3 
    1700    139.05402     1096 6.6958539e-14          367            0            0          726            3 
    1800    142.34806     1167 7.1171103e-14          393            0            0          771            3 
    1900    145.29974     1234 7.5321776e-14          421            0            0          810            3 
    2000    148.07547     1331 7.9644921e-14          463            0            0          865            3 
    2100    150.80697     1391 8.3789142e-14          486            0            0          902            3 
    2200    153.12734     1475 8.8074176e-14          520            0            0          952            3 
    2300    155.66122     1573 9.244433e-14          557            0            0         1013            3 
    2400    157.93876     1653 9.6694114e-14          586            0            0         1064            3 
    2500    159.89298     1750 1.0124253e-13          613            0            0         1134            3 
    2600    161.75783     1827 1.0550296e-13          641            0            0         1183            3 
    2700    163.90781     1898 1.0974779e-13          665            0            0         1230            3 
    2800    165.45554     1970 1.1405754e-13          684            0            0         1283            3 
    2900    166.74298     2052 1.1842419e-13          708            0            0         1341            3 
    3000    168.65772     2138 1.2277414e-13          733            0            0         1402            3 
    3100    169.96119     2212 1.2703346e-13          756            0            0         1453            3 
    3200    171.42806     2295 1.3131695e-13          786            0            0         1506            3 
    3300    172.76053     2369 1.355665e-13          811            0            0         1555            3 
    3400    174.43338     2447 1.3977314e-13          840            0            0         1604            3 
    3500    175.89297     2524 1.4403394e-13          860            0            0         1661            3 
    3600    177.13051     2589 1.4814789e-13          881            0            0         1705            3 
    3700     178.3642     2676 1.5237852e-13          912            0            0         1761            3 
    3800    179.75295     2764 1.5666219e-13          940            0            0         1821            3 
    3900    180.78432     2829 1.6083583e-13          956            0            0         1870            3 
    4000    181.75915     2902 1.6500406e-13          981            0            0         1918            3 
    4100    182.85856     2978 1.6916818e-13         1007            0            0         1968            3 
    4200    183.75671     3063 1.7344581e-13         1030            0            0         2030            3 
    4300     184.9291     3141 1.7761659e-13         1055            0            0         2083            3 
    4400    186.01263     3242 1.8202237e-13         1083            0            0         2156            3 
    4500    186.95977     3323 1.8624084e-13         1107            0            0         2213            3 
    4600    188.00106     3400 1.9033652e-13         1134            0            0         2263            3 
    4700    188.75012     3465 1.943209e-13         1159            0            0         2303            3 
    4800     189.5867     3546 1.9860303e-13         1176            0            0         2367            3 
    4900    190.27388     3638 2.0291258e-13         1204            0            0         2431            3 
    5000    191.21434     3718 2.0705414e-13         1227            0            0         2488            3 
    5100    191.95247     3818 2.1143776e-13         1255            0            0         2560            3 
    5200    192.66345     3899 2.1553362e-13         1284            0            0         2612            3 
    5300    193.48143     3991  2.19755e-13         1310            0            0         2678            3 
    5400    194.17087     4064 2.2370588e-13         1338            0            0         2723            3 
    5500    195.25495     4144 2.2777201e-13         1365            0            0         2776            3 
    5600    195.79867     4221 2.3180204e-13         1388            0            0         2830            3 
    5700    196.64554     4304 2.3573834e-13         1423            0            0         2878            3 
    5800    197.30449     4385 2.3977835e-13         1451            0            0         2931            3 
    5900    198.10481     4488 2.439705e-13         1485            0            0         3000            3 
    6000    198.84479     4569 2.4798454e-13         1511            0            0         3055            3 
    6100    199.48484     4643 2.5201595e-13         1527            0            0         3113            3 
    6200    200.26352     4707 2.5585643e-13         1548            0            0         3156            3 
    6300    201.01721     4778 2.5966307e-13         1577            0            0         3198            3 
    6400    201.65178     4876 2.6400856e-13         1592            0            0         3281            3 
    6500    202.33525     4954 2.6790764e-13         1620            0            0         3331            3 
    6600    203.29706     5039 2.7191249e-13         1647            0            0         3389            3 
    6700    203.97005     5114 2.7582223e-13         1668            0            0         3443            3 
    6800    204.62674     5208 2.7995308e-13         1692            0            0         3513            3 
    6900    205.25678     5284 2.8390526e-13         1713            0            0         3568            3 
    7000    206.00377     5365 2.8783468e-13         1737            0            0         3625            3 
    7100    206.51739     5448 2.9173088e-13         1765            0            0         3680            3 
    7200    207.25455     5524 2.9558373e-13         1789            0            0         3732            3 
    7300    208.07569     5609 2.9956738e-13         1812            0            0         3794            3 
    7400    208.81539     5703 3.0358189e-13         1840            0            0         3860            3 
    7500    209.70986     5802 3.0773528e-13         1863            0            0         3936            3 
    7600    210.47816     5895 3.1174159e-13         1888            0            0         4004            3 
    7700    210.91762     5998 3.1586397e-13         1918            0            0         4077            3 
    7800    211.54259     6100 3.2000906e-13         1940            0            0         4157            3 
    7900    212.24216     6180 3.2388764e-13         1957            0            0         4220            3 
    8000    212.73493     6274 3.2788903e-13         1983            0            0         4288            3 
    8100    213.48411     6356 3.3174078e-13         2005            0            0         4348            3 
    8200    214.11629     6436 3.3558198e-13         2026            0            0         4407            3 
    8300    214.77131     6516 3.3935933e-13         2050            0            0         4463            3 
    8400    215.59568     6602 3.4319034e-13         2074            0            0         4525            3 
    8500    216.53398     6667 3.4685212e-13         2095            0            0         4569            3 
    8600    217.14534     6750 3.506537e-13         2118            0            0         4629            3 
    8700    217.80145     6824 3.5435327e-13         2142            0            0         4679            3 
    8800    218.33854     6911 3.5826648e-13         2166            0            0         4742            3 
    8900    218.97211     6984 3.6201298e-13         2183            0            0         4798            3 
    9000    219.62974     7085 3.6600774e-13         2209            0            0         4873            3 
    9100    220.67376     7188 3.699447e-13         2239            0            0         4946            3 
    9200    221.32487     7277 3.7379523e-13         2263            0            0         5011            3 
    9300    221.92671     7358 3.7750874e-13         2286            0            0         5069            3 
    9400    222.68409     7443 3.8123702e-13         2309            0            0         5131            3 
    9500    223.38099     7518 3.8483635e-13         2332            0            0         5183            3 
    9600     224.1453     7588 3.8843815e-13         2352            0            0         5233            3 
    9700    224.78958     7677 3.9229726e-13         2370            0            0         5304            3 
    9800    225.43632     7774 3.9621555e-13         2390            0            0         5381            3 
    9900    225.98765     7859 3.9998743e-13         2409            0            0         5447            3 
   10000    226.73295     7934 4.035926e-13         2432            0            0         5499            3 
   10100    227.44451     8032 4.074769e-13         2454            0            0         5575            3 
   10200    228.17159     8117 4.1115625e-13         2476            0            0         5638            3 
   10300     229.0824     8202 4.1476848e-13         2502            0            0         5697            3 
   10400     230.0109     8280 4.1847975e-13         2517            0            0         5760            3 
   10500    230.57842     8377 4.2229696e-13         2540            0            0         5834            3 
   10600    231.09797     8460 4.260145e-13         2553            0            0         5904            3 
   10700    231.65487     8549 4.298116e-13         2569            0            0         5977            3 
   10800    232.49568     8638 4.3345774e-13         2598            0            0         6037            3 
   10900     233.2783     8721 4.371095e-13         2617            0            0         6101            3 
   11000    233.81511     8798 4.4064619e-13         2638            0            0         6157            3 
   11100    234.64631     8883 4.4425059e-13         2661            0            0         6219            3 
   11200    235.36648     8962 4.4780301e-13         2685            0            0         6274            3 
   11300    236.18899     9059 4.5149618e-13         2710            0            0         6346            3 
   11400    236.95301     9145 4.5504854e-13         2733            0            0         6409            3 
   11500    237.51001     9242 4.5868823e-13         2761            0            0         6478            3 
   11600    238.30956     9332 4.622941e-13         2785            0            0         6544            3 
   11700    238.91433     9414 4.6583063e-13         2805            0            0         6606            3 
   11800    239.88163     9504  4.69455e-13         2826            0            0         6675            3 
   11900    240.65236     9594 4.7308934e-13         2846            0            0         6745            3 
   12000     241.7053     9681 4.7667959e-13         2861            0            0         6817            3 
   12100     242.7012     9779 4.8039482e-13         2883            0            0         6893            3 
   12200     243.5443     9862 4.8390165e-13         2904            0            0         6955            3 
   12300    244.16392     9963 4.8758718e-13         2928            0            0         7032            3 
   12400    244.91884    10056 4.9121727e-13         2947            0            0         7106            3 
   12500    245.65587    10146 4.9468539e-13         2976            0            0         7167            3 
   12600    246.39949    10239 4.9828702e-13         3001            0            0         7235            3 
   12700     247.1265    10327 5.0178746e-13         3022            0            0         7302            3 
   12800    247.90454    10419 5.0534711e-13         3046            0            0         7370            3 
   12900     248.6559    10511 5.0892081e-13         3064            0            0         7444            3 
   13000    249.43817    10618 5.1260148e-13         3092            0            0         7523            3 
   13100    250.15974    10694 5.1593079e-13         3113            0            0         7578            3 
   13200    251.03866    10781 5.1933949e-13         3136            0            0         7642            3 
   13300    252.14132    10867 5.2262284e-13         3169            0            0         7695            3 
   13400    253.24592    10960 5.2616299e-13         3189            0            0         7768            3 
   13500    254.02792    11049 5.2958662e-13         3211            0            0         7835            3 
   13600      255.251    11152 5.332112e-13         3230            0            0         7919            3 
   13700    255.95449    11249 5.3679296e-13         3250            0            0         7996            3 
   13800    256.77466    11335 5.4022763e-13         3267            0            0         8065            3 
   13900    257.85226    11429 5.4379407e-13         3283            0            0         8143            3 
   14000    258.70402    11522 5.4718052e-13         3305            0            0         8214            3 
   14100    259.48905    11612 5.5057821e-13         3328            0            0         8281            3 
   14200    260.36698    11714 5.5415532e-13         3350            0            0         8361            3 
   14300    261.41255    11822 5.577375e-13         3374            0            0         8445            3 
   14400    262.40466    11895 5.6092775e-13         3394            0            0         8498            3 
   14500    263.35935    11987 5.6435401e-13         3414            0            0         8570            3 
   14600    264.58927    12077 5.6783067e-13         3430            0            0         8644            3 
   14700    265.65811    12160 5.7125905e-13         3439            0            0         8718            3 
   14800    266.61517    12258 5.7482108e-13         3455            0            0         8800            3 
   14900    267.49452    12352 5.7831773e-13         3469            0            0         8880            3 
   15000    268.40738    12436 5.816466e-13         3490            0            0         8943            3 
   15100    269.31327    12515 5.8484768e-13         3511            0            0         9001            3 
   15200    270.32609    12604 5.8819453e-13         3533            0            0         9068            3 
   15300    271.29106    12708 5.9178336e-13         3551            0            0         9154            3 
   15400    272.50199    12815 5.9515378e-13         3586            0            0         9226            3 
   15500    273.49573    12910 5.9857776e-13         3603            0            0         9304            3 
   15600    274.34921    13015 6.0195064e-13         3632            0            0         9380            3 
   15700    275.55529    13102 6.0513425e-13         3654            0            0         9445            3 
   15800    276.36191    13188 6.0833883e-13         3680            0            0         9505            3 
   15900    277.38866    13286 6.1165055e-13         3704            0            0         9579            3 
   16000    278.47295    13370 6.1481993e-13         3725            0            0         9642            3 
   16100    279.52833    13474 6.1819079e-13         3751            0            0         9720            3 
   16200    280.58665    13553 6.2136177e-13         3770            0            0         9780            3 
   16300    281.49786    13669 6.2492028e-13         3793            0            0         9873            3 
   16400    282.45439    13771 6.2830207e-13         3814            0            0         9954            3 
   16500    283.50842    13858 6.3139455e-13         3841            0            0        10014            3 
   16600    284.57116    13966 6.3487969e-13         3859            0            0        10104            3 
   16700    285.78055    14082 6.3843574e-13         3880            0            0        10199            3 
   16800    287.04775    14174 6.4167093e-13         3901            0            0        10270            3 
   16900    288.42256    14276 6.450483e-13         3920            0            0        10353            3 
   17000    289.69462    14372 6.4840038e-13         3937            0            0        10432            3 
   17100    290.75374    14471 6.5178163e-13         3955            0            0        10513            3 
   17200    291.64106    14583 6.5520589e-13         3980            0            0        10600            3 
   17300    292.82232    14675 6.5844415e-13         4005            0            0        10667            3 
   17400    293.98831    14774 6.617288e-13         4025            0            0        10746            3 
   17500    294.99565    14864 6.6502369e-13         4038            0            0        10823            3 
   17600     296.3382    14955 6.6813737e-13         4062            0            0        10890            3 
   17700    297.28198    15054 6.7136077e-13         4085            0            0        10966            3 
   17800    298.30927    15145 6.7449565e-13         4109            0            0        11033            3 
   17900    299.66112    15240 6.7778228e-13         4128            0            0        11109            3 
   18000    300.82226    15336  6.80994e-13         4148            0            0        11185            3 
   18100    301.98605    15427 6.8418395e-13         4164            0            0        11260            3 
   18200    303.62363    15512 6.8725727e-13         4185            0            0        11324            3 
   18300    304.55115    15614 6.9039416e-13         4212            0            0        11399            3 
   18400    305.72544    15709 6.9352958e-13         4238            0            0        11468            3 
   18500    307.12911    15833 6.9704789e-13         4260            0            0        11570            3 
   18600    308.31652    15928 7.0027065e-13         4273            0            0        11652            3 
   18700    309.34395    16022 7.033806e-13         4295            0            0        11724            3 
   18800     310.5428    16133 7.0675933e-13         4316            0            0        11814            3 
   18900      311.905    16236 7.0999281e-13         4334            0            0        11899            3 
   19000    313.08659    16342 7.1333879e-13         4353            0            0        11986            3 
   19100    314.10065    16478 7.1692222e-13         4383            0            0        12092            3 
   19200    315.34559    16602 7.2034084e-13         4412            0            0        12187            3 
   19300    316.53173    16714 7.2370389e-13         4431            0            0        12280            3 
   19400    317.75336    16804 7.267896e-13         4445            0            0        12356            3 
   19500    318.90577    16908 7.2993456e-13         4473            0            0        12432            3 
   19600    320.04009    16998 7.3298205e-13         4494            0            0        12501            3 
   19700    321.29907    17094 7.3599604e-13         4519            0            0        12572            3 
   19800    322.68499    17205 7.3919649e-13         4544            0            0        12658            3 
   19900     324.1483    17301 7.4239977e-13         4559            0            0        12739            3 
   20000    325.72282    17415 7.4564088e-13         4587            0            0        12825            3 
   20100    326.95765    17508 7.4871858e-13         4607            0            0        12898            3 
   20200    328.14451    17604 7.518622e-13         4626            0            0        12975            3 
   20300    329.65446    17710 7.5501295e-13         4648            0            0        13059            3 
   20400    331.06159    17810 7.5801288e-13         4676            0            0        13131            3 
   20500    332.83621    17911 7.6124351e-13         4691            0            0        13217            3 
   20600    334.26789    18028 7.6444519e-13         4719            0            0        13306            3 
   20700    336.28168    18147 7.6783964e-13         4738            0            0        13406            3 
   20800    337.86194    18250 7.7101007e-13         4760            0            0        13487            3 
   20900    339.74196    18354 7.7413663e-13         4778            0            0        13573            3 
   21000    341.11427    18460 7.7720998e-13         4808            0            0        13649            3 
   21100    342.45998    18577 7.8046636e-13         4832            0            0        13742            3 
   21200    343.84749    18687 7.836655e-13         4856            0            0        13828            3 
   21300    345.40413    18792 7.8682072e-13         4872            0            0        13917            3 
   21400    347.09151    18900 7.9007166e-13         4887            0            0        14010            3 
   21500    348.47604    18995 7.9299977e-13         4914            0            0        14078            3 
   21600    350.34802    19103 7.9613357e-13         4941            0            0        14159            3 
   21700     352.0592    19189 7.9894852e-13         4964            0            0        14222            3 
   21800    354.23177    19311 8.021373e-13         4994            0            0        14314            3 
   21900    355.85444    19433 8.0545909e-13         5016            0            0        14414            3 
   22000    357.38041    19556 8.0867037e-13         5042            0            0        14511            3 
   22100    358.94543    19666 8.1181868e-13         5059            0            0        14604            3 
   22200    360.46344    19783 8.1500609e-13         5081            0            0        14699            3 
   22300     361.8712    19873 8.1789103e-13         5106            0            0        14764            3 
   22400    363.60839    19987 8.2094952e-13         5136            0            0        14848            3 
   22500    365.14385    20106 8.2419144e-13         5157            0            0        14946            3 
   22600    366.75159    20202 8.2720389e-13         5172            0            0        15027            3 
   22700    368.08949    20316 8.3036444e-13         5194            0            0        15119            3 
   22800    369.50104    20406 8.3331927e-13         5209            0            0        15194            3 
   22900    370.67775    20516 8.3642747e-13         5229            0            0        15284            3 
   23000    372.14455    20624 8.3950101e-13         5252            0            0        15369            3 
   23100    373.36747    20736 8.4245743e-13         5282            0            0        15451            3 
   23200    374.73396    20833 8.4540001e-13         5302            0            0        15528            3 
   23300    376.19199    20939 8.484121e-13         5324            0            0        15612            3 
   23400    377.94652    21027 8.5111457e-13         5346            0            0        15678            3 
   23500    379.53354    21160 8.5442191e-13         5371            0            0        15786            3 
   23600    381.22451    21270 8.5746488e-13         5390            0            0        15877            3 
   23700    382.61284    21368 8.6041367e-13         5412            0            0        15953            3 
   23800    384.51512    21491 8.6369186e-13         5431            0            0        16057            3 
   23900     385.8851    21594 8.6669147e-13         5448            0            0        16143            3 
   24000     387.6693    21703 8.696786e-13         5472            0            0        16228            3 
   24100    389.35121    21828 8.7286678e-13         5495            0            0        16330            3 
   24200    391.08759    21931 8.7580002e-13         5518            0            0        16410            3 
   24300     393.0656    22038 8.7860854e-13         5550            0            0        16485            3 
   24400    394.31301    22124 8.8138853e-13         5569            0            0        16552            3 
   24500    396.02232    22239 8.845022e-13         5591            0            0        16645            3 
   24600    397.89217    22353 8.8752218e-13         5617            0            0        16733            3 
   24700    399.43232    22486 8.9078367e-13         5642            0            0        16840            4 
   24800    401.04796    22569 8.9356283e-13         5656            0            0        16909            4 
   24900     403.2144    22688 8.966075e-13         5682            0            0        17002            4 
   25000    405.12016    22802 8.9966122e-13         5702            0            0        17096            4 
   25100    406.70527    22932 9.0300874e-13         5720            0            0        17208            4 
   25200    408.54755    23046 9.0606702e-13         5746            0            0        17296            4 
   25300    410.65467    23199 9.0962305e-13         5768            0            0        17426            5 
   25400    412.52114    23333 9.1277537e-13         5797            0            0        17531            5 
   25500    414.55779    23450 9.1588434e-13         5818            0            0        17627            5 
   25600    416.60541    23575 9.1907722e-13         5842            0            0        17728            5 
   25700    418.24204    23678 9.2201187e-13         5862            0            0        17811            5 
   25800    419.71783    23810 9.2521573e-13         5889            0            0        17916            5 
   25900    421.79211    23931 9.2829721e-13         5914            0            0        18012            5 
   26000    423.81846    24043 9.3125505e-13         5935            0            0        18102            6 
   26100    425.45392    24168 9.3423724e-13         5970            0            0        18192            6 
   26200    427.25309    24307 9.3754451e-13         5995            0            0        18305            7 
   26300    429.23796    24436 9.4077401e-13         6016            0            0        18413            7 
   26400    431.24492    24540 9.4359643e-13         6040            0            0        18493            7 
   26500    432.95178    24675 9.4679173e-13         6067            0            0        18600            8 
   26600    434.84292    24778 9.4961209e-13         6090            0            0        18679            9 
   26700    436.83863    24904 9.526752e-13         6119            0            0        18776            9 
   26800    439.02841    25035 9.558769e-13         6142            0            0        18883           10 
   26900    441.43607    25150 9.5890379e-13         6160            0            0        18978           12 
   27000    443.33397    25273 9.6200198e-13         6184            0            0        19077           12 
   27100    445.03437    25398 9.651738e-13         6199            0            0        19185           14 
   27200    447.18399    25512 9.6808833e-13         6224            0            0        19274           14 
   27300    449.26099    25606 9.7080799e-13         6245            0            0        19347           14 
   27400    450.76055    25716 9.7375898e-13         6267            0            0        19433           16 
   27500    452.27026    25830 9.7668057e-13         6291            0            0        19522           17 
   27600    454.78436    25957 9.7981975e-13         6312            0            0        19628           17 
   27700    456.96849    26087 9.8294727e-13         6336            0            0        19734           17 
   27800    458.88288    26205 9.8590688e-13         6362            0            0        19825           18 
   27900    461.08786    26330 9.8897759e-13         6383            0            0        19926           21 
   28000    462.68471    26467 9.9192156e-13         6420            0            0        20023           24 
   28100    464.73545    26586 9.9486073e-13         6445            0            0        20116           25 
   28200     466.5839    26712 9.9793955e-13         6469            0            0        20217           26 
   28300    469.42877    26830 1.0009234e-12         6489            0            0        20315           26 
   28400     471.1729    26951 1.0039652e-12         6506            0            0        20415           30 
   28500    472.95099    27069 1.0068681e-12         6532            0            0        20504           33 
   28600    474.85196    27213 1.0101967e-12         6552            0            0        20626           35 
   28700    476.72601    27340 1.0131542e-12         6578            0            0        20724           38 
   28800    479.48666    27483 1.0163793e-12         6604            0            0        20840           39 
   28900    482.21449    27603 1.0193903e-12         6620            0            0        20939           44 
   29000    484.17128    27719 1.022324e-12         6637            0            0        21034           48 
   29100    485.96619    27824 1.0251306e-12         6661            0            0        21114           49 
   29200    487.86834    27961 1.0282421e-12         6682            0            0        21226           53 
   29300    490.42984    28089 1.0314581e-12         6705            0            0        21330           54 
   29400    492.47926    28223 1.034481e-12         6734            0            0        21434           55 
   29500    494.56595    28340 1.0373374e-12         6764            0            0        21521           55 
   29600    497.12986    28472 1.0404636e-12         6779            0            0        21635           58 
   29700    499.59985    28585 1.0434727e-12         6794            0            0        21732           59 
   29800    501.73712    28707 1.0463826e-12         6824            0            0        21823           60 
   29900    504.34194    28819 1.0492211e-12         6846            0            0        21912           61 
   30000     506.3669    28940 1.0521011e-12         6874            0            0        22003           63 
   30100    508.05735    29057 1.0550533e-12         6892            0            0        22100           65 
   30200    510.64453    29187 1.0581073e-12         6914            0            0        22204           69 
   30300    513.46894    29315 1.0612016e-12         6933            0            0        22311           71 
   30400    515.67799    29442 1.0640818e-12         6964            0            0        22406           72 
   30500    517.89357    29567 1.0670496e-12         6984            0            0        22510           73 
   30600     520.2287    29721 1.0703261e-12         7010            0            0        22636           75 
   30700    523.04803    29859 1.0735341e-12         7030            0            0        22751           78 
   30800    525.72028    30008 1.0767976e-12         7051            0            0        22874           83 
   30900    527.99326    30148 1.0799346e-12         7074            0            0        22984           90 
   31000    530.57276    30284 1.0829433e-12         7098            0            0        23090           96 
   31100    533.08339    30411 1.0859145e-12         7119            0            0        23187          105 
   31200    535.44371    30532 1.0889492e-12         7138            0            0        23285          109 
   31300    538.02845    30671 1.0920788e-12         7164            0            0        23393          114 
   31400    540.40894    30791 1.0951145e-12         7180            0            0        23493          118 
   31500    542.61422    30925 1.0983177e-12         7197            0            0        23607          121 
   31600    544.61188    31053 1.1014175e-12         7212            0            0        23718          123 
   31700    547.62628    31178 1.104448e-12         7229            0            0        23823          126 
   31800    550.30589    31332 1.1077086e-12         7253            0            0        23947          132 
   31900    552.67471    31459 1.1106972e-12         7273            0            0        24049          137 
   32000    555.17891    31587 1.1137352e-12         7293            0            0        24153          141 
   32100    558.23606    31733 1.1168631e-12         7326            0            0        24266          141 
   32200    561.10055    31868 1.1200013e-12         7352            0            0        24372          144 
   32300    563.77559    31996 1.1230668e-12         7372            0            0        24480          144 
   32400    566.31579    32139 1.1262654e-12         7396            0            0        24595          148 
   32500    568.46681    32271 1.1293524e-12         7412            0            0        24706          153 
   32600    571.37007    32404 1.1325369e-12         7423            0            0        24817          164 
   32700     574.8947    32532 1.1356488e-12         7439            0            0        24923          170 
   32800    578.04857    32662 1.1386702e-12         7468            0            0        25021          173 
   32900    580.19619    32788 1.1416007e-12         7491            0            0        25116          181 
   33000    583.19631    32934 1.1448061e-12         7522            0            0        25230          182 
   33100    586.13345    33087 1.1481411e-12         7545            0            0        25358          184 
   33200    588.83414    33213 1.1511388e-12         7565            0            0        25458          190 
   33300     591.1531    33349 1.1542523e-12         7587            0            0        25564          198 
   33400    593.57156    33474 1.1572979e-12         7605            0            0        25667          202 
   33500    596.01205    33607 1.160388e-12         7623            0            0        25775          209 
   33600    599.09303    33741 1.1634729e-12         7647            0            0        25883          211 
   33700    602.02895    33907 1.1668118e-12         7672            0            0        26019          216 
   33800    604.72732    34041 1.1699731e-12         7691            0            0        26131          219 
   33900    607.84563    34189 1.1731571e-12         7715            0            0        26248          226 
   34000    610.48749    34326 1.1763344e-12         7731            0            0        26359          236 
   34100     612.9049    34456 1.179279e-12         7755            0            0        26459          242 
   34200    615.54357    34598 1.1823477e-12         7778            0            0        26572          248 
   34300    618.42028    34764 1.1857933e-12         7800            0            0        26714          250 
   34400    621.69825    34906 1.1890019e-12         7822            0            0        26829          255 
   34500    624.48705    35034 1.1922455e-12         7836            0            0        26939          259 
   34600    626.95125    35173 1.1954513e-12         7852            0            0        27053          268 
   34700     629.6368    35315 1.1986122e-12         7873            0            0        27165          277 
   34800    632.94846    35470 1.2018898e-12         7892            0            0        27288          290 
   34900    636.34734    35597 1.2048914e-12         7913            0            0        27387          297 
   35000    639.09246    35732 1.2081234e-12         7929            0            0        27499          304 
   35100    642.05711    35866 1.2112132e-12         7953            0            0        27602          311 
   35200    645.59262    35997 1.2143067e-12         7970            0            0        27707          320 
   35300    648.49108    36129 1.2174965e-12         7981            0            0        27821          327 
   35400    651.58402    36272 1.2206199e-12         8008            0            0        27930          334 
   35500    654.74135    36417 1.2238672e-12         8027            0            0        28044          346 
   35600    658.14913    36574 1.2272522e-12         8043            0            0        28175          356 
   35700    661.42804    36729 1.230643e-12         8066            0            0        28302          361 
   35800    664.87566    36888 1.234081e-12         8091            0            0        28431          366 
   35900    667.89447    37016 1.2370803e-12         8110            0            0        28528          378 
   36000     669.9399    37175 1.2403895e-12         8141            0            0        28649          385 
   36100    673.56706    37329 1.2436956e-12         8170            0            0        28768          391 
   36200    676.39061    37479 1.2468673e-12         8199            0            0        28881          399 
   36300    679.49662    37611 1.2499179e-12         8221            0            0        28982          408 
   36400    682.76494    37763 1.2532528e-12         8234            0            0        29108          421 
   36500    685.24324    37909 1.2565256e-12         8261            0            0        29222          426 
   36600    688.75747    38065 1.2599273e-12         8285            0            0        29347          433 
   36700    691.20818    38229 1.2633948e-12         8299            0            0        29487          443 
   36800    694.54325    38371 1.2665644e-12         8321            0            0        29597          453 
   36900    697.86727    38532 1.2701622e-12         8327            0            0        29739          466 
   37000    701.17879    38712 1.2738638e-12         8347            0            0        29889          476 
   37100    704.27624    38857 1.2771599e-12         8367            0            0        30003          487 
   37200     707.5166    39026 1.2807222e-12         8396            0            0        30139          491 
   37300     710.6088    39150 1.2837871e-12         8416            0            0        30237          497 
   37400     714.4511    39312 1.2872605e-12         8439            0            0        30366          507 
   37500    717.90118    39479 1.2907221e-12         8464            0            0        30501          514 
   37600    720.50588    39616 1.2939535e-12         8478            0            0        30618          520 
   37700    723.71972    39756 1.2971943e-12         8487            0            0        30735          534 
   37800    726.96211    39901 1.3005845e-12         8502            0            0        30857          542 
   37900    729.98765    40061 1.3040851e-12         8527            0            0        30986          548 
   38000    732.71896    40211 1.3075963e-12         8543            0            0        31113          555 
   38100    736.91156    40339 1.3107505e-12         8565            0            0        31212          562 
   38200    740.39428    40504 1.3142252e-12         8584            0            0        31345          575 
   38300    744.04107    40699 1.3179644e-12         8618            0            0        31496          585 
   38400      747.225    40881 1.3216545e-12         8642            0            0        31642          597 
   38500    750.75401    41037 1.3250028e-12         8669            0            0        31760          608 
   38600    753.06143    41170 1.3281262e-12         8688            0            0        31864          618 
   38700    757.10917    41345  1.33187e-12         8704            0            0        32014          627 
   38800    760.77364    41504 1.3354278e-12         8727            0            0        32145          632 
   38900    765.05143    41661 1.3389366e-12         8745            0            0        32278          638 
   39000    767.43831    41803 1.3422179e-12         8763            0            0        32388          652 
   39100    770.24755    41943 1.3456691e-12         8771            0            0        32507          665 
   39200    773.76145    42104 1.3492311e-12         8799            0            0        32635          670 
   39300    777.53529    42278 1.3528774e-12         8821            0            0        32779          678 
   39400    781.09596    42433 1.3563683e-12         8840            0            0        32902          691 
   39500      784.664    42574 1.359691e-12         8865            0            0        33012          697 
   39600    787.31539    42735 1.3631591e-12         8891            0            0        33135          709 
   39700    791.83935    42884 1.3664855e-12         8912            0            0        33250          722 
   39800    795.68654    43042 1.3698819e-12         8940            0            0        33370          732 
   39900     799.5071    43188 1.3732578e-12         8956            0            0        33486          746 
   40000    803.46847    43336 1.3767312e-12         8965            0            0        33607          764 
Loop time of 803.469 on 1 procs for 40000 steps with 43336 atoms

Performance: 43013506.827 tau/day, 49.784 timesteps/s
100.0% CPU use with 1 MPI tasks x no OpenMP threads

MPI task timing breakdown:
Section |  min time  |  avg time  |  max time  |%varavg| %total
---------------------------------------------------------------
Pair    | 49.104     | 49.104     | 49.104     |   0.0 |  6.11
Neigh   | 45.125     | 45.125     | 45.125     |   0.0 |  5.62
Comm    | 3.8228     | 3.8228     | 3.8228     |   0.0 |  0.48
Output  | 1.0507     | 1.0507     | 1.0507     |   0.0 |  0.13
Modify  | 697.32     | 697.32     | 697.32     |   0.0 | 86.79
Other   |            | 7.044      |            |       |  0.88

Nlocal:    43336 ave 43336 max 43336 min
Histogram: 1 0 0 0 0 0 0 0 0 0
Nghost:    0 ave 0 max 0 min
Histogram: 1 0 0 0 0 0 0 0 0 0
Neighs:    198203 ave 198203 max 198203 min
Histogram: 1 0 0 0 0 0 0 0 0 0

Total # of neighbors = 198203
Ave neighs/atom = 4.57363
Neighbor list builds = 1459
Dangerous builds = 0

Total wall time: 0:13:23
