ITEM: TIMESTEP
0
ITEM: NUMBER OF ATOMS
44
ITEM: BOX BOUNDS ff ff ff
0.0000000000000000e+00 1.0000000000000000e-04
0.0000000000000000e+00 4.0000000000000003e-05
0.0000000000000000e+00 1.0000000000000000e-04
ITEM: ATOMS id type diameter x y z 
1 1 1e-06 5e-06 5e-06 1e-06 
41 2 1e-08 6e-06 5e-06 1e-06 
2 1 1e-06 1.5e-05 5e-06 1e-06 
3 1 1e-06 2.5e-05 5e-06 1e-06 
4 1 1e-06 3.5e-05 5e-06 1e-06 
5 1 1e-06 4.5e-05 5e-06 1e-06 
6 1 1e-06 5.5e-05 5e-06 1e-06 
7 1 1e-06 6.5e-05 5e-06 1e-06 
8 1 1e-06 7.5e-05 5e-06 1e-06 
9 1 1e-06 8.5e-05 5e-06 1e-06 
10 1 1e-06 9.5e-05 5e-06 1e-06 
11 1 1e-06 5e-06 1.5e-05 1e-06 
12 1 1e-06 1.5e-05 1.5e-05 1e-06 
13 1 1e-06 2.5e-05 1.5e-05 1e-06 
14 1 1e-06 3.5e-05 1.5e-05 1e-06 
15 1 1e-06 4.5e-05 1.5e-05 1e-06 
16 1 1e-06 5.5e-05 1.5e-05 1e-06 
17 1 1e-06 6.5e-05 1.5e-05 1e-06 
18 1 1e-06 7.5e-05 1.5e-05 1e-06 
19 1 1e-06 8.5e-05 1.5e-05 1e-06 
20 1 1e-06 9.5e-05 1.5e-05 1e-06 
21 1 1e-06 5e-06 2.5e-05 1e-06 
22 1 1e-06 1.5e-05 2.5e-05 1e-06 
23 1 1e-06 2.5e-05 2.5e-05 1e-06 
24 1 1e-06 3.5e-05 2.5e-05 1e-06 
25 1 1e-06 4.5e-05 2.5e-05 1e-06 
26 1 1e-06 5.5e-05 2.5e-05 1e-06 
27 1 1e-06 6.5e-05 2.5e-05 1e-06 
28 1 1e-06 7.5e-05 2.5e-05 1e-06 
29 1 1e-06 8.5e-05 2.5e-05 1e-06 
30 1 1e-06 9.5e-05 2.5e-05 1e-06 
31 1 1e-06 5e-06 3.5e-05 1e-06 
32 1 1e-06 1.5e-05 3.5e-05 1e-06 
33 1 1e-06 2.5e-05 3.5e-05 1e-06 
34 1 1e-06 3.5e-05 3.5e-05 1e-06 
35 1 1e-06 4.5e-05 3.5e-05 1e-06 
36 1 1e-06 5.5e-05 3.5e-05 1e-06 
37 1 1e-06 6.5e-05 3.5e-05 1e-06 
38 1 1e-06 7.5e-05 3.5e-05 1e-06 
39 1 1e-06 8.5e-05 3.5e-05 1e-06 
44 5 1e-08 8.8e-05 3.5e-05 1e-06 
40 1 1e-06 9.5e-05 3.5e-05 1e-06 
43 4 1e-08 9.8e-05 3.5e-05 1e-06 
42 3 1e-08 9.6e-05 3.6e-05 1e-06 
