ITEM: TIMESTEP
0
ITEM: NUMBER OF ATOMS
12
ITEM: BOX BOUNDS ff ff ff
0.0000000000000000e+00 2.0000000000000001e-04
0.0000000000000000e+00 2.0000000000000001e-04
0.0000000000000000e+00 2.0000000000000001e-04
ITEM: ATOMS id type diameter x y z vx vy vz fx fy fz 
1 1 9.66e-07 0.0001 1.39e-05 5e-07 0 0 0 0 0 0 
2 2 9.66e-07 0.0001 2.04e-05 5e-07 0 0 0 0 0 0 
3 3 9.66e-07 0.0001 3.99e-05 5e-07 0 0 0 0 0 0 
4 1 9.66e-07 0.0001 6.26e-05 5e-07 0 0 0 0 0 0 
5 2 9.66e-07 0.0001 6.91e-05 5e-07 0 0 0 0 0 0 
6 3 9.66e-07 0.0001 8.86e-05 5e-07 0 0 0 0 0 0 
7 1 9.66e-07 0.0001 0.0001114 5e-07 0 0 0 0 0 0 
8 2 9.66e-07 0.0001 0.0001179 5e-07 0 0 0 0 0 0 
9 3 9.66e-07 0.0001 0.0001374 5e-07 0 0 0 0 0 0 
10 1 9.66e-07 0.0001 0.0001601 5e-07 0 0 0 0 0 0 
11 2 9.66e-07 0.0001 0.0001666 5e-07 0 0 0 0 0 0 
12 3 9.66e-07 0.0001 0.0001861 5e-07 0 0 0 0 0 0 
