LAMMPS (5 Nov 2016)
# NUFEB simulation

atom_style	bio
atom_modify	map array sort 1000 5.0e-7
boundary	ff ff ff
newton		off
#processors  2 1 1

comm_modify	vel yes
read_data_bio atom.in
  orthogonal box = (0 0 0) to (0.0001 0.0001 0.0001)
  1 by 1 by 1 MPI processor grid
  reading atoms ...
  3 atoms
  10 nutrients

group AOB type 1
1 atoms in group AOB
group NOB type 2
1 atoms in group NOB
group COMM type 3
1 atoms in group COMM

neighbor	5.0e-7 bin
neigh_modify	delay 0 one 5000

#pair_style none
pair_style  gran/hooke/history 0.000200 NULL 0.000050 NULL 0.0 1

pair_coeff  * *
timestep 36

fix 1 all nve/limit 1e-8

#fix	 2 all gravity 1.47 vector 0 0 -1 # spherical 90.0 -180.0
#fix     3 all fdrag
fix 10 all viscous 0.1


fix xw all wall/gran hooke/history 2000 NULL 500.0 NULL 1.5 0 xplane  0.0   1.0e-04
fix yw all wall/gran hooke/history 2000 NULL 500.0 NULL 1.5 0 yplane  0.0   1.0e-04
fix zw all wall/gran hooke/history 2000 NULL 500.0 NULL 1.5 0 zplane  0.0   1.0e-04

variable kanc equal 50

fix xwa all walladh v_kanc xplane  0.0   1.0e-04
fix ywa all walladh v_kanc yplane  0.0   1.0e-04
fix zwa all walladh v_kanc zplane  0.0   1.0e-04

##############Ibm Variable Definitions##############

#Defining EPS density and ratio variables
variable EPSdens equal 30
variable EPSratio equal 1.25

variable ke equal 5e+10

#Defining kinetics variables
variable temp equal 298.15
variable gasTran equal 0.08205746
variable gvol equal 8e-14
variable rth equal 0.0083144
variable pressure equal 1
variable ph equal 7.0

#Defining diffusion variables
variable diffT equal 1e-7
variable tol equal 1e-7

##############Ibm functions##############

fix k1 all kinetics 25 25 25 v_temp v_rth v_gvol v_gasTran v_ph
fix g1 all diffusion exp v_diffT v_tol pp pp nd
#fix ki3 all kinetics/ph 1
fix ki2 all kinetics/thermo 1 fix open v_pressure
fix ki1 all kinetics/monod 1 v_EPSdens
fix d1 all divide 1 v_EPSdens 1 31231

#fix j1 all epsadh 1 v_ke 1
#fix e1 HET eps_extract 16 v_EPSratio v_EPSdens 1242242

##############Ibm compute##############

compute myMass all biomass
compute myNtypes all ntypes

##############Simulation outputs##############

#dump		id all custom 250 snapshot.bubblemd id type diameter x y z
dump            d0 all bio 500 biomass
thermo_style    custom step cpu atoms biomass c_myNtypes[*] c_myMass[2]
thermo		5
thermo_modify	lost ignore

run  5000
Neighbor list info ...
  2 neighbor list requests
  update every 1 steps, delay 0 steps, check yes
  max neighbors/atom: 5000, page size: 100000
  master list distance cutoff = 1.466e-06
  ghost atom cutoff = 1.466e-06
  binsize = 7.33e-07 -> bins = 137 137 137
Memory usage per processor = 18.9946 Mbytes
Step CPU Atoms biomass c_myNtypes[1] c_myNtypes[2] c_myNtypes[3] c_myMass[2] 
       0            0        3 4.1062866e-16            1            1            1 1.3687622e-16 
       5   0.16939807        3 4.1151574e-16            1            1            1 1.3680774e-16 
      10   0.34471488        3 4.1240619e-16            1            1            1 1.3673929e-16 
      15   0.47525692        3 4.1330002e-16            1            1            1 1.3667088e-16 
      20   0.61322689        3 4.1419725e-16            1            1            1 1.3660251e-16 
      25   0.76004791        3 4.1509788e-16            1            1            1 1.3653417e-16 
      30   0.90932894        3 4.1600193e-16            1            1            1 1.3646586e-16 
      35     1.046978        3 4.1690941e-16            1            1            1 1.3639758e-16 
      40     1.172946        3 4.1782034e-16            1            1            1 1.3632934e-16 
      45    1.3013389        3 4.1873472e-16            1            1            1 1.3626114e-16 
      50     1.442946        3 4.1965256e-16            1            1            1 1.3619297e-16 
      55    1.5762091        3 4.2057388e-16            1            1            1 1.3612483e-16 
      60    1.7268629        3 4.2149869e-16            1            1            1 1.3605673e-16 
      65    1.8686728        3  4.22427e-16            1            1            1 1.3598866e-16 
      70    2.0039608        3 4.2335883e-16            1            1            1 1.3592062e-16 
      75    2.1318569        3 4.2429418e-16            1            1            1 1.3585262e-16 
      80     2.265269        3 4.2523307e-16            1            1            1 1.3578465e-16 
      85     2.410275        3 4.2617551e-16            1            1            1 1.3571672e-16 
      90     2.545855        3 4.2712151e-16            1            1            1 1.3564882e-16 
      95    2.6898379        3 4.2807108e-16            1            1            1 1.3558096e-16 
     100     2.818933        3 4.2902425e-16            1            1            1 1.3551313e-16 
     105    2.9521179        3 4.2998101e-16            1            1            1 1.3544533e-16 
     110    3.0934699        3 4.3094139e-16            1            1            1 1.3537757e-16 
     115     3.231612        3 4.3190539e-16            1            1            1 1.3530984e-16 
     120    3.3916919        3 4.3287302e-16            1            1            1 1.3524214e-16 
     125    3.5373399        3 4.3384431e-16            1            1            1 1.3517448e-16 
     130     3.681205        3 4.3481926e-16            1            1            1 1.3510685e-16 
     135     3.814966        3 4.3579788e-16            1            1            1 1.3503926e-16 
     140     3.967232        3 4.3678019e-16            1            1            1 1.349717e-16 
     145    4.0959589        3 4.3776621e-16            1            1            1 1.3490417e-16 
     150     4.228811        4 4.3875593e-16            2            1            1 1.3483668e-16 
     155    4.3638589        5 4.3974938e-16            2            1            2 1.3476922e-16 
     160     4.495261        5 4.4074657e-16            2            1            2 1.3470179e-16 
     165    4.6325269        5 4.4174751e-16            2            1            2 1.346344e-16 
     170    4.7622859        5 4.4275222e-16            2            1            2 1.3456705e-16 
     175     4.892097        5 4.437607e-16            2            1            2 1.3449972e-16 
     180    5.0389791        5 4.4477298e-16            2            1            2 1.3443243e-16 
     185      5.19714        5 4.4578906e-16            2            1            2 1.3436517e-16 
     190     5.348768        5 4.4680895e-16            2            1            2 1.3429795e-16 
     195    5.4935379        5 4.4783268e-16            2            1            2 1.3423076e-16 
     200    5.6259739        5 4.4886025e-16            2            1            2 1.3416361e-16 
     205     5.761471        5 4.4989167e-16            2            1            2 1.3409649e-16 
     210    5.8926511        5 4.5092697e-16            2            1            2 1.340294e-16 
     215    6.0452969        5 4.5196615e-16            2            1            2 1.3396234e-16 
     220     6.193187        5 4.5300923e-16            2            1            2 1.3389532e-16 
     225    6.3318629        5 4.5405621e-16            2            1            2 1.3382833e-16 
     230    6.4690471        5 4.5510713e-16            2            1            2 1.3376138e-16 
     235    6.6139929        5 4.5616197e-16            2            1            2 1.3369446e-16 
     240     6.767432        5 4.5722078e-16            2            1            2 1.3362757e-16 
     245    6.9159539        5 4.5828354e-16            2            1            2 1.3356072e-16 
     250    7.0688329        5 4.5935028e-16            2            1            2 1.334939e-16 
     255    7.1975489        5 4.6042102e-16            2            1            2 1.3342711e-16 
     260      7.31845        5 4.6149576e-16            2            1            2 1.3336036e-16 
     265    7.4617579        5 4.6257453e-16            2            1            2 1.3329364e-16 
     270    7.6091809        5 4.6365732e-16            2            1            2 1.3322695e-16 
     275     7.754348        5 4.6474417e-16            2            1            2 1.3316029e-16 
     280    7.8857999        5 4.6583507e-16            2            1            2 1.3309367e-16 
     285    8.0061479        5 4.6693006e-16            2            1            2 1.3302709e-16 
     290    8.1443551        5 4.6802913e-16            2            1            2 1.3296053e-16 
     295     8.285459        5 4.6913231e-16            2            1            2 1.3289401e-16 
     300     8.419013        5 4.702396e-16            2            1            2 1.3282753e-16 
     305    8.5712039        5 4.7135103e-16            2            1            2 1.3276107e-16 
     310     8.707278        5 4.724666e-16            2            1            2 1.3269465e-16 
     315    8.8479879        5 4.7358634e-16            2            1            2 1.3262827e-16 
     320     8.981617        5 4.7471025e-16            2            1            2 1.3256191e-16 
     325    9.1223741        5 4.7583836e-16            2            1            2 1.3249559e-16 
     330     9.273608        5 4.7697066e-16            2            1            2 1.324293e-16 
     335     9.441864        5 4.7810719e-16            2            1            2 1.3236305e-16 
     340    9.6095541        5 4.7924795e-16            2            1            2 1.3229683e-16 
     345    9.8098819        5 4.8039296e-16            2            1            2 1.3223064e-16 
     350    9.9789231        5 4.8154223e-16            2            1            2 1.3216449e-16 
     355    10.159102        5 4.8269578e-16            2            1            2 1.3209836e-16 
     360      10.3473        5 4.8385363e-16            2            1            2 1.3203228e-16 
     365     10.53636        5 4.8501578e-16            2            1            2 1.3196622e-16 
     370    10.723136        5 4.8618225e-16            2            1            2 1.319002e-16 
     375    10.904036        5 4.8735307e-16            2            1            2 1.3183421e-16 
     380    11.082305        5 4.8852823e-16            2            1            2 1.3176825e-16 
     385    11.266297        5 4.8970776e-16            2            1            2 1.3170233e-16 
     390    11.446721        5 4.9089168e-16            2            1            2 1.3163644e-16 
     395    11.638798        5 4.9207999e-16            2            1            2 1.3157058e-16 
     400    11.851619        5 4.9327272e-16            2            1            2 1.3150475e-16 
     405     12.04349        5 4.9446987e-16            2            1            2 1.3143896e-16 
     410    12.233679        5 4.9567147e-16            2            1            2 1.313732e-16 
     415    12.408663        5 4.9687753e-16            2            1            2 1.3130748e-16 
     420    12.578165        5 4.9808806e-16            2            1            2 1.3124178e-16 
     425    12.779737        5 4.9930309e-16            2            1            2 1.3117612e-16 
     430     12.97708        5 5.0052262e-16            2            1            2 1.311105e-16 
     435     13.17425        5 5.0174667e-16            2            1            2 1.310449e-16 
     440    13.342917        5 5.0297526e-16            2            1            2 1.3097934e-16 
     445    13.514392        5 5.042084e-16            2            1            2 1.3091381e-16 
     450    13.684974        5 5.0544611e-16            2            1            2 1.3084831e-16 
     455      13.8629        5 5.066884e-16            2            1            2 1.3078285e-16 
     460    14.025053        5 5.079353e-16            2            1            2 1.3071742e-16 
     465    14.199485        5 5.0918681e-16            2            1            2 1.3065202e-16 
     470    14.378936        5 5.1044295e-16            2            1            2 1.3058666e-16 
     475    14.558919        5 5.1170374e-16            2            1            2 1.3052133e-16 
     480    14.706692        5 5.129692e-16            2            1            2 1.3045603e-16 
     485    14.876813        5 5.1423934e-16            2            1            2 1.3039076e-16 
     490      15.0492        5 5.1551417e-16            2            1            2 1.3032552e-16 
     495    15.218636        5 5.1679372e-16            2            1            2 1.3026032e-16 
     500    15.385757        5 5.1807799e-16            2            1            2 1.3019515e-16 
     505    15.552508        5 5.1936701e-16            2            1            2 1.3013002e-16 
     510    15.732795        5 5.206608e-16            2            1            2 1.3006491e-16 
     515      15.8912        5 5.2195936e-16            2            1            2 1.2999984e-16 
     520     16.06088        5 5.2326272e-16            2            1            2 1.299348e-16 
     525    16.230109        5 5.2457089e-16            2            1            2 1.298698e-16 
     530    16.386821        5 5.2588389e-16            2            1            2 1.2980482e-16 
     535    16.562626        5 5.2720174e-16            2            1            2 1.2973988e-16 
     540    16.743898        5 5.2852444e-16            2            1            2 1.2967497e-16 
     545    16.920416        5 5.2985203e-16            2            1            2 1.296101e-16 
     550    17.100615        5 5.3118451e-16            2            1            2 1.2954525e-16 
     555    17.280106        5 5.3252191e-16            2            1            2 1.2948044e-16 
     560    17.456671        5 5.3386423e-16            2            1            2 1.2941566e-16 
     565    17.633194        5 5.3521151e-16            2            1            2 1.2935091e-16 
     570    17.833555        5 5.3656374e-16            2            1            2 1.292862e-16 
     575      18.0131        5 5.3792096e-16            2            1            2 1.2922152e-16 
     580    18.201772        5 5.3928318e-16            2            1            2 1.2915687e-16 
     585    18.397081        5 5.4065042e-16            2            1            2 1.2909225e-16 
     590    18.591031        5 5.4202268e-16            2            1            2 1.2902767e-16 
     595     18.79102        5    5.434e-16            2            1            2 1.2896311e-16 
     600      18.9879        5 5.4478239e-16            2            1            2 1.2889859e-16 
     605     19.17091        5 5.4616986e-16            2            1            2 1.2883411e-16 
     610    19.324727        5 5.4756244e-16            2            1            2 1.2876965e-16 
     615    19.498289        5 5.4896014e-16            2            1            2 1.2870523e-16 
     620    19.671215        5 5.5036298e-16            2            1            2 1.2864084e-16 
     625    19.845387        5 5.5177097e-16            2            1            2 1.2857648e-16 
     630    19.994848        5 5.5318414e-16            2            1            2 1.2851215e-16 
     635    20.143218        5 5.546025e-16            2            1            2 1.2844786e-16 
     640    20.315716        5 5.5602608e-16            2            1            2 1.2838359e-16 
     645    20.484381        5 5.5745488e-16            2            1            2 1.2831936e-16 
     650    20.635743        5 5.5888893e-16            2            1            2 1.2825516e-16 
     655    20.813266        5 5.6032824e-16            2            1            2  1.28191e-16 
     660     20.97686        5 5.6177284e-16            2            1            2 1.2812686e-16 
     665    21.119683        5 5.6322274e-16            2            1            2 1.2806276e-16 
     670    21.265763        5 5.6467797e-16            2            1            2 1.2799869e-16 
     675    21.418113        5 5.6613853e-16            2            1            2 1.2793465e-16 
     680    21.554922        5 5.6760444e-16            2            1            2 1.2787065e-16 
     685    21.701562        5 5.6907574e-16            2            1            2 1.2780668e-16 
     690    21.848889        5 5.7055243e-16            2            1            2 1.2774273e-16 
     695    21.997924        5 5.7203453e-16            2            1            2 1.2767882e-16 
     700    22.144882        5 5.7352206e-16            2            1            2 1.2761495e-16 
     705     22.29824        5 5.7501505e-16            2            1            2 1.275511e-16 
     710    22.455904        5 5.765135e-16            2            1            2 1.2748729e-16 
     715    22.623246        5 5.7801745e-16            2            1            2 1.2742351e-16 
     720    22.800628        5 5.795269e-16            2            1            2 1.2735976e-16 
     725    22.990201        5 5.8104188e-16            2            1            2 1.2729604e-16 
     730    23.174209        5 5.825624e-16            2            1            2 1.2723235e-16 
     735    23.336584        5 5.8408849e-16            2            1            2 1.271687e-16 
     740     23.51083        5 5.8562017e-16            2            1            2 1.2710507e-16 
     745    23.684124        5 5.8715745e-16            2            1            2 1.2704148e-16 
     750     23.86425        5 5.8870035e-16            2            1            2 1.2697792e-16 
     755    24.047305        5 5.902489e-16            2            1            2 1.269144e-16 
     760    24.220627        5 5.9180311e-16            2            1            2 1.268509e-16 
     765    24.395293        5  5.93363e-16            2            1            2 1.2678744e-16 
     770    24.599971        5 5.9492859e-16            2            1            2 1.2672401e-16 
     775    24.774728        5 5.9649991e-16            2            1            2 1.2666061e-16 
     780    24.948506        5 5.9807697e-16            2            1            2 1.2659724e-16 
     785    25.130311        5 5.9965979e-16            2            1            2 1.265339e-16 
     790    25.307129        5 6.0124839e-16            2            1            2 1.264706e-16 
     795    25.519852        5 6.028428e-16            2            1            2 1.2640732e-16 
     800    25.706549        5 6.0444302e-16            2            1            2 1.2634408e-16 
     805    25.892155        5 6.0604909e-16            2            1            2 1.2628087e-16 
     810    26.082618        5 6.0766102e-16            2            1            2 1.2621769e-16 
     815    26.255366        5 6.0927883e-16            2            1            2 1.2615455e-16 
     820    26.436435        5 6.1090255e-16            2            1            2 1.2609143e-16 
     825    26.621058        5 6.1253219e-16            2            1            2 1.2602835e-16 
     830    26.820414        5 6.1416778e-16            2            1            2 1.259653e-16 
     835    27.008212        5 6.1580933e-16            2            1            2 1.2590228e-16 
     840    27.197976        5 6.1745687e-16            2            1            2 1.2583929e-16 
     845    27.394373        5 6.1911041e-16            2            1            2 1.2577633e-16 
     850    27.587445        5 6.2076998e-16            2            1            2 1.257134e-16 
     855    27.767857        5 6.224356e-16            2            1            2 1.2565051e-16 
     860    27.969805        5 6.2410729e-16            2            1            2 1.2558765e-16 
     865    28.169088        5 6.2578507e-16            2            1            2 1.2552482e-16 
     870    28.343902        5 6.2746896e-16            2            1            2 1.2546202e-16 
     875    28.515102        5 6.2915898e-16            2            1            2 1.2539925e-16 
     880    28.690331        5 6.3085516e-16            2            1            2 1.2533651e-16 
     885    28.868069        5 6.3255751e-16            2            1            2 1.252738e-16 
     890     29.05102        5 6.3426606e-16            2            1            2 1.2521113e-16 
     895    29.237004        5 6.3598083e-16            2            1            2 1.2514849e-16 
     900    29.445813        5 6.3770184e-16            2            1            2 1.2508587e-16 
     905    29.637715        5 6.3942911e-16            2            1            2 1.2502329e-16 
     910    29.816571        5 6.4116267e-16            2            1            2 1.2496074e-16 
     915    29.981627        5 6.4290253e-16            2            1            2 1.2489823e-16 
     920    30.146802        5 6.4464871e-16            2            1            2 1.2483574e-16 
     925    30.290738        5 6.4640125e-16            2            1            2 1.2477329e-16 
     930    30.466766        5 6.4816016e-16            2            1            2 1.2471086e-16 
     935    30.642473        5 6.4992546e-16            2            1            2 1.2464847e-16 
     940    30.816653        5 6.5169718e-16            2            1            2 1.2458611e-16 
     945    30.983738        5 6.5347534e-16            2            1            2 1.2452378e-16 
     950    31.162088        5 6.5525995e-16            2            1            2 1.2446148e-16 
     955    31.344783        6 6.5705105e-16            2            1            3 1.2439921e-16 
     960    31.514573        6 6.5884866e-16            2            1            3 1.2433697e-16 
     965    31.689726        6 6.6065279e-16            2            1            3 1.2427477e-16 
     970    31.852763        6 6.6246348e-16            2            1            3 1.2421259e-16 
     975    32.032509        6 6.6428073e-16            2            1            3 1.2415045e-16 
     980     32.21703        6 6.6610459e-16            2            1            3 1.2408834e-16 
     985    32.397723        6 6.6793506e-16            2            1            3 1.2402625e-16 
     990    32.570901        7 6.6977218e-16            3            1            3 1.239642e-16 
     995    32.742638        7 6.7161596e-16            3            1            3 1.2390218e-16 
    1000    32.935881        7 6.7346643e-16            3            1            3 1.238402e-16 
    1005    33.102128        7 6.7532361e-16            3            1            3 1.2377824e-16 
    1010    33.274808        7 6.7718752e-16            3            1            3 1.2371631e-16 
    1015    33.465655        7 6.790582e-16            3            1            3 1.2365442e-16 
    1020    33.655332        7 6.8093566e-16            3            1            3 1.2359255e-16 
    1025    33.844283        7 6.8281992e-16            3            1            3 1.2353072e-16 
    1030    34.038735        7 6.8471101e-16            3            1            3 1.2346892e-16 
    1035    34.233833        7 6.8660896e-16            3            1            3 1.2340715e-16 
    1040    34.426552        7 6.8851378e-16            3            1            3 1.2334541e-16 
    1045    34.617912        7 6.904255e-16            3            1            3 1.232837e-16 
    1050    34.812193        7 6.9234415e-16            3            1            3 1.2322202e-16 
    1055    34.999111        7 6.9426975e-16            3            1            3 1.2316037e-16 
    1060    35.182062        7 6.9620232e-16            3            1            3 1.2309875e-16 
    1065    35.367209        7 6.9814188e-16            3            1            3 1.2303717e-16 
    1070    35.554349        7 7.0008847e-16            3            1            3 1.2297561e-16 
    1075    35.737202        7 7.0204211e-16            3            1            3 1.2291409e-16 
    1080     35.92729        7 7.0400281e-16            3            1            3 1.2285259e-16 
    1085    36.119938        7 7.0597061e-16            3            1            3 1.2279113e-16 
    1090    36.315417        7 7.0794553e-16            3            1            3 1.227297e-16 
    1095    36.507077        7 7.099276e-16            3            1            3 1.2266829e-16 
    1100    36.704627        7 7.1191683e-16            3            1            3 1.2260692e-16 
    1105    36.894055        7 7.1391326e-16            3            1            3 1.2254558e-16 
    1110    37.092403        7 7.1591691e-16            3            1            3 1.2248427e-16 
    1115    37.286027        7 7.179278e-16            3            1            3  1.22423e-16 
    1120     37.48521        7 7.1994596e-16            3            1            3 1.2236175e-16 
    1125    37.668095        7 7.2197142e-16            3            1            3 1.2230053e-16 
    1130    37.850994        7 7.240042e-16            3            1            3 1.2223934e-16 
    1135    38.046301        7 7.2604432e-16            3            1            3 1.2217819e-16 
    1140    38.231061        7 7.2809182e-16            3            1            3 1.2211706e-16 
    1145    38.409919        7 7.3014671e-16            3            1            3 1.2205597e-16 
    1150    38.591461        7 7.3220902e-16            3            1            3 1.219949e-16 
    1155    38.770725        7 7.3427878e-16            3            1            3 1.2193387e-16 
    1160    38.962044        7 7.3635602e-16            3            1            3 1.2187286e-16 
    1165    39.145549        7 7.3844076e-16            3            1            3 1.2181189e-16 
    1170    39.325199        7 7.4053302e-16            3            1            3 1.2175095e-16 
    1175    39.511338        7 7.4263284e-16            3            1            3 1.2169004e-16 
    1180    39.684997        7 7.4474024e-16            3            1            3 1.2162915e-16 
    1185    39.857145        7 7.4685524e-16            3            1            3 1.215683e-16 
    1190    40.037246        7 7.4897787e-16            3            1            3 1.2150748e-16 
    1195    40.218848        7 7.5110816e-16            3            1            3 1.2144669e-16 
    1200    40.401712        7 7.5324614e-16            3            1            3 1.2138593e-16 
    1205     40.58842        7 7.5539183e-16            3            1            3 1.213252e-16 
    1210    40.763407        7 7.5754526e-16            3            1            3 1.212645e-16 
    1215    40.939152        7 7.5970645e-16            3            1            3 1.2120384e-16 
    1220    41.113328        7 7.6187544e-16            3            1            3 1.211432e-16 
    1225    41.294254        7 7.6405224e-16            3            1            3 1.2108259e-16 
    1230    41.467062        7 7.6623689e-16            3            1            3 1.2102201e-16 
    1235    41.641327        7 7.6842942e-16            3            1            3 1.2096146e-16 
    1240    41.817174        7 7.7062985e-16            3            1            3 1.2090095e-16 
    1245    41.989967        7 7.728382e-16            3            1            3 1.2084046e-16 
    1250     42.16172        7 7.7505452e-16            3            1            3   1.2078e-16 
    1255    42.435277        7 7.7727882e-16            3            1            3 1.2071958e-16 
    1260    42.656874        7 7.7951113e-16            3            1            3 1.2065918e-16 
    1265    42.829554        7 7.8175148e-16            3            1            3 1.2059882e-16 
    1270    43.008958        7 7.8399989e-16            3            1            3 1.2053848e-16 
    1275    43.180627        8 7.8625641e-16            4            1            3 1.2047818e-16 
    1280    43.361108        8 7.8852105e-16            4            1            3 1.204179e-16 
    1285    43.541434        8 7.9079384e-16            4            1            3 1.2035766e-16 
    1290    43.712846        8 7.9307481e-16            4            1            3 1.2029744e-16 
    1295    43.886677        8 7.9536399e-16            4            1            3 1.2023726e-16 
    1300    44.061835        8 7.9766141e-16            4            1            3 1.201771e-16 
    1305     44.23605        8 7.999671e-16            4            1            3 1.2011698e-16 
    1310    44.411035        8 8.0228108e-16            4            1            3 1.2005688e-16 
    1315      44.5826        8 8.0460339e-16            4            1            3 1.1999682e-16 
    1320     44.75723        8 8.0693404e-16            4            1            3 1.1993678e-16 
    1325    44.936485        8 8.0927309e-16            4            1            3 1.1987678e-16 
    1330    45.111127        8 8.1162054e-16            4            1            3 1.198168e-16 
    1335    45.284045        8 8.1397643e-16            4            1            3 1.1975686e-16 
    1340    45.464755        8 8.163408e-16            4            1            3 1.1969695e-16 
    1345    45.641223        8 8.1871366e-16            4            1            3 1.1963706e-16 
    1350    45.820281        8 8.2109505e-16            4            1            3 1.1957721e-16 
    1355    45.995905        8 8.2348501e-16            4            1            3 1.1951738e-16 
    1360    46.169847        8 8.2588355e-16            4            1            3 1.1945759e-16 
    1365    46.344678        8 8.2829071e-16            4            1            3 1.1939782e-16 
    1370    46.526441        8 8.3070651e-16            4            1            3 1.1933809e-16 
    1375     46.70083        8  8.33131e-16            4            1            3 1.1927838e-16 
    1380    46.873608        8 8.355642e-16            4            1            3 1.1921871e-16 
    1385    47.057214        8 8.3800613e-16            4            1            3 1.1915906e-16 
    1390    47.293312        8 8.4045684e-16            4            1            3 1.1909945e-16 
    1395    47.501342        8 8.4291634e-16            4            1            3 1.1903986e-16 
    1400    47.718596        8 8.4538468e-16            4            1            3 1.1898031e-16 
    1405     47.89864        8 8.4786188e-16            4            1            3 1.1892078e-16 
    1410     48.07936        8 8.5034797e-16            4            1            3 1.1886129e-16 
    1415    48.267515        8 8.5284298e-16            4            1            3 1.1880182e-16 
    1420    48.443593        8 8.5534695e-16            4            1            3 1.1874238e-16 
    1425    48.620322        8 8.578599e-16            4            1            3 1.1868298e-16 
    1430    48.793455        9 8.6038187e-16            4            1            4 1.186236e-16 
    1435    48.964917        9 8.6291289e-16            4            1            4 1.1856425e-16 
    1440    49.135438        9 8.6545299e-16            4            1            4 1.1850493e-16 
    1445    49.338311        9 8.680022e-16            4            1            4 1.1844565e-16 
    1450    49.515787        9 8.7056056e-16            4            1            4 1.1838639e-16 
    1455    49.698069        9 8.7312809e-16            4            1            4 1.1832716e-16 
    1460    49.873072        9 8.7570483e-16            4            1            4 1.1826796e-16 
    1465    50.049609        9 8.782908e-16            4            1            4 1.1820879e-16 
    1470    50.224851        9 8.8088605e-16            4            1            4 1.1814965e-16 
    1475     50.40876        9 8.834906e-16            4            1            4 1.1809054e-16 
    1480    50.592535        9 8.8610449e-16            4            1            4 1.1803146e-16 
    1485    50.777962        9 8.8872774e-16            4            1            4 1.1797241e-16 
    1490    50.951652        9 8.913604e-16            4            1            4 1.1791339e-16 
    1495    51.142391        9 8.9400249e-16            4            1            4 1.1785439e-16 
    1500    51.338686        9 8.9665404e-16            4            1            4 1.1779543e-16 
    1505    51.564555        9 8.993151e-16            4            1            4 1.177365e-16 
    1510    51.765902        9 9.0198569e-16            4            1            4 1.176776e-16 
    1515    52.001874        9 9.0466585e-16            4            1            4 1.1761872e-16 
    1520    52.244282        9 9.073556e-16            4            1            4 1.1755988e-16 
    1525    52.467332        9 9.1005499e-16            4            1            4 1.1750106e-16 
    1530    52.786573        9 9.1276404e-16            4            1            4 1.1744228e-16 
    1535    52.996843        9 9.154828e-16            4            1            4 1.1738352e-16 
    1540    53.211057        9 9.1821129e-16            4            1            4 1.1732479e-16 
    1545    53.480259        9 9.2094954e-16            4            1            4 1.1726609e-16 
    1550    53.683089        9 9.236976e-16            4            1            4 1.1720743e-16 
    1555    53.883942        9 9.2645549e-16            4            1            4 1.1714879e-16 
    1560    54.094394        9 9.2922326e-16            4            1            4 1.1709018e-16 
    1565     54.30592        9 9.3200092e-16            4            1            4 1.170316e-16 
    1570    54.551185        9 9.3478853e-16            4            1            4 1.1697305e-16 
    1575    54.744075        9 9.3758611e-16            4            1            4 1.1691453e-16 
    1580    54.939723        9 9.403937e-16            4            1            4 1.1685603e-16 
    1585    55.127186        9 9.4321133e-16            4            1            4 1.1679757e-16 
    1590    55.310023        9 9.4603904e-16            4            1            4 1.1673914e-16 
    1595    55.500028        9 9.4887687e-16            4            1            4 1.1668073e-16 
    1600      55.6952        9 9.5172484e-16            4            1            4 1.1662236e-16 
    1605    55.889738        9  9.54583e-16            4            1            4 1.1656401e-16 
    1610    56.073852        9 9.5745137e-16            4            1            4 1.1650569e-16 
    1615    56.255498        9   9.6033e-16            4            1            4 1.1644741e-16 
    1620    56.444028        9 9.6321892e-16            4            1            4 1.1638915e-16 
    1625    56.633713        9 9.6611817e-16            4            1            4 1.1633092e-16 
    1630    56.819606        9 9.6902778e-16            4            1            4 1.1627272e-16 
    1635    57.007774        9 9.7194779e-16            4            1            4 1.1621455e-16 
    1640     57.20115        9 9.7487824e-16            4            1            4 1.161564e-16 
    1645    57.404631        9 9.7781915e-16            4            1            4 1.1609829e-16 
    1650    57.604024        9 9.8077058e-16            4            1            4 1.1604021e-16 
    1655    57.794124        9 9.8373255e-16            4            1            4 1.1598215e-16 
    1660    57.980354        9 9.867051e-16            4            1            4 1.1592413e-16 
    1665    58.165634        9 9.8968826e-16            4            1            4 1.1586613e-16 
    1670    58.362417        9 9.9268209e-16            4            1            4 1.1580816e-16 
    1675    58.550588        9 9.956866e-16            4            1            4 1.1575022e-16 
    1680    58.736258        9 9.9870184e-16            4            1            4 1.1569231e-16 
    1685    58.918628        9 1.0017279e-15            4            1            4 1.1563443e-16 
    1690    59.111166        9 1.0047647e-15            4            1            4 1.1557658e-16 
    1695    59.315655        9 1.0078123e-15            4            1            4 1.1551876e-16 
    1700    59.503312        9 1.0108709e-15            4            1            4 1.1546096e-16 
    1705     59.68988        9 1.0139403e-15            4            1            4 1.154032e-16 
    1710    59.866794        9 1.0170207e-15            4            1            4 1.1534546e-16 
    1715    60.060986        9 1.0201121e-15            4            1            4 1.1528775e-16 
    1720    60.257998        9 1.0232146e-15            4            1            4 1.1523008e-16 
    1725    60.459741        9 1.0263281e-15            4            1            4 1.1517243e-16 
    1730    60.644234        9 1.0294527e-15            4            1            4 1.1511481e-16 
    1735    60.833644        9 1.0325885e-15            4            1            4 1.1505721e-16 
    1740    61.010854        9 1.0357354e-15            4            1            4 1.1499965e-16 
    1745    61.195697        9 1.0388936e-15            4            1            4 1.1494212e-16 
    1750    61.388401        9 1.042063e-15            4            1            4 1.1488461e-16 
    1755    61.577467        9 1.0452438e-15            4            1            4 1.1482713e-16 
    1760    61.773701        9 1.0484359e-15            4            1            4 1.1476969e-16 
    1765    61.971367        9 1.0516393e-15            4            1            4 1.1471227e-16 
    1770    62.178582        9 1.0548542e-15            4            1            4 1.1465488e-16 
    1775    62.383967        9 1.0580806e-15            4            1            4 1.1459751e-16 
    1780    62.588995        9 1.0613185e-15            4            1            4 1.1454018e-16 
    1785    62.772866        9 1.0645679e-15            4            1            4 1.1448288e-16 
    1790     62.96183        9 1.0678289e-15            4            1            4 1.144256e-16 
    1795     63.15109        9 1.0711015e-15            4            1            4 1.1436835e-16 
    1800    63.335967        9 1.0743857e-15            4            1            4 1.1431114e-16 
    1805    63.521009        9 1.0776817e-15            4            1            4 1.1425395e-16 
    1810    63.710034        9 1.0809894e-15            4            1            4 1.1419678e-16 
    1815    63.903251        9 1.084309e-15            4            1            4 1.1413965e-16 
    1820    64.093841        9 1.0876403e-15            4            1            4 1.1408255e-16 
    1825    64.281261        9 1.0909835e-15            4            1            4 1.1402547e-16 
    1830    64.472657        9 1.0943386e-15            4            1            4 1.1396843e-16 
    1835    64.661931       10 1.0977057e-15            4            1            5 1.1391141e-16 
    1840    64.853018       10 1.1010847e-15            4            1            5 1.1385442e-16 
    1845      65.0447       10 1.1044758e-15            4            1            5 1.1379746e-16 
    1850    65.234115       10 1.107879e-15            4            1            5 1.1374052e-16 
    1855    65.426676       10 1.1112943e-15            4            1            5 1.1368362e-16 
    1860    65.619147       10 1.1147218e-15            4            1            5 1.1362674e-16 
    1865    65.792392       10 1.1181614e-15            4            1            5 1.135699e-16 
    1870    65.974501       10 1.1216133e-15            4            1            5 1.1351308e-16 
    1875    66.150781       10 1.1250775e-15            4            1            5 1.1345629e-16 
    1880    66.324349       10 1.128554e-15            4            1            5 1.1339952e-16 
    1885    66.513567       10 1.1320429e-15            4            1            5 1.1334279e-16 
    1890    66.704734       10 1.1355443e-15            4            1            5 1.1328608e-16 
    1895     66.88764       10 1.139058e-15            4            1            5 1.1322941e-16 
    1900    67.067705       10 1.1425843e-15            4            1            5 1.1317276e-16 
    1905    67.254899       11 1.1461231e-15            5            1            5 1.1311614e-16 
    1910    67.437095       11 1.1496746e-15            5            1            5 1.1305955e-16 
    1915    67.620614       11 1.1532386e-15            5            1            5 1.1300298e-16 
    1920    67.797222       11 1.1568154e-15            5            1            5 1.1294645e-16 
    1925    67.978655       11 1.1604048e-15            5            1            5 1.1288994e-16 
    1930    68.146253       11 1.1640071e-15            5            1            5 1.1283346e-16 
    1935    68.323199       11 1.1676221e-15            5            1            5 1.1277701e-16 
    1940    68.508982       11  1.17125e-15            5            1            5 1.1272059e-16 
    1945    68.693544       11 1.1748908e-15            5            1            5 1.1266419e-16 
    1950    68.875752       11 1.1785446e-15            5            1            5 1.1260783e-16 
    1955    69.053846       11 1.1822113e-15            5            1            5 1.1255149e-16 
    1960    69.231252       11 1.1858911e-15            5            1            5 1.1249518e-16 
    1965    69.405323       11 1.189584e-15            5            1            5 1.124389e-16 
    1970    69.588148       11  1.19329e-15            5            1            5 1.1238265e-16 
    1975      69.7626       11 1.1970091e-15            5            1            5 1.1232642e-16 
    1980    69.972187       11 1.2007415e-15            5            1            5 1.1227023e-16 
    1985    70.152843       11 1.2044872e-15            5            1            5 1.1221406e-16 
    1990    70.344672       11 1.2082462e-15            5            1            5 1.1215792e-16 
    1995    70.525718       11 1.2120185e-15            5            1            5 1.121018e-16 
    2000    70.737785       11 1.2158042e-15            5            1            5 1.1204572e-16 
    2005     70.95708       11 1.2196034e-15            5            1            5 1.1198966e-16 
    2010    71.143934       11 1.2234161e-15            5            1            5 1.1193363e-16 
    2015     71.32756       11 1.2272424e-15            5            1            5 1.1187763e-16 
    2020    71.518198       12 1.2310822e-15            6            1            5 1.1182166e-16 
    2025    71.705176       12 1.2349357e-15            6            1            5 1.1176572e-16 
    2030    71.895928       12 1.2388028e-15            6            1            5 1.117098e-16 
    2035    72.073725       12 1.2426837e-15            6            1            5 1.1165391e-16 
    2040    72.295828       12 1.2465784e-15            6            1            5 1.1159805e-16 
    2045    72.504848       12 1.2504869e-15            6            1            5 1.1154222e-16 
    2050    72.709919       13 1.2544093e-15            7            1            5 1.1148641e-16 
    2055    72.907022       13 1.2583457e-15            7            1            5 1.1143064e-16 
    2060    73.103406       13 1.262296e-15            7            1            5 1.1137489e-16 
    2065    73.309345       13 1.2662603e-15            7            1            5 1.1131917e-16 
    2070    73.526168       13 1.2702387e-15            7            1            5 1.1126348e-16 
    2075     73.72678       13 1.2742313e-15            7            1            5 1.1120781e-16 
    2080    73.925482       13 1.278238e-15            7            1            5 1.1115217e-16 
    2085     74.11509       13 1.2822589e-15            7            1            5 1.1109656e-16 
    2090    74.320985       13 1.2862941e-15            7            1            5 1.1104098e-16 
    2095    74.520461       13 1.2903437e-15            7            1            5 1.1098543e-16 
    2100    74.723659       13 1.2944076e-15            7            1            5 1.109299e-16 
    2105    74.923684       13 1.2984859e-15            7            1            5 1.108744e-16 
    2110    75.105033       13 1.3025787e-15            7            1            5 1.1081893e-16 
    2115    75.283551       13 1.306686e-15            7            1            5 1.1076349e-16 
    2120      75.4614       13 1.3108079e-15            7            1            5 1.1070808e-16 
    2125    75.640747       13 1.3149444e-15            7            1            5 1.1065269e-16 
    2130    75.819531       14 1.3190956e-15            7            1            6 1.1059733e-16 
    2135     76.00368       14 1.3232616e-15            7            1            6  1.10542e-16 
    2140     76.17719       14 1.3274423e-15            7            1            6 1.1048669e-16 
    2145    76.356352       14 1.3316378e-15            7            1            6 1.1043142e-16 
    2150    76.537708       14 1.3358483e-15            7            1            6 1.1037617e-16 
    2155    76.714679       14 1.3400736e-15            7            1            6 1.1032095e-16 
    2160    76.894743       14 1.344314e-15            7            1            6 1.1026575e-16 
    2165    77.081385       14 1.3485693e-15            7            1            6 1.1021059e-16 
    2170    77.260002       14 1.3528398e-15            7            1            6 1.1015545e-16 
    2175     77.43872       14 1.3571254e-15            7            1            6 1.1010034e-16 
    2180    77.620441       14 1.3614263e-15            7            1            6 1.1004525e-16 
    2185    77.802942       14 1.3657423e-15            7            1            6 1.099902e-16 
    2190    77.991585       14 1.3700737e-15            7            1            6 1.0993517e-16 
    2195     78.17735       14 1.3744204e-15            7            1            6 1.0988017e-16 
    2200    78.373355       14 1.3787825e-15            7            1            6 1.098252e-16 
    2205    78.552164       14 1.3831601e-15            7            1            6 1.0977025e-16 
    2210     78.72946       15 1.3875533e-15            7            1            7 1.0971533e-16 
    2215    78.911156       15 1.391962e-15            7            1            7 1.0966044e-16 
    2220    79.088441       15 1.3963863e-15            7            1            7 1.0960558e-16 
    2225    79.270631       15 1.4008263e-15            7            1            7 1.0955074e-16 
    2230    79.447314       15 1.405282e-15            7            1            7 1.0949594e-16 
    2235    79.619368       15 1.4097535e-15            7            1            7 1.0944116e-16 
    2240    79.802976       15 1.4142409e-15            7            1            7 1.093864e-16 
    2245    79.981857       15 1.4187442e-15            7            1            7 1.0933168e-16 
    2250    80.161054       15 1.4232634e-15            7            1            7 1.0927698e-16 
    2255    80.337083       15 1.4277986e-15            7            1            7 1.0922231e-16 
    2260    80.518908       15 1.4323499e-15            7            1            7 1.0916766e-16 
    2265    80.713056       15 1.4369174e-15            7            1            7 1.0911305e-16 
    2270    80.888096       15 1.441501e-15            7            1            7 1.0905846e-16 
    2275    81.070815       15 1.4461008e-15            7            1            7 1.0900389e-16 
    2280    81.255214       15 1.4507169e-15            7            1            7 1.0894936e-16 
    2285    81.439283       15 1.4553494e-15            7            1            7 1.0889485e-16 
    2290    81.618999       15 1.4599983e-15            7            1            7 1.0884037e-16 
    2295    81.801909       15 1.4646637e-15            7            1            7 1.0878592e-16 
    2300    81.986025       15 1.4693456e-15            7            1            7 1.0873149e-16 
    2305    82.159883       15 1.474044e-15            7            1            7 1.086771e-16 
    2310    82.337712       15 1.4787591e-15            7            1            7 1.0862272e-16 
    2315    82.515483       15 1.4834909e-15            7            1            7 1.0856838e-16 
    2320    82.690815       15 1.4882395e-15            7            1            7 1.0851406e-16 
    2325    82.868002       15 1.4930048e-15            7            1            7 1.0845977e-16 
    2330    83.049633       15 1.4977871e-15            7            1            7 1.0840551e-16 
    2335    83.232456       15 1.5025862e-15            7            1            7 1.0835128e-16 
    2340    83.412406       15 1.5074024e-15            7            1            7 1.0829707e-16 
    2345    83.590681       15 1.5122356e-15            7            1            7 1.0824289e-16 
    2350    83.765046       15 1.5170859e-15            7            1            7 1.0818873e-16 
    2355    83.940119       15 1.5219533e-15            7            1            7 1.0813461e-16 
    2360    84.120222       15 1.526838e-15            7            1            7 1.0808051e-16 
    2365    84.297011       15  1.53174e-15            7            1            7 1.0802643e-16 
    2370    84.478935       15 1.5366594e-15            7            1            7 1.0797239e-16 
    2375    84.665718       15 1.5415961e-15            7            1            7 1.0791837e-16 
    2380    84.839996       15 1.5465503e-15            7            1            7 1.0786438e-16 
    2385    85.019769       15 1.5515221e-15            7            1            7 1.0781041e-16 
    2390     85.19695       15 1.5565114e-15            7            1            7 1.0775648e-16 
    2395    85.380943       15 1.5615184e-15            7            1            7 1.0770257e-16 
    2400    85.564726       15 1.5665431e-15            7            1            7 1.0764868e-16 
    2405    85.752982       15 1.5715856e-15            7            1            7 1.0759483e-16 
    2410    85.961191       15 1.5766459e-15            7            1            7  1.07541e-16 
    2415     86.14054       15 1.5817241e-15            7            1            7 1.0748719e-16 
    2420    86.317288       15 1.5868203e-15            7            1            7 1.0743342e-16 
    2425    86.505508       15 1.5919345e-15            7            1            7 1.0737967e-16 
    2430    86.697778       15 1.5970668e-15            7            1            7 1.0732595e-16 
    2435    86.872104       15 1.6022172e-15            7            1            7 1.0727225e-16 
    2440    87.049304       15 1.6073859e-15            7            1            7 1.0721858e-16 
    2445    87.239913       15 1.6125728e-15            7            1            7 1.0716494e-16 
    2450    87.423492       15 1.6177781e-15            7            1            7 1.0711133e-16 
    2455    87.606707       15 1.6230018e-15            7            1            7 1.0705774e-16 
    2460    87.777758       15 1.6282439e-15            7            1            7 1.0700418e-16 
    2465    87.956231       15 1.6335046e-15            7            1            7 1.0695064e-16 
    2470    88.141012       15 1.6387839e-15            7            1            7 1.0689714e-16 
    2475    88.322079       15 1.6440819e-15            7            1            7 1.0684366e-16 
    2480    88.519724       16 1.6493985e-15            8            1            7 1.067902e-16 
    2485    88.697307       16 1.654734e-15            8            1            7 1.0673678e-16 
    2490    88.875093       16 1.6600884e-15            8            1            7 1.0668337e-16 
    2495    89.069802       16 1.6654616e-15            8            1            7   1.0663e-16 
    2500    89.262574       16 1.6708539e-15            8            1            7 1.0657665e-16 
    2505    89.447652       16 1.6762652e-15            8            1            7 1.0652333e-16 
    2510    89.619956       16 1.6816957e-15            8            1            7 1.0647004e-16 
    2515    89.795382       16 1.6871453e-15            8            1            7 1.0641677e-16 
    2520    89.999189       16 1.6926142e-15            8            1            7 1.0636353e-16 
    2525    90.223855       16 1.6981024e-15            8            1            7 1.0631032e-16 
    2530     90.43849       16  1.70361e-15            8            1            7 1.0625713e-16 
    2535     90.64056       16 1.7091371e-15            8            1            7 1.0620397e-16 
    2540    90.842235       16 1.7146837e-15            8            1            7 1.0615084e-16 
    2545    91.050872       16 1.7202499e-15            8            1            7 1.0609773e-16 
    2550    91.252467       16 1.7258358e-15            8            1            7 1.0604465e-16 
    2555    91.462898       16 1.7314414e-15            8            1            7 1.059916e-16 
    2560    91.666979       16 1.7370668e-15            8            1            7 1.0593857e-16 
    2565    91.887332       16 1.7427121e-15            8            1            7 1.0588557e-16 
    2570    92.119994       16 1.7483773e-15            8            1            7 1.0583259e-16 
    2575    92.344528       16 1.7540626e-15            8            1            7 1.0577964e-16 
    2580    92.554524       16 1.7597679e-15            8            1            7 1.0572672e-16 
    2585    92.786194       16 1.7654934e-15            8            1            7 1.0567383e-16 
    2590    92.992049       16 1.7712391e-15            8            1            7 1.0562096e-16 
    2595    93.196351       16 1.7770051e-15            8            1            7 1.0556812e-16 
    2600    93.396505       16 1.7827914e-15            8            1            7 1.055153e-16 
    2605    93.604144       16 1.7885982e-15            8            1            7 1.0546251e-16 
    2610    93.816802       16 1.7944255e-15            8            1            7 1.0540975e-16 
    2615    94.027004       16 1.8002734e-15            8            1            7 1.0535701e-16 
    2620    94.266595       16 1.8061419e-15            8            1            7 1.053043e-16 
    2625    94.462349       16 1.8120311e-15            8            1            7 1.0525162e-16 
    2630     94.66032       16 1.8179412e-15            8            1            7 1.0519896e-16 
    2635    94.841105       16 1.8238721e-15            8            1            7 1.0514633e-16 
    2640    95.028252       16 1.8298239e-15            8            1            7 1.0509373e-16 
    2645    95.217716       16 1.8357968e-15            8            1            7 1.0504115e-16 
    2650    95.390412       16 1.8417907e-15            8            1            7 1.049886e-16 
    2655    95.574389       16 1.8478058e-15            8            1            7 1.0493607e-16 
    2660    95.743851       16 1.8538421e-15            8            1            7 1.0488357e-16 
    2665    95.919992       16 1.8598998e-15            8            1            7 1.048311e-16 
    2670    96.109428       16 1.8659788e-15            8            1            7 1.0477865e-16 
    2675    96.295304       16 1.8720793e-15            8            1            7 1.0472623e-16 
    2680      96.4828       16 1.8782013e-15            8            1            7 1.0467384e-16 
    2685    96.666456       16 1.8843449e-15            8            1            7 1.0462147e-16 
    2690    96.839314       16 1.8905102e-15            8            1            7 1.0456912e-16 
    2695     97.02847       16 1.8966973e-15            8            1            7 1.0451681e-16 
    2700    97.209022       16 1.9029062e-15            8            1            7 1.0446452e-16 
    2705    97.378807       16 1.909137e-15            8            1            7 1.0441226e-16 
    2710    97.566256       16 1.9153898e-15            8            1            7 1.0436002e-16 
    2715     97.76044       16 1.9216647e-15            8            1            7 1.0430781e-16 
    2720    97.953215       16 1.9279617e-15            8            1            7 1.0425562e-16 
    2725    98.132772       17 1.9342809e-15            8            1            8 1.0420346e-16 
    2730     98.31053       17 1.9406224e-15            8            1            8 1.0415133e-16 
    2735    98.496234       17 1.9469863e-15            8            1            8 1.0409922e-16 
    2740    98.691146       17 1.9533726e-15            8            1            8 1.0404714e-16 
    2745    98.884188       17 1.9597815e-15            8            1            8 1.0399509e-16 
    2750    99.077747       17 1.9662129e-15            8            1            8 1.0394306e-16 
    2755    99.307354       17 1.9726671e-15            8            1            8 1.0389106e-16 
    2760    99.497541       17 1.979144e-15            8            1            8 1.0383908e-16 
    2765    99.686812       17 1.9856438e-15            8            1            8 1.0378713e-16 
    2770    99.877294       17 1.9921665e-15            8            1            8 1.037352e-16 
    2775    100.07486       17 1.9987122e-15            8            1            8 1.036833e-16 
    2780    100.26285       17 2.005281e-15            8            1            8 1.0363143e-16 
    2785    100.45069       17 2.011873e-15            8            1            8 1.0357959e-16 
    2790    100.64177       17 2.0184882e-15            8            1            8 1.0352776e-16 
    2795    100.82185       17 2.0251267e-15            8            1            8 1.0347597e-16 
    2800    101.01824       17 2.0317887e-15            8            1            8 1.034242e-16 
    2805    101.21104       17 2.0384741e-15            8            1            8 1.0337246e-16 
    2810    101.39738       17 2.0451831e-15            8            1            8 1.0332074e-16 
    2815    101.59146       17 2.0519158e-15            8            1            8 1.0326905e-16 
    2820    101.77582       18 2.0586722e-15            9            1            8 1.0321738e-16 
    2825    101.99999       19 2.0654525e-15            9            1            9 1.0316574e-16 
    2830    102.18126       19 2.0722566e-15            9            1            9 1.0311413e-16 
    2835    102.37261       19 2.0790847e-15            9            1            9 1.0306254e-16 
    2840    102.56314       19 2.0859369e-15            9            1            9 1.0301098e-16 
    2845    102.73498       19 2.0928133e-15            9            1            9 1.0295944e-16 
    2850    102.90984       19 2.0997139e-15            9            1            9 1.0290793e-16 
    2855    103.09583       19 2.1066388e-15            9            1            9 1.0285645e-16 
    2860    103.30902       19 2.1135882e-15            9            1            9 1.0280499e-16 
    2865    103.48649       19 2.120562e-15            9            1            9 1.0275356e-16 
    2870    103.66144       19 2.1275604e-15            9            1            9 1.0270215e-16 
    2875    103.84331       19 2.1345835e-15            9            1            9 1.0265077e-16 
    2880    104.01698       20 2.1416314e-15            9            1           10 1.0259941e-16 
    2885    104.19352       20 2.148704e-15            9            1           10 1.0254808e-16 
    2890    104.38083       20 2.1558017e-15            9            1           10 1.0249677e-16 
    2895    104.59716       20 2.1629243e-15            9            1           10 1.024455e-16 
    2900    104.78606       20 2.170072e-15            9            1           10 1.0239424e-16 
    2905    104.97292       20 2.1772449e-15            9            1           10 1.0234301e-16 
    2910    105.15902       20 2.1844431e-15            9            1           10 1.0229181e-16 
    2915    105.33432       20 2.1916667e-15            9            1           10 1.0224064e-16 
    2920    105.51543       21 2.1989157e-15           10            1           10 1.0218948e-16 
    2925    105.70094       21 2.2061902e-15           10            1           10 1.0213836e-16 
    2930    105.89335       21 2.2134904e-15           10            1           10 1.0208726e-16 
    2935    106.05686       22 2.2208163e-15           11            1           10 1.0203619e-16 
    2940    106.23692       22 2.228168e-15           11            1           10 1.0198514e-16 
    2945    106.41896       22 2.2355457e-15           11            1           10 1.0193411e-16 
    2950    106.60622       22 2.2429493e-15           11            1           10 1.0188312e-16 
    2955    106.79997       22 2.250379e-15           11            1           10 1.0183214e-16 
    2960    106.98134       22 2.2578348e-15           11            1           10 1.017812e-16 
    2965    107.17085       22 2.265317e-15           11            1           10 1.0173028e-16 
    2970    107.37175       22 2.2728255e-15           11            1           10 1.0167938e-16 
    2975    107.56708       22 2.2803604e-15           11            1           10 1.0162851e-16 
    2980    107.76269       22 2.2879219e-15           11            1           10 1.0157767e-16 
    2985    107.95153       22  2.29551e-15           11            1           10 1.0152685e-16 
    2990    108.13183       22 2.3031249e-15           11            1           10 1.0147605e-16 
    2995    108.29351       23 2.3107665e-15           11            1           11 1.0142528e-16 
    3000     108.4837       24 2.3184351e-15           12            1           11 1.0137454e-16 
    3005    108.64762       24 2.3261307e-15           12            1           11 1.0132382e-16 
    3010    108.82241       24 2.3338534e-15           12            1           11 1.0127313e-16 
    3015    108.99859       24 2.3416033e-15           12            1           11 1.0122246e-16 
    3020    109.16652       24 2.3493805e-15           12            1           11 1.0117182e-16 
    3025    109.34051       24 2.357185e-15           12            1           11 1.0112121e-16 
    3030     109.5104       24 2.3650171e-15           12            1           11 1.0107061e-16 
    3035    109.69029       24 2.3728767e-15           12            1           11 1.0102005e-16 
    3040    109.85185       24 2.380764e-15           12            1           11 1.0096951e-16 
    3045    110.03263       24 2.3886791e-15           12            1           11 1.0091899e-16 
    3050    110.21732       25 2.3966221e-15           13            1           11 1.008685e-16 
    3055    110.39896       25 2.404593e-15           13            1           11 1.0081804e-16 
    3060    110.57715       25 2.412592e-15           13            1           11 1.007676e-16 
    3065    110.76226       25 2.4206191e-15           13            1           11 1.0071719e-16 
    3070    110.91363       25 2.4286746e-15           13            1           11 1.006668e-16 
    3075    111.06348       26 2.4367583e-15           14            1           11 1.0061643e-16 
    3080    111.22584       26 2.4448706e-15           14            1           11 1.005661e-16 
    3085    111.38482       26 2.4530114e-15           14            1           11 1.0051578e-16 
    3090    111.54377       26 2.4611808e-15           14            1           11 1.0046549e-16 
    3095    111.69899       26 2.469379e-15           14            1           11 1.0041523e-16 
    3100     111.8443       26 2.4776061e-15           14            1           11 1.0036499e-16 
    3105    111.99432       26 2.4858621e-15           14            1           11 1.0031478e-16 
    3110    112.14943       26 2.4941472e-15           14            1           11 1.0026459e-16 
    3115    112.30765       26 2.5024614e-15           14            1           11 1.0021443e-16 
    3120    112.46482       26 2.5108049e-15           14            1           11 1.0016429e-16 
    3125     112.6246       26 2.5191778e-15           14            1           11 1.0011418e-16 
    3130    112.78847       26 2.5275802e-15           14            1           11 1.0006409e-16 
    3135    112.94362       26 2.5360121e-15           14            1           11 1.0001403e-16 
    3140    113.11004       26 2.5444737e-15           14            1           11 9.9963996e-17 
    3145    113.26753       26 2.5529651e-15           14            1           11 9.9913984e-17 
    3150    113.44666       27 2.5614863e-15           14            1           12 9.9863997e-17 
    3155    113.63124       27 2.5700376e-15           14            1           12 9.9814035e-17 
    3160    113.81159       27 2.5786189e-15           14            1           12 9.9764098e-17 
    3165    113.98064       27 2.5872304e-15           14            1           12 9.9714186e-17 
    3170    114.16231       27 2.5958723e-15           14            1           12 9.9664299e-17 
    3175    114.33811       27 2.6045445e-15           14            1           12 9.9614437e-17 
    3180    114.50524       27 2.6132473e-15           14            1           12  9.95646e-17 
    3185    114.67904       27 2.6219807e-15           14            1           12 9.9514788e-17 
    3190    114.83229       27 2.6307448e-15           14            1           12 9.9465001e-17 
    3195    115.01357       27 2.6395397e-15           14            1           12 9.9415238e-17 
    3200    115.19351       27 2.6483656e-15           14            1           12 9.9365501e-17 
    3205    115.39182       27 2.6572226e-15           14            1           12 9.9315788e-17 
    3210    115.57807       27 2.6661107e-15           14            1           12 9.9266101e-17 
    3215    115.76753       27 2.6750301e-15           14            1           12 9.9216438e-17 
    3220     115.9549       27 2.6839808e-15           14            1           12  9.91668e-17 
    3225    116.13587       27 2.6929631e-15           14            1           12 9.9117187e-17 
    3230    116.33268       28 2.7019769e-15           15            1           12 9.9067598e-17 
    3235    116.52756       28 2.7110224e-15           15            1           12 9.9018035e-17 
    3240     116.7182       28 2.7200998e-15           15            1           12 9.8968496e-17 
    3245    116.92604       28 2.7292091e-15           15            1           12 9.8918982e-17 
    3250    117.13051       28 2.7383505e-15           15            1           12 9.8869493e-17 
    3255    117.32878       28 2.7475239e-15           15            1           12 9.8820029e-17 
    3260    117.51384       28 2.7567297e-15           15            1           12 9.8770589e-17 
    3265    117.71564       28 2.7659679e-15           15            1           12 9.8721174e-17 
    3270    117.92681       28 2.7752385e-15           15            1           12 9.8671784e-17 
    3275    118.11495       28 2.7845417e-15           15            1           12 9.8622418e-17 
    3280    118.30715       28 2.7938777e-15           15            1           12 9.8573078e-17 
    3285    118.49729       28 2.8032465e-15           15            1           12 9.8523762e-17 
    3290    118.65698       28 2.8126482e-15           15            1           12 9.847447e-17 
    3295    118.81122       28 2.822083e-15           15            1           12 9.8425203e-17 
    3300    119.00005       28 2.831551e-15           15            1           12 9.8375961e-17 
    3305    119.15583       28 2.8410523e-15           15            1           12 9.8326744e-17 
    3310    119.32008       30 2.850587e-15           15            1           14 9.8277551e-17 
    3315    119.49181       30 2.8601552e-15           15            1           14 9.8228383e-17 
    3320    119.66712       30 2.8697571e-15           15            1           14 9.8179239e-17 
    3325    119.83103       30 2.8793927e-15           15            1           14 9.813012e-17 
    3330    120.00773       30 2.8890622e-15           15            1           14 9.8081026e-17 
    3335    120.19391       30 2.8987657e-15           15            1           14 9.8031956e-17 
    3340    120.36566       30 2.9085034e-15           15            1           14 9.798291e-17 
    3345    120.53819       30 2.9182752e-15           15            1           14 9.7933889e-17 
    3350    120.71363       30 2.9280815e-15           15            1           14 9.7884893e-17 
    3355     120.8951       30 2.9379222e-15           15            1           14 9.7835921e-17 
    3360    121.07265       30 2.9477975e-15           15            1           14 9.7786974e-17 
    3365    121.25495       30 2.9577075e-15           15            1           14 9.7738051e-17 
    3370    121.41924       30 2.9676524e-15           15            1           14 9.7689153e-17 
    3375    121.58289       30 2.9776322e-15           15            1           14 9.7640279e-17 
    3380    121.73717       30 2.9876471e-15           15            1           14 9.759143e-17 
    3385    121.90227       30 2.9976972e-15           15            1           14 9.7542605e-17 
    3390    122.06927       30 3.0077827e-15           15            1           14 9.7493804e-17 
    3395    122.23293       30 3.0179036e-15           15            1           14 9.7445028e-17 
    3400    122.39451       30  3.02806e-15           15            1           14 9.7396276e-17 
    3405    122.57089       30 3.0382522e-15           15            1           14 9.7347549e-17 
    3410    122.72797       30 3.0484802e-15           15            1           14 9.7298846e-17 
    3415    122.89788       30 3.0587442e-15           15            1           14 9.7250167e-17 
    3420    123.06799       30 3.0690442e-15           15            1           14 9.7201513e-17 
    3425     123.2386       30 3.0793805e-15           15            1           14 9.7152883e-17 
    3430    123.42105       30 3.089753e-15           15            1           14 9.7104278e-17 
    3435    123.60114       30 3.100162e-15           15            1           14 9.7055696e-17 
    3440    123.79444       30 3.1106077e-15           15            1           14 9.7007139e-17 
    3445    123.98454       30  3.12109e-15           15            1           14 9.6958607e-17 
    3450    124.17979       30 3.1316091e-15           15            1           14 9.6910098e-17 
    3455    124.36559       30 3.1421653e-15           15            1           14 9.6861614e-17 
    3460    124.55528       30 3.1527585e-15           15            1           14 9.6813154e-17 
    3465    124.74171       30 3.1633889e-15           15            1           14 9.6764719e-17 
    3470    124.92492       30 3.1740568e-15           15            1           14 9.6716307e-17 
    3475    125.10847       30 3.1847621e-15           15            1           14 9.666792e-17 
    3480    125.29226       30 3.195505e-15           15            1           14 9.6619557e-17 
    3485    125.46438       30 3.2062857e-15           15            1           14 9.6571219e-17 
    3490    125.65206       30 3.2171042e-15           15            1           14 9.6522904e-17 
    3495     125.8104       30 3.2279608e-15           15            1           14 9.6474614e-17 
    3500    126.00158       30 3.2388555e-15           15            1           14 9.6426347e-17 
    3505     126.1873       30 3.2497885e-15           15            1           14 9.6378105e-17 
    3510    126.39303       30 3.2607599e-15           15            1           14 9.6329887e-17 
    3515    126.59175       30 3.2717699e-15           15            1           14 9.6281693e-17 
    3520    126.78192       30 3.2828185e-15           15            1           14 9.6233524e-17 
    3525     126.9733       31 3.293906e-15           15            1           15 9.6185378e-17 
    3530    127.13962       31 3.3050324e-15           15            1           15 9.6137257e-17 
    3535    127.30692       31 3.316198e-15           15            1           15 9.6089159e-17 
    3540    127.48314       31 3.3274027e-15           15            1           15 9.6041086e-17 
    3545    127.65925       31 3.3386468e-15           15            1           15 9.5993036e-17 
    3550    127.85329       31 3.3499304e-15           15            1           15 9.5945011e-17 
    3555    128.04267       31 3.3612537e-15           15            1           15 9.589701e-17 
    3560    128.24839       31 3.3726167e-15           15            1           15 9.5849033e-17 
    3565    128.43727       31 3.3840197e-15           15            1           15 9.5801079e-17 
    3570    128.62446       31 3.3954627e-15           15            1           15 9.575315e-17 
    3575    128.81341       31 3.4069459e-15           15            1           15 9.5705245e-17 
    3580     129.0247       31 3.4184695e-15           15            1           15 9.5657363e-17 
    3585     129.2162       31 3.4300335e-15           15            1           15 9.5609506e-17 
    3590    129.43775       31 3.4416381e-15           15            1           15 9.5561673e-17 
    3595     129.6349       31 3.4532835e-15           15            1           15 9.5513863e-17 
    3600    129.83171       32 3.4649699e-15           15            1           16 9.5466078e-17 
    3605    130.02409       32 3.4766972e-15           15            1           16 9.5418316e-17 
    3610    130.20786       32 3.4884658e-15           15            1           16 9.5370578e-17 
    3615    130.39008       32 3.5002757e-15           15            1           16 9.5322864e-17 
    3620    130.56282       32 3.5121271e-15           15            1           16 9.5275174e-17 
    3625    130.71003       32 3.5240201e-15           15            1           16 9.5227508e-17 
    3630    130.89507       33 3.5359549e-15           15            1           17 9.5179866e-17 
    3635    131.07546       33 3.5479315e-15           15            1           17 9.5132247e-17 
    3640    131.23748       33 3.5599503e-15           15            1           17 9.5084653e-17 
    3645    131.40567       33 3.5720113e-15           15            1           17 9.5037082e-17 
    3650    131.57246       33 3.5841146e-15           15            1           17 9.4989535e-17 
    3655    131.74437       34 3.5962604e-15           16            1           17 9.4942012e-17 
    3660    131.90742       34 3.6084489e-15           16            1           17 9.4894512e-17 
    3665    132.07771       34 3.6206802e-15           16            1           17 9.4847036e-17 
    3670    132.25382       34 3.6329544e-15           16            1           17 9.4799584e-17 
    3675     132.4316       34 3.6452718e-15           16            1           17 9.4752156e-17 
    3680    132.61665       34 3.6576324e-15           16            1           17 9.4704752e-17 
    3685    132.80855       34 3.6700364e-15           16            1           17 9.4657371e-17 
    3690    132.99613       34 3.6824839e-15           16            1           17 9.4610014e-17 
    3695    133.17609       34 3.6949752e-15           16            1           17 9.456268e-17 
    3700    133.33851       34 3.7075104e-15           16            1           17 9.4515371e-17 
    3705    133.51693       34 3.7200895e-15           16            1           17 9.4468085e-17 
    3710    133.68637       34 3.7327128e-15           16            1           17 9.4420822e-17 
    3715    133.86177       34 3.7453805e-15           16            1           17 9.4373584e-17 
    3720    134.03229       34 3.7580926e-15           16            1           17 9.4326369e-17 
    3725    134.19703       35 3.7708494e-15           17            1           17 9.4279177e-17 
    3730    134.37862       35 3.7836509e-15           17            1           17 9.4232009e-17 
    3735    134.53823       35 3.7964974e-15           17            1           17 9.4184865e-17 
    3740    134.71538       35 3.809389e-15           17            1           17 9.4137744e-17 
    3745    134.88514       36 3.8223259e-15           18            1           17 9.4090647e-17 
    3750    135.03619       37 3.8353081e-15           19            1           17 9.4043574e-17 
    3755    135.18587       37 3.848336e-15           19            1           17 9.3996524e-17 
    3760    135.36356       37 3.8614096e-15           19            1           17 9.3949497e-17 
    3765    135.54914       37 3.8745291e-15           19            1           17 9.3902494e-17 
    3770    135.72271       37 3.8876947e-15           19            1           17 9.3855515e-17 
    3775    135.89749       37 3.9009064e-15           19            1           17 9.3808559e-17 
    3780    136.08334       37 3.9141646e-15           19            1           17 9.3761627e-17 
    3785    136.26288       37 3.9274693e-15           19            1           17 9.3714718e-17 
    3790    136.44386       37 3.9408207e-15           19            1           17 9.3667832e-17 
    3795    136.61629       37 3.954219e-15           19            1           17 9.362097e-17 
    3800    136.80302       37 3.9676643e-15           19            1           17 9.3574132e-17 
    3805    136.96246       37 3.9811568e-15           19            1           17 9.3527317e-17 
    3810    137.12318       37 3.9946966e-15           19            1           17 9.3480525e-17 
    3815    137.29752       38 4.008284e-15           20            1           17 9.3433757e-17 
    3820    137.46989       38 4.0219191e-15           20            1           17 9.3387012e-17 
    3825    137.60627       39 4.0356021e-15           21            1           17 9.334029e-17 
    3830    137.75733       39 4.0493331e-15           21            1           17 9.3293592e-17 
    3835    137.90689       39 4.0631122e-15           21            1           17 9.3246917e-17 
    3840    138.07637       39 4.0769398e-15           21            1           17 9.3200266e-17 
    3845    138.23692       39 4.0908159e-15           21            1           17 9.3153638e-17 
    3850     138.4005       40 4.1047406e-15           22            1           17 9.3107033e-17 
    3855    138.56149       40 4.1187143e-15           22            1           17 9.3060452e-17 
    3860    138.71963       40 4.132737e-15           22            1           17 9.3013893e-17 
    3865    138.86954       40 4.1468089e-15           22            1           17 9.2967359e-17 
    3870    139.03565       40 4.1609302e-15           22            1           17 9.2920847e-17 
    3875    139.18886       40 4.175101e-15           22            1           17 9.2874359e-17 
    3880    139.34905       40 4.1893216e-15           22            1           17 9.2827894e-17 
    3885    139.52183       40 4.2035921e-15           22            1           17 9.2781452e-17 
    3890     139.7028       40 4.2179127e-15           22            1           17 9.2735033e-17 
    3895    139.87744       41 4.2322836e-15           22            1           18 9.2688638e-17 
    3900    140.05132       41 4.2467048e-15           22            1           18 9.2642266e-17 
    3905    140.22276       42 4.2611767e-15           23            1           18 9.2595917e-17 
[...]
    4045    144.93561       44 4.6876728e-15           23            1           20 9.130752e-17 
    4050    145.11107       44 4.7036919e-15           23            1           20 9.1261839e-17 
    4055    145.27679       44 4.7197672e-15           23            1           20 9.121618e-17 
    4060    145.44723       44 4.7358989e-15           23            1           20 9.1170545e-17 
    4065    145.62075       44 4.7520872e-15           23            1           20 9.1124932e-17 
    4070    145.80689       44 4.7683323e-15           23            1           20 9.1079343e-17 
    4075    145.97077       44 4.7846344e-15           23            1           20 9.1033776e-17 
    4080    146.13412       44 4.8009936e-15           23            1           20 9.0988231e-17 
    4085    146.30651       45 4.8174103e-15           24            1           20 9.094271e-17 
    4090    146.48911       45 4.8338845e-15           24            1           20 9.0897211e-17 
    4095    146.65109       45 4.8504165e-15           24            1           20 9.0851736e-17 
    4100     146.8137       45 4.8670065e-15           24            1           20 9.0806282e-17 
    4105    146.97747       45 4.8836547e-15           24            1           20 9.0760852e-17 
    4110    147.13149       46 4.9003613e-15           24            1           21 9.0715444e-17 
    4115    147.29728       46 4.9171265e-15           24            1           21 9.067006e-17 
    4120    147.46412       46 4.9339505e-15           24            1           21 9.0624697e-17 
    4125    147.61519       46 4.9508335e-15           24            1           21 9.0579358e-17 
    4130    147.77772       47 4.9677757e-15           24            1           22 9.0534041e-17 
    4135    147.93648       49 4.9847773e-15           24            1           24 9.0488747e-17 
    4140    148.10125       50 5.0018386e-15           25            1           24 9.0443475e-17 
    4145    148.26877       50 5.0189597e-15           25            1           24 9.0398226e-17 
    4150     148.4357       51 5.0361409e-15           26            1           24   9.0353e-17 
    4155     148.6224       51 5.0533823e-15           26            1           24 9.0307797e-17 
    4160    148.80582       51 5.0706842e-15           26            1           24 9.0262616e-17 
    4165    148.98685       51 5.0880468e-15           26            1           24 9.0217457e-17 
    4170    149.16407       51 5.1054703e-15           26            1           24 9.0172321e-17 
    4175    149.34443       51 5.1229548e-15           26            1           24 9.0127208e-17 
    4180    149.52306       53 5.1405007e-15           28            1           24 9.0082118e-17 
    4185    149.68039       53 5.1581082e-15           28            1           24 9.003705e-17 
    4190    149.84666       53 5.1757774e-15           28            1           24 8.9992004e-17 
    4195    150.02205       53 5.1935085e-15           28            1           24 8.9946981e-17 
    4200    150.20719       53 5.2113018e-15           28            1           24 8.9901981e-17 
    4205    150.41228       53 5.2291576e-15           28            1           24 8.9857003e-17 
    4210     150.6005       53 5.2470759e-15           28            1           24 8.9812047e-17 
    4215     150.7863       53 5.2650571e-15           28            1           24 8.9767114e-17 
    4220    150.97263       54 5.2831013e-15           28            1           25 8.9722204e-17 
    4225    151.17692       55 5.3012089e-15           29            1           25 8.9677316e-17 
    4230    151.36095       55 5.3193799e-15           29            1           25 8.963245e-17 
    4235    151.55344       55 5.3376146e-15           29            1           25 8.9587607e-17 
    4240    151.74321       55 5.3559133e-15           29            1           25 8.9542786e-17 
    4245    151.93248       55 5.3742762e-15           29            1           25 8.9497988e-17 
    4250    152.12307       55 5.3927034e-15           29            1           25 8.9453212e-17 
    4255    152.30536       55 5.4111953e-15           29            1           25 8.9408459e-17 
    4260    152.49517       55 5.429752e-15           29            1           25 8.9363728e-17 
    4265    152.67842       55 5.4483738e-15           29            1           25 8.9319019e-17 
    4270    152.87011       55 5.4670608e-15           29            1           25 8.9274333e-17 
    4275     153.0539       55 5.4858134e-15           29            1           25 8.9229669e-17 
    4280    153.23642       55 5.5046318e-15           29            1           25 8.9185027e-17 
    4285     153.4247       55 5.5235161e-15           29            1           25 8.9140408e-17 
    4290     153.6272       55 5.5424667e-15           29            1           25 8.9095811e-17 
    4295    153.82075       55 5.5614837e-15           29            1           25 8.9051237e-17 
    4300    154.01683       55 5.5805674e-15           29            1           25 8.9006684e-17 
    4305     154.2126       55 5.5997179e-15           29            1           25 8.8962154e-17 
    4310    154.40415       55 5.6189357e-15           29            1           25 8.8917647e-17 
    4315    154.59635       56 5.6382208e-15           29            1           26 8.8873161e-17 
    4320    154.78389       56 5.6575735e-15           29            1           26 8.8828698e-17 
    4325    154.96632       56 5.6769941e-15           29            1           26 8.8784257e-17 
    4330     155.1527       56 5.6964828e-15           29            1           26 8.8739838e-17 
    4335    155.35451       57 5.7160398e-15           30            1           26 8.8695442e-17 
    4340     155.5432       57 5.7356654e-15           30            1           26 8.8651067e-17 
    4345    155.74129       57 5.7553598e-15           30            1           26 8.8606715e-17 
    4350    155.93312       57 5.7751232e-15           30            1           26 8.8562385e-17 
    4355    156.12263       57 5.7949559e-15           30            1           26 8.8518078e-17 
    4360    156.31354       57 5.8148582e-15           30            1           26 8.8473792e-17 
    4365    156.50757       57 5.8348302e-15           30            1           26 8.8429529e-17 
    4370    156.69429       57 5.8548723e-15           30            1           26 8.8385287e-17 
    4375     156.8888       57 5.8749846e-15           30            1           26 8.8341068e-17 
    4380    157.09164       57 5.8951674e-15           30            1           26 8.8296871e-17 
    4385    157.28095       57 5.915421e-15           30            1           26 8.8252696e-17 
    4390    157.47639       57 5.9357456e-15           30            1           26 8.8208543e-17 
    4395     157.6642       57 5.9561414e-15           30            1           26 8.8164413e-17 
    4400    157.85884       57 5.9766088e-15           30            1           26 8.8120304e-17 
    4405    158.04941       57 5.9971478e-15           30            1           26 8.8076217e-17 
    4410    158.23946       57 6.0177589e-15           30            1           26 8.8032153e-17 
    4415    158.43256       57 6.0384423e-15           30            1           26 8.798811e-17 
    4420    158.62286       59 6.0591981e-15           31            1           27 8.794409e-17 
    4425    158.82891       59 6.0800268e-15           31            1           27 8.7900092e-17 
    4430    159.02176       59 6.1009284e-15           31            1           27 8.7856115e-17 
    4435    159.20598       59 6.1219033e-15           31            1           27 8.7812161e-17 
    4440    159.39631       59 6.1429517e-15           31            1           27 8.7768228e-17 
    4445    159.58364       59 6.1640739e-15           31            1           27 8.7724318e-17 
    4450    159.78137       59 6.1852702e-15           31            1           27 8.768043e-17 
    4455    159.97253       59 6.2065407e-15           31            1           27 8.7636563e-17 
    4460    160.16508       59 6.2278858e-15           31            1           27 8.7592718e-17 
    4465    160.37127       61 6.2493058e-15           32            1           28 8.7548896e-17 
    4470    160.56209       61 6.2708008e-15           32            1           28 8.7505095e-17 
    4475    160.74536       61 6.2923712e-15           32            1           28 8.7461316e-17 
    4480    160.93087       61 6.3140171e-15           32            1           28 8.7417559e-17 
    4485    161.12894       61 6.335739e-15           32            1           28 8.7373824e-17 
    4490    161.31474       61 6.357537e-15           32            1           28 8.7330111e-17 
    4495    161.49912       61 6.3794113e-15           32            1           28 8.728642e-17 
    4500    161.68857       61 6.4013624e-15           32            1           28 8.7242751e-17 
    4505     161.8709       61 6.4233904e-15           32            1           28 8.7199103e-17 
    4510    162.06189       61 6.4454956e-15           32            1           28 8.7155478e-17 
    4515    162.22568       61 6.4676783e-15           32            1           28 8.7111874e-17 
    4520    162.37329       61 6.4899388e-15           32            1           28 8.7068292e-17 
    4525     162.5306       61 6.5122772e-15           32            1           28 8.7024731e-17 
    4530    162.68164       61 6.534694e-15           32            1           28 8.6981193e-17 
    4535    162.84423       61 6.5571893e-15           32            1           28 8.6937676e-17 
    4540    162.98495       61 6.5797635e-15           32            1           28 8.6894181e-17 
    4545    163.13402       61 6.6024168e-15           32            1           28 8.6850708e-17 
    4550    163.28426       62 6.6251495e-15           32            1           29 8.6807257e-17 
    4555    163.43501       63 6.6479619e-15           32            1           30 8.6763827e-17 
    4560    163.58696       64 6.6708542e-15           33            1           30 8.6720419e-17 
    4565     163.7437       65 6.6938267e-15           34            1           30 8.6677033e-17 
    4570    163.90975       65 6.7168798e-15           34            1           30 8.6633669e-17 
    4575    164.04564       66 6.7400136e-15           34            1           31 8.6590326e-17 
    4580    164.20083       66 6.7632286e-15           34            1           31 8.6547005e-17 
    4585    164.35329       66 6.7865249e-15           34            1           31 8.6503705e-17 
    4590    164.52482       66 6.8099028e-15           34            1           31 8.6460427e-17 
    4595    164.68687       66 6.8333627e-15           34            1           31 8.6417171e-17 
    4600    164.83627       66 6.8569048e-15           34            1           31 8.6373937e-17 
    4605    164.98536       66 6.8805294e-15           34            1           31 8.6330724e-17 
    4610    165.15551       66 6.9042368e-15           34            1           31 8.6287533e-17 
    4615    165.29934       67 6.9280272e-15           35            1           31 8.6244363e-17 
    4620    165.44992       67 6.9519011e-15           35            1           31 8.6201215e-17 
    4625      165.589       67 6.9758586e-15           35            1           31 8.6158088e-17 
    4630    165.74224       67 6.9999001e-15           35            1           31 8.6114984e-17 
    4635    165.88652       67 7.0240258e-15           35            1           31  8.60719e-17 
    4640    166.04224       67 7.0482361e-15           35            1           31 8.6028839e-17 
    4645    166.19031       67 7.0725312e-15           35            1           31 8.5985798e-17 
    4650    166.33387       67 7.0969115e-15           35            1           31 8.594278e-17 
    4655    166.48395       67 7.1213771e-15           35            1           31 8.5899782e-17 
    4660    166.65169       67 7.1459286e-15           35            1           31 8.5856807e-17 
    4665    166.79494       67 7.170566e-15           35            1           31 8.5813853e-17 
    4670    166.94622       67 7.1952898e-15           35            1           31 8.577092e-17 
    4675    167.10443       68 7.2201003e-15           35            1           32 8.5728009e-17 
    4680    167.25599       69 7.2449977e-15           35            1           33 8.5685119e-17 
    4685    167.40785       69 7.2699823e-15           35            1           33 8.5642251e-17 
    4690    167.55761       69 7.2950545e-15           35            1           33 8.5599404e-17 
    4695    167.71659       69 7.3202145e-15           35            1           33 8.5556579e-17 
    4700    167.86092       69 7.3454627e-15           35            1           33 8.5513775e-17 
    4705    168.02774       69 7.3707994e-15           35            1           33 8.5470992e-17 
    4710    168.19367       69 7.3962249e-15           35            1           33 8.5428231e-17 
    4715    168.34426       69 7.4217394e-15           35            1           33 8.5385491e-17 
    4720    168.50939       70 7.4473434e-15           36            1           33 8.5342773e-17 
    4725    168.66281       70 7.473037e-15           36            1           33 8.5300076e-17 
    4730      168.817       70 7.4988207e-15           36            1           33 8.5257401e-17 
    4735    168.96524       70 7.5246948e-15           36            1           33 8.5214746e-17 
    4740    169.11059       71 7.5506595e-15           36            1           34 8.5172113e-17 
    4745     169.2656       71 7.5767152e-15           36            1           34 8.5129502e-17 
    4750     169.4235       71 7.6028622e-15           36            1           34 8.5086911e-17 
    4755    169.56572       71 7.6291008e-15           36            1           34 8.5044343e-17 
    4760    169.73047       71 7.6554313e-15           36            1           34 8.5001795e-17 
    4765    169.87558       71 7.6818541e-15           36            1           34 8.4959268e-17 
    4770    170.02591       72 7.7083695e-15           37            1           34 8.4916763e-17 
    4775    170.17761       72 7.7349778e-15           37            1           34 8.487428e-17 
    4780     170.3411       72 7.7616793e-15           37            1           34 8.4831817e-17 
    4785    170.48578       73 7.7884744e-15           37            1           35 8.4789376e-17 
    4790    170.63383       74 7.8153634e-15           38            1           35 8.4746955e-17 
    4795    170.80131       74 7.8423465e-15           38            1           35 8.4704557e-17 
    4800    170.96811       74 7.8694243e-15           38            1           35 8.4662179e-17 
    4805    171.11959       74 7.8965969e-15           38            1           35 8.4619822e-17 
    4810    171.26609       74 7.9238646e-15           38            1           35 8.4577487e-17 
    4815      171.421       74 7.951228e-15           38            1           35 8.4535173e-17 
    4820    171.57009       74 7.9786872e-15           38            1           35 8.449288e-17 
    4825    171.72294       74 8.0062426e-15           38            1           35 8.4450608e-17 
    4830    171.87653       75 8.0338946e-15           39            1           35 8.4408358e-17 
    4835    172.03414       75 8.0616434e-15           39            1           35 8.4366128e-17 
    4840    172.18943       75 8.0894895e-15           39            1           35 8.432392e-17 
    4845    172.34236       75 8.1174331e-15           39            1           35 8.4281733e-17 
    4850     172.4879       75 8.1454746e-15           39            1           35 8.4239567e-17 
    4855    172.63692       75 8.1736144e-15           39            1           35 8.4197422e-17 
    4860    172.80028       75 8.2018527e-15           39            1           35 8.4155298e-17 
    4865    172.94781       75  8.23019e-15           39            1           35 8.4113195e-17 
    4870    173.11519       75 8.2586266e-15           39            1           35 8.4071113e-17 
    4875    173.27005       75 8.2871628e-15           39            1           35 8.4029052e-17 
    4880    173.42626       77 8.315799e-15           41            1           35 8.3987012e-17 
    4885    173.57819       78 8.3445354e-15           42            1           35 8.3944994e-17 
    4890     173.7431       78 8.3733726e-15           42            1           35 8.3902996e-17 
    4895    173.90222       78 8.4023108e-15           42            1           35 8.3861019e-17 
    4900    174.06375       79 8.4313504e-15           43            1           35 8.3819064e-17 
    4905    174.22496       79 8.4604917e-15           43            1           35 8.3777129e-17 
    4910    174.38168       81 8.4897351e-15           44            1           36 8.3735215e-17 
    4915    174.54642       82 8.519081e-15           44            1           37 8.3693323e-17 
    4920    174.69884       82 8.5485296e-15           44            1           37 8.3651451e-17 
    4925    174.86089       83 8.5780814e-15           44            1           38  8.36096e-17 
    4930    175.01359       83 8.6077368e-15           44            1           38 8.356777e-17 
    4935    175.15986       83 8.637496e-15           44            1           38 8.3525961e-17 
    4940     175.2989       84 8.6673595e-15           44            1           39 8.3484173e-17 
    4945    175.44616       84 8.6973276e-15           44            1           39 8.3442406e-17 
    4950    175.61369       84 8.7274007e-15           44            1           39 8.340066e-17 
    4955     175.7661       84 8.7575792e-15           44            1           39 8.3358935e-17 
    4960    175.92023       84 8.7878633e-15           44            1           39 8.331723e-17 
    4965    176.08091       84 8.8182536e-15           44            1           39 8.3275547e-17 
    4970    176.24043       84 8.8487503e-15           44            1           39 8.3233884e-17 
    4975     176.4169       87 8.8793539e-15           46            1           40 8.3192242e-17 
    4980    176.58868       87 8.9100646e-15           46            1           40 8.3150621e-17 
    4985     176.7611       87 8.940883e-15           46            1           40 8.3109021e-17 
    4990    176.90603       87 8.9718093e-15           46            1           40 8.3067441e-17 
    4995    177.05845       87 9.0028439e-15           46            1           40 8.3025883e-17 
    5000    177.22555       87 9.0339872e-15           46            1           40 8.2984345e-17 
Loop time of 177.226 on 1 procs for 5000 steps with 87 atoms

Performance: 87752566.885 tau/day, 28.213 timesteps/s
94.6% CPU use with 1 MPI tasks x no OpenMP threads

MPI task timing breakdown:
Section |  min time  |  avg time  |  max time  |%varavg| %total
---------------------------------------------------------------
Pair    | 0.070345   | 0.070345   | 0.070345   |   0.0 |  0.04
Neigh   | 14.088     | 14.088     | 14.088     |   0.0 |  7.95
Comm    | 0.10448    | 0.10448    | 0.10448    |   0.0 |  0.06
Output  | 0.072507   | 0.072507   | 0.072507   |   0.0 |  0.04
Modify  | 162.86     | 162.86     | 162.86     |   0.0 | 91.89
Other   |            | 0.03319    |            |       |  0.02

Nlocal:    87 ave 87 max 87 min
Histogram: 1 0 0 0 0 0 0 0 0 0
Nghost:    0 ave 0 max 0 min
Histogram: 1 0 0 0 0 0 0 0 0 0
Neighs:    377 ave 377 max 377 min
Histogram: 1 0 0 0 0 0 0 0 0 0

Total # of neighbors = 377
Ave neighs/atom = 4.33333
Neighbor list builds = 5000
Dangerous builds = 0


Total wall time: 0:03:01
