NUFEB Simulation 

       0 atoms 
       3 atom types 

   0.000000e-04   1e-03  xlo xhi 
   0.000000e-04   1e-03  ylo yhi 
   0.000000e-04   8e-05  zlo zhi 

