NUFEB Simulation 

       2 atoms 
       3 atom types 
       2 bacilli

   0.000000e-04   6e-5  xlo xhi 
   0.000000e-04   6e-5  ylo yhi 
   0.000000e-04   2e-6  zlo zhi 


 Atoms 

     1 1 1 370 3e-5 3e-5 1e-6 
     2 2 1 370 3e-5 2.4e-5 1e-6 


 Bacilli
     
     1 0 0 9.2e-23 0 0 0 1.5e-6 0 0 0.774e-6
     2 0 0 9.2e-23 0 0 0 1.5e-6 0.3e-6 0 0.774e-6


