NUFEB Simulation 

       0 atoms 
       5 atom types 

   0.000000e-04   6e-4  xlo xhi 
   0.000000e-04   6e-4  ylo yhi 
   0.000000e-04   3e-4 zlo zhi 

