NUFEB Simulation 

       0 atoms 
       5 atom types 

   0.000000e-04   1.5e-04  xlo xhi 
   0.000000e-04   1e-04  ylo yhi 
   0.000000e-04   1.5e-04 zlo zhi 

