LAMMPS (5 Nov 2016)
# NUFEB simulation

atom_style	bio
atom_modify	map array sort 1000 5.0e-7
boundary	ff ff ff
newton		off
#processors  2 1 1

comm_modify	vel yes
read_data_bio atom.in
  orthogonal box = (0 0 0) to (0.0001 0.0001 0.0001)
  1 by 1 by 1 MPI processor grid
  reading atoms ...
  3 atoms
  10 nutrients

group AOB type 1
1 atoms in group AOB
group NOB type 2
1 atoms in group NOB
group COMM type 3
1 atoms in group COMM

neighbor	5.0e-7 bin
neigh_modify	delay 0 one 5000

#pair_style none
pair_style  gran/hooke/history 0.000200 NULL 0.000050 NULL 0.0 1

pair_coeff  * *
timestep 36

fix 1 all nve/limit 1e-8

#fix	 2 all gravity 1.47 vector 0 0 -1 # spherical 90.0 -180.0
#fix     3 all fdrag
fix 10 all viscous 0.1


fix xw all wall/gran hooke/history 2000 NULL 500.0 NULL 1.5 0 xplane  0.0   1.0e-04
fix yw all wall/gran hooke/history 2000 NULL 500.0 NULL 1.5 0 yplane  0.0   1.0e-04
fix zw all wall/gran hooke/history 2000 NULL 500.0 NULL 1.5 0 zplane  0.0   1.0e-04

variable kanc equal 50

fix xwa all walladh v_kanc xplane  0.0   1.0e-04
fix ywa all walladh v_kanc yplane  0.0   1.0e-04
fix zwa all walladh v_kanc zplane  0.0   1.0e-04

##############Ibm Variable Definitions##############

#Defining EPS density and ratio variables
variable EPSdens equal 30
variable EPSratio equal 1.25

variable ke equal 5e+10

#Defining kinetics variables
variable temp equal 298.15
variable gasTran equal 0.08205746
variable gvol equal 8e-14
variable rth equal 0.0083144
variable pressure equal 1
variable ph equal 7.0

#Defining diffusion variables
variable diffT equal 1e-6
variable tol equal 8e-10

##############Ibm functions##############

fix k1 all kinetics 25 25 25 v_temp v_rth v_gvol v_gasTran v_ph
fix g1 all diffusion exp v_diffT v_tol pp pp nd
#fix ki3 all kinetics/ph 1
fix ki2 all kinetics/thermo 1 fix open v_pressure
fix ki1 all kinetics/monod 1 v_EPSdens
fix d1 all divide 1 v_EPSdens 1 31231

#fix j1 all epsadh 1 v_ke 1
#fix e1 HET eps_extract 16 v_EPSratio v_EPSdens 1242242

##############Ibm compute##############

compute myMass all biomass
compute myNtypes all ntypes

##############Simulation outputs##############

#dump		id all custom 250 snapshot.bubblemd id type diameter x y z
dump            d0 all bio 500 biomass
thermo_style    custom step cpu atoms biomass c_myNtypes[*] c_myMass[2]
thermo		5
thermo_modify	lost ignore

run  5000
Neighbor list info ...
  2 neighbor list requests
  update every 1 steps, delay 0 steps, check yes
  max neighbors/atom: 5000, page size: 100000
  master list distance cutoff = 1.466e-06
  ghost atom cutoff = 1.466e-06
  binsize = 7.33e-07 -> bins = 137 137 137
Memory usage per processor = 18.9946 Mbytes
Step CPU Atoms biomass c_myNtypes[1] c_myNtypes[2] c_myNtypes[3] c_myMass[2] 
       0            0        3 4.1062866e-16            1            1            1 1.3687622e-16 
       5   0.49482107        3 4.1151574e-16            1            1            1 1.3680774e-16 
      10   0.67551804        3 4.1240619e-16            1            1            1 1.3673929e-16 
      15   0.87280393        3 4.1330002e-16            1            1            1 1.3667088e-16 
      20    1.0558529        3 4.1419725e-16            1            1            1 1.3660251e-16 
      25     1.257056        3 4.1509788e-16            1            1            1 1.3653417e-16 
      30    1.4652529        3 4.1600193e-16            1            1            1 1.3646586e-16 
      35    1.6582811        3 4.1690941e-16            1            1            1 1.3639758e-16 
      40     1.842504        3 4.1782033e-16            1            1            1 1.3632934e-16 
      45      2.01477        3 4.1873471e-16            1            1            1 1.3626114e-16 
      50    2.2207079        3 4.1965255e-16            1            1            1 1.3619297e-16 
      55    2.4051001        3 4.2057387e-16            1            1            1 1.3612483e-16 
      60     2.606082        3 4.2149868e-16            1            1            1 1.3605673e-16 
      65     2.807127        3 4.2242699e-16            1            1            1 1.3598866e-16 
      70     3.009423        3 4.2335882e-16            1            1            1 1.3592062e-16 
      75     3.214359        3 4.2429417e-16            1            1            1 1.3585262e-16 
      80     3.420758        3 4.2523306e-16            1            1            1 1.3578465e-16 
      85    3.5862119        3 4.2617549e-16            1            1            1 1.3571672e-16 
      90    3.7490339        3 4.271215e-16            1            1            1 1.3564882e-16 
      95    3.9060841        3 4.2807107e-16            1            1            1 1.3558096e-16 
     100    4.0655241        3 4.2902423e-16            1            1            1 1.3551313e-16 
     105     4.234261        3  4.29981e-16            1            1            1 1.3544533e-16 
     110    4.3909149        3 4.3094137e-16            1            1            1 1.3537757e-16 
     115    4.5582969        3 4.3190537e-16            1            1            1 1.3530984e-16 
     120     4.722044        3  4.32873e-16            1            1            1 1.3524214e-16 
     125     4.890084        3 4.3384429e-16            1            1            1 1.3517448e-16 
     130    5.0561481        3 4.3481924e-16            1            1            1 1.3510685e-16 
     135     5.222198        3 4.3579786e-16            1            1            1 1.3503926e-16 
     140     5.379477        3 4.3678017e-16            1            1            1 1.349717e-16 
     145    5.5609009        3 4.3776618e-16            1            1            1 1.3490417e-16 
     150     5.809948        4 4.387559e-16            2            1            1 1.3483668e-16 
     155    6.0181129        5 4.3974935e-16            2            1            2 1.3476922e-16 
     160    6.2135279        5 4.4074654e-16            2            1            2 1.3470179e-16 
     165    6.4147389        5 4.4174748e-16            2            1            2 1.346344e-16 
     170    6.6107659        5 4.4275218e-16            2            1            2 1.3456705e-16 
     175    6.8137879        5 4.4376067e-16            2            1            2 1.3449972e-16 
     180    7.0057161        5 4.4477294e-16            2            1            2 1.3443243e-16 
     185    7.2038579        5 4.4578901e-16            2            1            2 1.3436517e-16 
     190     7.411556        5 4.4680891e-16            2            1            2 1.3429795e-16 
     195    7.6128099        5 4.4783263e-16            2            1            2 1.3423076e-16 
     200     7.818217        5 4.488602e-16            2            1            2 1.3416361e-16 
     205    8.0227361        5 4.4989162e-16            2            1            2 1.3409649e-16 
     210     8.227479        5 4.5092692e-16            2            1            2 1.340294e-16 
     215     8.440866        5 4.519661e-16            2            1            2 1.3396234e-16 
     220    8.6458011        5 4.5300917e-16            2            1            2 1.3389532e-16 
     225     8.848187        5 4.5405616e-16            2            1            2 1.3382833e-16 
     230     9.052489        5 4.5510707e-16            2            1            2 1.3376138e-16 
     235    9.2737501        5 4.5616191e-16            2            1            2 1.3369446e-16 
     240    9.4680459        5 4.5722071e-16            2            1            2 1.3362757e-16 
     245     9.672214        5 4.5828347e-16            2            1            2 1.3356072e-16 
     250    9.8815031        5 4.5935022e-16            2            1            2 1.334939e-16 
     255    10.086155        5 4.6042095e-16            2            1            2 1.3342711e-16 
     260    10.293245        5 4.6149569e-16            2            1            2 1.3336036e-16 
     265    10.499527        5 4.6257445e-16            2            1            2 1.3329364e-16 
     270    10.757009        5 4.6365724e-16            2            1            2 1.3322695e-16 
     275    10.972531        5 4.6474408e-16            2            1            2 1.3316029e-16 
     280    11.187554        5 4.6583499e-16            2            1            2 1.3309367e-16 
     285    11.406095        5 4.6692997e-16            2            1            2 1.3302709e-16 
     290    11.624815        5 4.6802904e-16            2            1            2 1.3296053e-16 
     295    11.807469        5 4.6913221e-16            2            1            2 1.3289401e-16 
     300    12.020703        5 4.702395e-16            2            1            2 1.3282753e-16 
     305    12.238722        5 4.7135093e-16            2            1            2 1.3276107e-16 
     310    12.484901        5 4.724665e-16            2            1            2 1.3269465e-16 
     315    12.795005        5 4.7358623e-16            2            1            2 1.3262827e-16 
     320    13.017042        5 4.7471014e-16            2            1            2 1.3256191e-16 
     325    13.222903        5 4.7583824e-16            2            1            2 1.3249559e-16 
     330    13.431486        5 4.7697054e-16            2            1            2 1.324293e-16 
     335    13.638425        5 4.7810707e-16            2            1            2 1.3236305e-16 
     340    13.846045        5 4.7924783e-16            2            1            2 1.3229683e-16 
     345    14.056699        5 4.8039283e-16            2            1            2 1.3223064e-16 
     350    14.294315        5 4.815421e-16            2            1            2 1.3216449e-16 
     355    14.499922        5 4.8269565e-16            2            1            2 1.3209836e-16 
     360    14.705147        5 4.8385349e-16            2            1            2 1.3203228e-16 
     365    14.911498        5 4.8501563e-16            2            1            2 1.3196622e-16 
     370    15.123983        5 4.861821e-16            2            1            2 1.319002e-16 
     375    15.326652        5 4.8735291e-16            2            1            2 1.3183421e-16 
     380    15.528205        5 4.8852807e-16            2            1            2 1.3176825e-16 
     385    15.733998        5 4.897076e-16            2            1            2 1.3170233e-16 
     390    15.939577        5 4.9089151e-16            2            1            2 1.3163644e-16 
     395    16.144713        5 4.9207982e-16            2            1            2 1.3157058e-16 
     400    16.352742        5 4.9327254e-16            2            1            2 1.3150475e-16 
     405    16.558538        5 4.9446969e-16            2            1            2 1.3143896e-16 
     410    16.767839        5 4.9567129e-16            2            1            2 1.313732e-16 
     415    16.965732        5 4.9687734e-16            2            1            2 1.3130748e-16 
     420    17.167051        5 4.9808787e-16            2            1            2 1.3124178e-16 
     425    17.373638        5 4.9930289e-16            2            1            2 1.3117612e-16 
     430    17.580068        5 5.0052241e-16            2            1            2 1.311105e-16 
     435    17.787204        5 5.0174646e-16            2            1            2 1.310449e-16 
     440    17.994524        5 5.0297504e-16            2            1            2 1.3097934e-16 
     445    18.195294        5 5.0420818e-16            2            1            2 1.3091381e-16 
     450    18.410318        5 5.0544588e-16            2            1            2 1.3084832e-16 
     455    18.607658        5 5.0668817e-16            2            1            2 1.3078285e-16 
     460    18.790603        5 5.0793506e-16            2            1            2 1.3071742e-16 
     465    18.993012        5 5.0918657e-16            2            1            2 1.3065202e-16 
     470    19.207715        5 5.104427e-16            2            1            2 1.3058666e-16 
     475    19.423072        5 5.1170349e-16            2            1            2 1.3052133e-16 
     480    19.641161        5 5.1296894e-16            2            1            2 1.3045603e-16 
     485    19.855417        5 5.1423907e-16            2            1            2 1.3039076e-16 
     490    20.065727        5 5.155139e-16            2            1            2 1.3032552e-16 
     495    20.262916        5 5.1679344e-16            2            1            2 1.3026032e-16 
     500    20.474397        5 5.1807771e-16            2            1            2 1.3019515e-16 
     505    20.704629        5 5.1936672e-16            2            1            2 1.3013002e-16 
     510    20.941775        5 5.206605e-16            2            1            2 1.3006491e-16 
     515    21.200207        5 5.2195906e-16            2            1            2 1.2999984e-16 
     520    21.435462        5 5.2326241e-16            2            1            2 1.299348e-16 
     525    21.657019        5 5.2457058e-16            2            1            2 1.298698e-16 
     530    21.887113        5 5.2588357e-16            2            1            2 1.2980482e-16 
     535     22.11286        5 5.2720141e-16            2            1            2 1.2973988e-16 
     540    22.343911        5 5.2852411e-16            2            1            2 1.2967497e-16 
     545    22.592334        5 5.2985169e-16            2            1            2 1.296101e-16 
     550    22.837291        5 5.3118416e-16            2            1            2 1.2954525e-16 
     555    23.070634        5 5.3252155e-16            2            1            2 1.2948044e-16 
     560      23.2826        5 5.3386387e-16            2            1            2 1.2941566e-16 
     565    23.512163        5 5.3521114e-16            2            1            2 1.2935091e-16 
     570     23.75474        5 5.3656337e-16            2            1            2 1.292862e-16 
     575    23.980538        5 5.3792058e-16            2            1            2 1.2922152e-16 
     580    24.182744        5 5.3928279e-16            2            1            2 1.2915687e-16 
     585    24.402711        5 5.4065001e-16            2            1            2 1.2909225e-16 
     590    24.616106        5 5.4202227e-16            2            1            2 1.2902767e-16 
     595    24.855386        5 5.4339958e-16            2            1            2 1.2896311e-16 
     600    25.089448        5 5.4478196e-16            2            1            2 1.2889859e-16 
     605    25.318667        5 5.4616943e-16            2            1            2 1.2883411e-16 
     610    25.536152        5  5.47562e-16            2            1            2 1.2876965e-16 
     615     25.73125        5 5.4895969e-16            2            1            2 1.2870523e-16 
     620    25.944921        5 5.5036252e-16            2            1            2 1.2864084e-16 
     625    26.141015        5 5.517705e-16            2            1            2 1.2857648e-16 
     630    26.353182        5 5.5318366e-16            2            1            2 1.2851215e-16 
     635    26.566372        5 5.5460202e-16            2            1            2 1.2844786e-16 
     640     26.77623        5 5.5602558e-16            2            1            2 1.2838359e-16 
     645    26.978448        5 5.5745438e-16            2            1            2 1.2831936e-16 
     650    27.193823        5 5.5888842e-16            2            1            2 1.2825517e-16 
     655    27.404274        5 5.6032772e-16            2            1            2  1.28191e-16 
     660    27.623027        5 5.6177231e-16            2            1            2 1.2812687e-16 
     665    27.839693        5 5.6322221e-16            2            1            2 1.2806276e-16 
     670    28.055582        5 5.6467742e-16            2            1            2 1.2799869e-16 
     675    28.285169        5 5.6613797e-16            2            1            2 1.2793466e-16 
     680    28.494748        5 5.6760388e-16            2            1            2 1.2787065e-16 
     685    28.710876        5 5.6907516e-16            2            1            2 1.2780668e-16 
     690    28.895106        5 5.7055184e-16            2            1            2 1.2774274e-16 
     695    29.087524        5 5.7203393e-16            2            1            2 1.2767883e-16 
     700    29.284332        5 5.7352145e-16            2            1            2 1.2761495e-16 
     705    29.474662        5 5.7501443e-16            2            1            2 1.275511e-16 
     710    29.662381        5 5.7651287e-16            2            1            2 1.2748729e-16 
     715    29.876236        5 5.7801681e-16            2            1            2 1.2742351e-16 
     720    30.109191        5 5.7952625e-16            2            1            2 1.2735976e-16 
     725    30.341858        5 5.8104121e-16            2            1            2 1.2729604e-16 
     730    30.587302        5 5.8256173e-16            2            1            2 1.2723235e-16 
     735    30.812014        5 5.8408781e-16            2            1            2 1.271687e-16 
     740    31.054852        5 5.8561947e-16            2            1            2 1.2710508e-16 
     745    31.275021        5 5.8715674e-16            2            1            2 1.2704149e-16 
     750    31.546216        5 5.8869963e-16            2            1            2 1.2697793e-16 
     755    31.760511        5 5.9024817e-16            2            1            2 1.269144e-16 
     760    31.999247        5 5.9180237e-16            2            1            2 1.2685091e-16 
     765     32.23266        5 5.9336225e-16            2            1            2 1.2678744e-16 
     770    32.454831        5 5.9492783e-16            2            1            2 1.2672401e-16 
     775     32.68879        5 5.9649913e-16            2            1            2 1.2666061e-16 
     780    32.904051        5 5.9807618e-16            2            1            2 1.2659725e-16 
     785    33.123135        5 5.9965899e-16            2            1            2 1.2653391e-16 
     790    33.343542        5 6.0124758e-16            2            1            2 1.264706e-16 
     795    33.568203        5 6.0284197e-16            2            1            2 1.2640733e-16 
     800    33.801581        5 6.0444218e-16            2            1            2 1.2634409e-16 
     805    34.018734        5 6.0604824e-16            2            1            2 1.2628088e-16 
     810    34.276217        5 6.0766016e-16            2            1            2 1.262177e-16 
     815    34.510797        5 6.0927796e-16            2            1            2 1.2615456e-16 
     820    34.738494        5 6.1090166e-16            2            1            2 1.2609144e-16 
     825    34.953589        5 6.1253129e-16            2            1            2 1.2602836e-16 
     830    35.168901        5 6.1416686e-16            2            1            2 1.2596531e-16 
     835    35.390951        5 6.158084e-16            2            1            2 1.2590229e-16 
     840    35.592984        5 6.1745592e-16            2            1            2 1.258393e-16 
     845    35.772682        5 6.1910945e-16            2            1            2 1.2577634e-16 
     850    35.954246        5 6.2076901e-16            2            1            2 1.2571342e-16 
     855    36.131316        5 6.2243461e-16            2            1            2 1.2565052e-16 
     860    36.339489        5 6.2410628e-16            2            1            2 1.2558766e-16 
     865    36.554595        5 6.2578405e-16            2            1            2 1.2552483e-16 
     870    36.775952        5 6.2746793e-16            2            1            2 1.2546203e-16 
     875    36.988871        5 6.2915793e-16            2            1            2 1.2539926e-16 
     880    37.203101        5 6.308541e-16            2            1            2 1.2533653e-16 
     885     37.44662        5 6.3255644e-16            2            1            2 1.2527382e-16 
     890    37.666362        5 6.3426497e-16            2            1            2 1.2521115e-16 
     895    37.891509        5 6.3597972e-16            2            1            2 1.2514851e-16 
     900    38.113794        5 6.3770072e-16            2            1            2 1.250859e-16 
     905    38.330578        5 6.3942797e-16            2            1            2 1.2502332e-16 
     910    38.549605        5 6.4116151e-16            2            1            2 1.2496077e-16 
     915    38.763238        5 6.4290136e-16            2            1            2 1.2489825e-16 
     920     38.98741        5 6.4464753e-16            2            1            2 1.2483576e-16 
     925     39.19703        5 6.4640005e-16            2            1            2 1.2477331e-16 
     930    39.415146        5 6.4815894e-16            2            1            2 1.2471089e-16 
     935    39.636812        5 6.4992423e-16            2            1            2 1.246485e-16 
     940    39.862744        5 6.5169593e-16            2            1            2 1.2458614e-16 
     945    40.079054        5 6.5347407e-16            2            1            2 1.2452381e-16 
     950    40.296751        5 6.5525867e-16            2            1            2 1.2446151e-16 
     955    40.514525        6 6.5704975e-16            2            1            3 1.2439924e-16 
     960     40.73718        6 6.5884734e-16            2            1            3 1.2433701e-16 
     965    40.964484        6 6.6065146e-16            2            1            3 1.242748e-16 
     970    41.213686        6 6.6246212e-16            2            1            3 1.2421263e-16 
     975    41.433711        6 6.6427936e-16            2            1            3 1.2415049e-16 
     980    41.645878        6 6.661032e-16            2            1            3 1.2408838e-16 
     985    41.869051        6 6.6793365e-16            2            1            3 1.240263e-16 
     990    42.109739        7 6.6977075e-16            3            1            3 1.2396425e-16 
     995    42.315102        7 6.7161451e-16            3            1            3 1.2390223e-16 
    1000    42.546151        7 6.7346496e-16            3            1            3 1.2384024e-16 
    1005    42.744406        7 6.7532213e-16            3            1            3 1.2377829e-16 
    1010    42.936242        7 6.7718602e-16            3            1            3 1.2371636e-16 
    1015    43.142668        7 6.7905668e-16            3            1            3 1.2365447e-16 
    1020    43.357243        7 6.8093412e-16            3            1            3 1.2359261e-16 
    1025    43.572233        7 6.8281836e-16            3            1            3 1.2353078e-16 
    1030    43.793298        7 6.8470944e-16            3            1            3 1.2346898e-16 
    1035    44.012449        7 6.8660736e-16            3            1            3 1.2340721e-16 
    1040    44.229006        7 6.8851216e-16            3            1            3 1.2334547e-16 
    1045    44.448711        7 6.9042387e-16            3            1            3 1.2328376e-16 
    1050    44.682891        7 6.923425e-16            3            1            3 1.2322209e-16 
    1055    44.928869        7 6.9426807e-16            3            1            3 1.2316044e-16 
    1060      45.1619        7 6.9620062e-16            3            1            3 1.2309883e-16 
    1065    45.425868        7 6.9814017e-16            3            1            3 1.2303724e-16 
    1070    45.652375        7 7.0008674e-16            3            1            3 1.2297569e-16 
    1075    45.907518        7 7.0204035e-16            3            1            3 1.2291417e-16 
    1080    46.181489        7 7.0400104e-16            3            1            3 1.2285268e-16 
    1085    46.418905        7 7.0596882e-16            3            1            3 1.2279122e-16 
    1090    46.685689        7 7.0794372e-16            3            1            3 1.2272979e-16 
    1095    46.922666        7 7.0992576e-16            3            1            3 1.2266839e-16 
    1100    47.176885        7 7.1191497e-16            3            1            3 1.2260702e-16 
    1105    47.423242        7 7.1391138e-16            3            1            3 1.2254569e-16 
    1110    47.680214        7 7.1591501e-16            3            1            3 1.2248438e-16 
    1115     47.98634        7 7.1792588e-16            3            1            3 1.2242311e-16 
    1120    48.215047        7 7.1994402e-16            3            1            3 1.2236186e-16 
    1125    48.428843        7 7.2196945e-16            3            1            3 1.2230065e-16 
    1130     48.60457        7 7.2400221e-16            3            1            3 1.2223947e-16 
    1135    48.791239        7 7.2604231e-16            3            1            3 1.2217832e-16 
    1140    49.007142        7 7.2808978e-16            3            1            3 1.2211719e-16 
    1145    49.218641        7 7.3014465e-16            3            1            3 1.220561e-16 
    1150     49.43391        7 7.3220694e-16            3            1            3 1.2199504e-16 
    1155    49.697123        7 7.3427669e-16            3            1            3 1.2193402e-16 
    1160    49.938248        7 7.363539e-16            3            1            3 1.2187302e-16 
    1165    50.142541        7 7.3843862e-16            3            1            3 1.2181205e-16 
    1170    50.340636        7 7.4053086e-16            3            1            3 1.2175111e-16 
    1175    50.518432        7 7.4263065e-16            3            1            3 1.2169021e-16 
    1180    50.722531        7 7.4473802e-16            3            1            3 1.2162933e-16 
    1185    50.919726        7  7.46853e-16            3            1            3 1.2156849e-16 
    1190    51.143585        7 7.4897561e-16            3            1            3 1.2150767e-16 
    1195    51.374702        7 7.5110588e-16            3            1            3 1.2144689e-16 
    1200    51.598073        7 7.5324384e-16            3            1            3 1.2138614e-16 
    1205    51.794893        7 7.553895e-16            3            1            3 1.2132541e-16 
    1210     52.02614        7 7.575429e-16            3            1            3 1.2126472e-16 
    1215    52.263998        7 7.5970407e-16            3            1            3 1.2120406e-16 
    1220    52.456258        7 7.6187304e-16            3            1            3 1.2114343e-16 
    1225    52.654463        7 7.6404982e-16            3            1            3 1.2108283e-16 
    1230    52.855718        7 7.6623444e-16            3            1            3 1.2102226e-16 
    1235    53.062211        7 7.6842695e-16            3            1            3 1.2096172e-16 
    1240    53.284595        7 7.7062735e-16            3            1            3 1.2090121e-16 
    1245    53.503346        7 7.7283568e-16            3            1            3 1.2084073e-16 
    1250    53.716027        7 7.7505197e-16            3            1            3 1.2078029e-16 
    1255    53.944385        7 7.7727625e-16            3            1            3 1.2071987e-16 
    1260    54.174473        7 7.7950853e-16            3            1            3 1.2065948e-16 
    1265    54.393036        7 7.8174886e-16            3            1            3 1.2059913e-16 
    1270    54.607338        7 7.8399725e-16            3            1            3 1.205388e-16 
    1275    54.822998        8 7.8625374e-16            4            1            3 1.2047851e-16 
    1280    55.042998        8 7.8851836e-16            4            1            3 1.2041824e-16 
    1285    55.262981        8 7.9079112e-16            4            1            3 1.2035801e-16 
    1290    55.460957        8 7.9307207e-16            4            1            3 1.202978e-16 
    1295    55.656836        8 7.9536123e-16            4            1            3 1.2023763e-16 
    1300    55.853721        8 7.9765862e-16            4            1            3 1.2017749e-16 
    1305    56.046273        8 7.9996428e-16            4            1            3 1.2011738e-16 
    1310    56.232049        8 8.0227824e-16            4            1            3 1.200573e-16 
    1315    56.452079        8 8.0460052e-16            4            1            3 1.1999724e-16 
    1320    56.680504        8 8.0693116e-16            4            1            3 1.1993722e-16 
    1325    56.912507        8 8.0927018e-16            4            1            3 1.1987723e-16 
    1330     57.14113        8 8.116176e-16            4            1            3 1.1981727e-16 
    1335    57.372822        8 8.1397347e-16            4            1            3 1.1975734e-16 
    1340    57.608298        8 8.1633781e-16            4            1            3 1.1969744e-16 
    1345    57.839526        8 8.1871065e-16            4            1            3 1.1963757e-16 
    1350    58.080681        8 8.2109202e-16            4            1            3 1.1957774e-16 
    1355    58.310009        8 8.2348195e-16            4            1            3 1.1951793e-16 
    1360    58.538785        8 8.2588047e-16            4            1            3 1.1945815e-16 
    1365     58.80118        8 8.282876e-16            4            1            3 1.193984e-16 
    1370    59.063686        8 8.3070339e-16            4            1            3 1.1933869e-16 
    1375    59.330192        8 8.3312785e-16            4            1            3  1.19279e-16 
    1380    59.573406        8 8.3556102e-16            4            1            3 1.1921934e-16 
    1385    59.796135        8 8.3800293e-16            4            1            3 1.1915972e-16 
    1390    60.021416        8 8.4045361e-16            4            1            3 1.1910012e-16 
    1395    60.255747        8 8.4291309e-16            4            1            3 1.1904056e-16 
    1400    60.480391        8 8.4538141e-16            4            1            3 1.1898102e-16 
    1405    60.705049        8 8.4785858e-16            4            1            3 1.1892152e-16 
    1410     60.93577        8 8.5034465e-16            4            1            3 1.1886204e-16 
    1415    61.172028        8 8.5283964e-16            4            1            3 1.188026e-16 
    1420    61.402202        8 8.5534359e-16            4            1            3 1.1874318e-16 
    1425    61.634515        8 8.5785652e-16            4            1            3 1.186838e-16 
    1430    61.865479        9 8.6037847e-16            4            1            4 1.1862445e-16 
    1435    62.102328        9 8.6290946e-16            4            1            4 1.1856513e-16 
    1440    62.332887        9 8.6544954e-16            4            1            4 1.1850583e-16 
    1445    62.546711        9 8.6799873e-16            4            1            4 1.1844657e-16 
    1450    62.785265        9 8.7055706e-16            4            1            4 1.1838734e-16 
    1455    63.023654        9 8.7312457e-16            4            1            4 1.1832814e-16 
    1460    63.252157        9 8.7570129e-16            4            1            4 1.1826897e-16 
    1465    63.480065        9 8.7828724e-16            4            1            4 1.1820983e-16 
    1470    63.723682        9 8.8088247e-16            4            1            4 1.1815072e-16 
    1475    63.968544        9  8.83487e-16            4            1            4 1.1809164e-16 
    1480    64.233356        9 8.8610087e-16            4            1            4 1.1803259e-16 
    1485     64.48005        9 8.887241e-16            4            1            4 1.1797357e-16 
    1490    64.707726        9 8.9135674e-16            4            1            4 1.1791458e-16 
    1495    64.945377        9 8.9399881e-16            4            1            4 1.1785562e-16 
    1500    65.180878        9 8.9665035e-16            4            1            4 1.1779669e-16 
    1505    65.408038        9 8.9931139e-16            4            1            4 1.177378e-16 
    1510    65.621841        9 9.0198196e-16            4            1            4 1.1767893e-16 
    1515    65.848247        9 9.046621e-16            4            1            4 1.1762009e-16 
    1520    66.078222        9 9.0735184e-16            4            1            4 1.1756129e-16 
    1525     66.34701        9 9.1005121e-16            4            1            4 1.1750251e-16 
    1530      66.5845        9 9.1276025e-16            4            1            4 1.1744376e-16 
    1535    66.827754        9 9.1547899e-16            4            1            4 1.1738505e-16 
    1540    67.066103        9 9.1820746e-16            4            1            4 1.1732636e-16 
    1545    67.303042        9 9.209457e-16            4            1            4 1.1726771e-16 
    1550    67.548069        9 9.2369374e-16            4            1            4 1.1720909e-16 
    1555    67.778553        9 9.2645162e-16            4            1            4 1.1715049e-16 
    1560    68.017963        9 9.2921938e-16            4            1            4 1.1709193e-16 
    1565    68.267218        9 9.3199703e-16            4            1            4 1.170334e-16 
    1570    68.494073        9 9.3478463e-16            4            1            4 1.1697489e-16 
    1575     68.72467        9 9.375822e-16            4            1            4 1.1691642e-16 
    1580    68.926979        9 9.4038978e-16            4            1            4 1.1685798e-16 
    1585    69.160082        9 9.432074e-16            4            1            4 1.1679957e-16 
    1590    69.348747        9 9.460351e-16            4            1            4 1.1674119e-16 
    1595    69.536702        9 9.4887292e-16            4            1            4 1.1668284e-16 
    1600    69.716866        9 9.5172088e-16            4            1            4 1.1662452e-16 
    1605    69.905451        9 9.5457903e-16            4            1            4 1.1656623e-16 
    1610    70.106673        9 9.574474e-16            4            1            4 1.1650797e-16 
    1615    70.367034        9 9.6032603e-16            4            1            4 1.1644975e-16 
    1620    70.611699        9 9.6321494e-16            4            1            4 1.1639155e-16 
    1625    70.854073        9 9.6611419e-16            4            1            4 1.1633338e-16 
    1630    71.080426        9 9.690238e-16            4            1            4 1.1627525e-16 
    1635    71.341139        9 9.7194381e-16            4            1            4 1.1621714e-16 
    1640    71.588066        9 9.7487425e-16            4            1            4 1.1615907e-16 
    1645    71.839715        9 9.7781517e-16            4            1            4 1.1610102e-16 
    1650    72.087539        9 9.8076659e-16            4            1            4 1.1604301e-16 
    1655    72.384454        9 9.8372856e-16            4            1            4 1.1598503e-16 
    1660    72.634002        9 9.8670112e-16            4            1            4 1.1592708e-16 
    1665    72.905776        9 9.8968429e-16            4            1            4 1.1586916e-16 
    1670    73.147778        9 9.9267812e-16            4            1            4 1.1581127e-16 
    1675    73.367842        9 9.9568264e-16            4            1            4 1.1575341e-16 
    1680    73.597731        9 9.9869789e-16            4            1            4 1.1569558e-16 
    1685    73.843497        9 1.0017239e-15            4            1            4 1.1563778e-16 
    1690    74.097839        9 1.0047607e-15            4            1            4 1.1558001e-16 
    1695    74.352991        9 1.0078084e-15            4            1            4 1.1552228e-16 
    1700    74.594637        9 1.010867e-15            4            1            4 1.1546457e-16 
    1705    74.833666        9 1.0139364e-15            4            1            4 1.154069e-16 
    1710    75.078554        9 1.0170169e-15            4            1            4 1.1534926e-16 
    1715    75.324804        9 1.0201083e-15            4            1            4 1.1529164e-16 
    1720    75.539181        9 1.0232107e-15            4            1            4 1.1523406e-16 
    1725    75.776508        9 1.0263243e-15            4            1            4 1.1517651e-16 
    1730    76.018627        9 1.0294489e-15            4            1            4 1.1511899e-16 
    1735    76.262745        9 1.0325847e-15            4            1            4 1.150615e-16 
    1740     76.47985        9 1.0357317e-15            4            1            4 1.1500405e-16 
    1745    76.672485        9 1.0388899e-15            4            1            4 1.1494662e-16 
    1750    76.866853        9 1.0420593e-15            4            1            4 1.1488923e-16 
    1755    77.073847        9 1.0452401e-15            4            1            4 1.1483187e-16 
    1760    77.274395        9 1.0484322e-15            4            1            4 1.1477453e-16 
    1765    77.536161        9 1.0516357e-15            4            1            4 1.1471723e-16 
    1770    77.788428        9 1.0548507e-15            4            1            4 1.1465996e-16 
    1775    78.032046        9 1.0580771e-15            4            1            4 1.1460273e-16 
    1780    78.258362        9 1.061315e-15            4            1            4 1.1454552e-16 
    1785    78.516093        9 1.0645644e-15            4            1            4 1.1448834e-16 
    1790    78.783685        9 1.0678254e-15            4            1            4 1.144312e-16 
    1795    79.054936        9 1.0710981e-15            4            1            4 1.1437409e-16 
    1800    79.311407        9 1.0743824e-15            4            1            4 1.1431701e-16 
    1805    79.524542        9 1.0776785e-15            4            1            4 1.1425996e-16 
    1810    79.771244        9 1.0809862e-15            4            1            4 1.1420294e-16 
    1815    80.028554        9 1.0843058e-15            4            1            4 1.1414596e-16 
    1820     80.28491        9 1.0876372e-15            4            1            4  1.14089e-16 
    1825    80.519834        9 1.0909805e-15            4            1            4 1.1403208e-16 
    1830    80.769112        9 1.0943356e-15            4            1            4 1.1397519e-16 
    1835    81.005168       10 1.0977028e-15            4            1            5 1.1391833e-16 
    1840    81.228237       10 1.1010819e-15            4            1            5 1.1386151e-16 
    1845    81.489333       10 1.1044731e-15            4            1            5 1.1380471e-16 
    1850    81.741401       10 1.1078763e-15            4            1            5 1.1374795e-16 
    1855    81.991074       10 1.1112917e-15            4            1            5 1.1369122e-16 
    1860    82.242586       10 1.1147192e-15            4            1            5 1.1363453e-16 
    1865    82.487575       10 1.1181589e-15            4            1            5 1.1357786e-16 
    1870    82.744849       10 1.1216109e-15            4            1            5 1.1352123e-16 
    1875    83.015284       10 1.1250752e-15            4            1            5 1.1346463e-16 
    1880    83.270385       10 1.1285518e-15            4            1            5 1.1340806e-16 
    1885    83.522943       10 1.1320408e-15            4            1            5 1.1335152e-16 
    1890    83.772244       10 1.1355422e-15            4            1            5 1.1329502e-16 
    1895    84.023905       10 1.1390561e-15            4            1            5 1.1323855e-16 
    1900     84.27853       10 1.1425825e-15            4            1            5 1.1318211e-16 
    1905    84.543852       11 1.1461214e-15            5            1            5 1.131257e-16 
    1910    84.805502       11 1.149673e-15            5            1            5 1.1306933e-16 
    1915    85.068716       11 1.1532371e-15            5            1            5 1.1301299e-16 
    1920     85.31163       11 1.156814e-15            5            1            5 1.1295669e-16 
    1925    85.507835       11 1.1604036e-15            5            1            5 1.1290041e-16 
    1930     85.72531       11 1.1640059e-15            5            1            5 1.1284417e-16 
    1935    85.976105       11 1.1676211e-15            5            1            5 1.1278796e-16 
    1940    86.232991       11 1.1712491e-15            5            1            5 1.1273179e-16 
    1945    86.485979       11 1.1748901e-15            5            1            5 1.1267565e-16 
    1950    86.743233       11 1.178544e-15            5            1            5 1.1261954e-16 
    1955     87.02306       11 1.1822109e-15            5            1            5 1.1256347e-16 
    1960    87.308524       11 1.1858908e-15            5            1            5 1.1250743e-16 
    1965    87.570378       11 1.1895838e-15            5            1            5 1.1245142e-16 
    1970     87.83995       11  1.19329e-15            5            1            5 1.1239545e-16 
    1975    88.101987       11 1.1970093e-15            5            1            5 1.1233951e-16 
    1980    88.362519       11 1.2007419e-15            5            1            5 1.122836e-16 
    1985    88.678115       11 1.2044877e-15            5            1            5 1.1222773e-16 
    1990    88.946642       11 1.2082469e-15            5            1            5 1.1217189e-16 
    1995    89.219789       11 1.2120194e-15            5            1            5 1.1211609e-16 
    2000    89.499949       11 1.2158053e-15            5            1            5 1.1206032e-16 
    2005    89.759062       11 1.2196047e-15            5            1            5 1.1200459e-16 
    2010    90.025906       11 1.2234176e-15            5            1            5 1.1194889e-16 
    2015    90.293047       11 1.227244e-15            5            1            5 1.1189322e-16 
    2020    90.557537       12 1.2310841e-15            6            1            5 1.1183759e-16 
    2025    90.832534       12 1.2349378e-15            6            1            5  1.11782e-16 
    2030    91.094018       12 1.2388051e-15            6            1            5 1.1172644e-16 
    2035    91.344344       12 1.2426863e-15            6            1            5 1.1167091e-16 
    2040    91.555675       12 1.2465812e-15            6            1            5 1.1161542e-16 
    2045    91.790618       12  1.25049e-15            6            1            5 1.1155997e-16 
    2050    92.041902       13 1.2544126e-15            7            1            5 1.1150455e-16 
    2055    92.304507       13 1.2583492e-15            7            1            5 1.1144916e-16 
    2060    92.563589       13 1.2622997e-15            7            1            5 1.1139381e-16 
    2065    92.834268       13 1.2662644e-15            7            1            5 1.113385e-16 
    2070    93.097877       13 1.270243e-15            7            1            5 1.1128322e-16 
    2075    93.361421       13 1.2742359e-15            7            1            5 1.1122798e-16 
    2080    93.635317       13 1.2782428e-15            7            1            5 1.1117278e-16 
    2085    93.901797       13 1.2822641e-15            7            1            5 1.1111761e-16 
    2090    94.148996       13 1.2862996e-15            7            1            5 1.1106248e-16 
    2095    94.412778       13 1.2903494e-15            7            1            5 1.1100738e-16 
    2100    94.684924       13 1.2944136e-15            7            1            5 1.1095232e-16 
    2105    94.947094       13 1.2984923e-15            7            1            5 1.108973e-16 
    2110    95.168351       13 1.3025854e-15            7            1            5 1.1084231e-16 
    2115     95.42094       13 1.3066931e-15            7            1            5 1.1078737e-16 
    2120    95.683349       13 1.3108153e-15            7            1            5 1.1073245e-16 
    2125    95.975096       13 1.3149522e-15            7            1            5 1.1067758e-16 
    2130    96.237668       14 1.3191038e-15            7            1            6 1.1062275e-16 
    2135    96.498653       14 1.3232701e-15            7            1            6 1.1056795e-16 
    2140     96.79577       14 1.3274512e-15            7            1            6 1.1051319e-16 
    2145     97.08993       14 1.3316471e-15            7            1            6 1.1045847e-16 
    2150    97.344427       14 1.3358579e-15            7            1            6 1.1040378e-16 
    2155    97.659406       14 1.3400837e-15            7            1            6 1.1034914e-16 
    2160    97.933509       14 1.3443245e-15            7            1            6 1.1029453e-16 
    2165    98.201507       14 1.3485803e-15            7            1            6 1.1023996e-16 
    2170    98.472777       14 1.3528512e-15            7            1            6 1.1018543e-16 
    2175    98.768421       14 1.3571373e-15            7            1            6 1.1013094e-16 
    2180    99.048032       14 1.3614386e-15            7            1            6 1.1007649e-16 
    2185    99.322539       14 1.3657551e-15            7            1            6 1.1002208e-16 
    2190     99.57912       14 1.3700869e-15            7            1            6 1.0996771e-16 
    2195    99.840125       14 1.3744342e-15            7            1            6 1.0991338e-16 
    2200    100.10822       14 1.3787968e-15            7            1            6 1.0985908e-16 
    2205    100.37415       14 1.3831749e-15            7            1            6 1.0980483e-16 
    2210    100.61826       15 1.3875685e-15            7            1            7 1.0975062e-16 
    2215    100.87002       15 1.3919778e-15            7            1            7 1.0969645e-16 
    2220    101.13593       15 1.3964026e-15            7            1            7 1.0964232e-16 
    2225    101.40056       15 1.4008432e-15            7            1            7 1.0958823e-16 
    2230    101.65985       15 1.4052995e-15            7            1            7 1.0953419e-16 
    2235    101.92147       15 1.4097716e-15            7            1            7 1.0948018e-16 
    2240    102.16885       15 1.4142596e-15            7            1            7 1.0942622e-16 
    2245    102.39169       15 1.4187634e-15            7            1            7 1.093723e-16 
    2250    102.61421       15 1.4232833e-15            7            1            7 1.0931842e-16 
    2255    102.86799       15 1.4278192e-15            7            1            7 1.0926458e-16 
    2260    103.13359       15 1.4323711e-15            7            1            7 1.0921079e-16 
    2265    103.39305       15 1.4369392e-15            7            1            7 1.0915704e-16 
    2270    103.63909       15 1.4415235e-15            7            1            7 1.0910333e-16 
    2275    103.89259       15 1.446124e-15            7            1            7 1.0904967e-16 
    2280      104.148       15 1.4507409e-15            7            1            7 1.0899605e-16 
    2285    104.40761       15 1.4553741e-15            7            1            7 1.0894247e-16 
    2290    104.67024       15 1.4600237e-15            7            1            7 1.0888894e-16 
    2295    104.92111       15 1.4646899e-15            7            1            7 1.0883545e-16 
    2300    105.17309       15 1.4693725e-15            7            1            7 1.0878201e-16 
    2305    105.41315       15 1.4740718e-15            7            1            7 1.0872861e-16 
    2310    105.66904       15 1.4787877e-15            7            1            7 1.0867526e-16 
    2315    105.92945       15 1.4835203e-15            7            1            7 1.0862195e-16 
    2320    106.15557       15 1.4882697e-15            7            1            7 1.0856869e-16 
    2325    106.41109       15 1.4930359e-15            7            1            7 1.0851548e-16 
    2330     106.6298       15 1.497819e-15            7            1            7 1.0846231e-16 
    2335    106.85378       15 1.502619e-15            7            1            7 1.0840919e-16 
    2340    107.08003       15 1.5074361e-15            7            1            7 1.0835612e-16 
    2345    107.29051       15 1.5122702e-15            7            1            7 1.0830309e-16 
    2350    107.51777       15 1.5171215e-15            7            1            7 1.0825011e-16 
    2355    107.78684       15 1.5219899e-15            7            1            7 1.0819718e-16 
    2360    108.05387       15 1.5268756e-15            7            1            7 1.081443e-16 
    2365     108.3305       15 1.5317786e-15            7            1            7 1.0809147e-16 
    2370    108.61008       15 1.5366989e-15            7            1            7 1.0803869e-16 
    2375    108.88517       15 1.5416367e-15            7            1            7 1.0798595e-16 
    2380    109.15779       15 1.546592e-15            7            1            7 1.0793327e-16 
    2385     109.4339       15 1.5515648e-15            7            1            7 1.0788064e-16 
    2390     109.7335       15 1.5565553e-15            7            1            7 1.0782805e-16 
    2395    110.02525       15 1.5615634e-15            7            1            7 1.0777552e-16 
    2400    110.32274       15 1.5665892e-15            7            1            7 1.0772304e-16 
    2405    110.62442       15 1.5716329e-15            7            1            7 1.0767061e-16 
    2410    110.91389       15 1.5766944e-15            7            1            7 1.0761824e-16 
    2415    111.19749       15 1.5817738e-15            7            1            7 1.0756591e-16 
    2420     111.4912       15 1.5868713e-15            7            1            7 1.0751364e-16 
    2425    111.77687       15 1.5919867e-15            7            1            7 1.0746142e-16 
    2430    112.03305       15 1.5971203e-15            7            1            7 1.0740926e-16 
    2435    112.27242       15 1.6022721e-15            7            1            7 1.0735715e-16 
    2440    112.52799       15 1.6074421e-15            7            1            7 1.073051e-16 
    2445     112.7686       15 1.6126304e-15            7            1            7 1.072531e-16 
    2450    113.04458       15 1.6178371e-15            7            1            7 1.0720115e-16 
    2455    113.32941       15 1.6230622e-15            7            1            7 1.0714927e-16 
    2460    113.61199       15 1.6283058e-15            7            1            7 1.0709744e-16 
    2465    113.90888       15 1.633568e-15            7            1            7 1.0704566e-16 
    2470    114.19008       15 1.6388488e-15            7            1            7 1.0699394e-16 
    2475    114.47391       15 1.6441482e-15            7            1            7 1.0694228e-16 
    2480     114.7501       16 1.6494665e-15            8            1            7 1.0689068e-16 
    2485    115.03637       16 1.6548036e-15            8            1            7 1.0683914e-16 
    2490    115.32652       16 1.6601595e-15            8            1            7 1.0678766e-16 
    2495    115.60418       16 1.6655345e-15            8            1            7 1.0673624e-16 
    2500    115.87062       16 1.6709284e-15            8            1            7 1.0668488e-16 
    2505    116.15865       16 1.6763415e-15            8            1            7 1.0663357e-16 
    2510    116.44895       16 1.6817737e-15            8            1            7 1.0658233e-16 
    2515    116.72158       16 1.6872251e-15            8            1            7 1.0653116e-16 
    2520    117.00788       16 1.6926958e-15            8            1            7 1.0648004e-16 
    2525    117.29719       16 1.6981859e-15            8            1            7 1.0642899e-16 
    2530    117.55268       16 1.7036954e-15            8            1            7  1.06378e-16 
    2535    117.82761       16 1.7092244e-15            8            1            7 1.0632708e-16 
    2540    118.07972       16 1.7147729e-15            8            1            7 1.0627622e-16 
    2545    118.32354       16 1.7203411e-15            8            1            7 1.0622542e-16 
    2550    118.57455       16 1.725929e-15            8            1            7 1.061747e-16 
    2555    118.79233       16 1.7315367e-15            8            1            7 1.0612403e-16 
    2560    119.07618       16 1.7371642e-15            8            1            7 1.0607344e-16 
    2565    119.33734       16 1.7428117e-15            8            1            7 1.0602291e-16 
    2570    119.60646       16 1.7484791e-15            8            1            7 1.0597246e-16 
    2575     119.9031       16 1.7541665e-15            8            1            7 1.0592207e-16 
    2580    120.15075       16 1.7598741e-15            8            1            7 1.0587175e-16 
    2585     120.4423       16 1.7656019e-15            8            1            7 1.058215e-16 
    2590    120.72385       16  1.77135e-15            8            1            7 1.0577132e-16 
    2595    120.95569       16 1.7771183e-15            8            1            7 1.0572122e-16 
    2600    121.23803       16 1.7829071e-15            8            1            7 1.0567119e-16 
    2605    121.52556       16 1.7887164e-15            8            1            7 1.0562123e-16 
    2610      121.794       16 1.7945462e-15            8            1            7 1.0557134e-16 
    2615    122.05775       16 1.8003966e-15            8            1            7 1.0552153e-16 
    2620     122.3261       16 1.8062678e-15            8            1            7 1.054718e-16 
    2625    122.55028       16 1.8121597e-15            8            1            7 1.0542214e-16 
    2630     122.7997       16 1.8180724e-15            8            1            7 1.0537256e-16 
    2635    123.08679       16 1.8240061e-15            8            1            7 1.0532305e-16 
    2640    123.36094       16 1.8299607e-15            8            1            7 1.0527363e-16 
    2645    123.58033       16 1.8359365e-15            8            1            7 1.0522428e-16 
    2650    123.83041       16 1.8419333e-15            8            1            7 1.0517502e-16 
    2655    124.09786       16 1.8479514e-15            8            1            7 1.0512583e-16 
    2660    124.37598       16 1.8539907e-15            8            1            7 1.0507673e-16 
    2665    124.65679       16 1.8600514e-15            8            1            7 1.0502771e-16 
    2670    124.94165       16 1.8661336e-15            8            1            7 1.0497877e-16 
    2675    125.18365       16 1.8722372e-15            8            1            7 1.0492992e-16 
    2680    125.47703       16 1.8783625e-15            8            1            7 1.0488115e-16 
    2685     125.7876       16 1.8845094e-15            8            1            7 1.0483247e-16 
    2690    126.08158       16 1.890678e-15            8            1            7 1.0478388e-16 
    2695    126.40126       16 1.8968685e-15            8            1            7 1.0473537e-16 
    2700    126.68174       16 1.9030808e-15            8            1            7 1.0468695e-16 
    2705    126.98228       16 1.9093152e-15            8            1            7 1.0463863e-16 
    2710    127.28674       16 1.9155716e-15            8            1            7 1.0459039e-16 
    2715    127.57903       16 1.9218501e-15            8            1            7 1.0454225e-16 
    2720    127.80617       16 1.9281508e-15            8            1            7 1.044942e-16 
    2725    128.03604       17 1.9344737e-15            8            1            8 1.0444624e-16 
    2730    128.29572       17 1.9408191e-15            8            1            8 1.0439838e-16 
    2735    128.53878       17 1.9471869e-15            8            1            8 1.0435061e-16 
    2740    128.82609       17 1.9535772e-15            8            1            8 1.0430294e-16 
    2745    129.07321       17 1.9599901e-15            8            1            8 1.0425537e-16 
    2750    129.35995       17 1.9664257e-15            8            1            8 1.042079e-16 
    2755    129.67473       17 1.972884e-15            8            1            8 1.0416053e-16 
    2760     129.9797       17 1.9793652e-15            8            1            8 1.0411326e-16 
    2765    130.28962       17 1.9858693e-15            8            1            8 1.0406609e-16 
    2770    130.61053       17 1.9923964e-15            8            1            8 1.0401902e-16 
    2775    130.90511       17 1.9989466e-15            8            1            8 1.0397206e-16 
    2780     131.2228       17 2.0055199e-15            8            1            8 1.0392521e-16 
    2785    131.55498       17 2.0121165e-15            8            1            8 1.0387846e-16 
    2790    131.86179       17 2.0187365e-15            8            1            8 1.0383183e-16 
    2795    132.16384       17 2.0253798e-15            8            1            8 1.037853e-16 
    2800    132.49085       17 2.0320466e-15            8            1            8 1.0373888e-16 
    2805    132.79649       17 2.038737e-15            8            1            8 1.0369257e-16 
    2810    133.10141       17 2.045451e-15            8            1            8 1.0364638e-16 
    2815    133.41998       17 2.0521888e-15            8            1            8 1.036003e-16 
    2820    133.73247       18 2.0589505e-15            9            1            8 1.0355434e-16 
    2825    134.04971       19 2.065736e-15            9            1            9 1.035085e-16 
    2830    134.34288       19 2.0725455e-15            9            1            9 1.0346278e-16 
    2835    134.62104       19 2.0793791e-15            9            1            9 1.0341717e-16 
    2840      134.854       19 2.0862369e-15            9            1            9 1.0337169e-16 
    2845    135.11758       19 2.0931189e-15            9            1            9 1.0332633e-16 
    2850    135.42853       19 2.1000253e-15            9            1            9 1.032811e-16 
    2855    135.73037       19 2.1069561e-15            9            1            9 1.0323599e-16 
    2860    136.03683       19 2.1139114e-15            9            1            9  1.03191e-16 
    2865    136.28467       19 2.1208913e-15            9            1            9 1.0314615e-16 
    2870    136.61164       19 2.1278959e-15            9            1            9 1.0310143e-16 
    2875    136.92907       19 2.1349252e-15            9            1            9 1.0305684e-16 
    2880    137.24772       20 2.1419794e-15            9            1           10 1.0301238e-16 
    2885    137.56168       20 2.1490586e-15            9            1           10 1.0296806e-16 
    2890    137.87039       20 2.1561627e-15            9            1           10 1.0292387e-16 
    2895    138.19982       20 2.163292e-15            9            1           10 1.0287982e-16 
    2900    138.50274       20 2.1704466e-15            9            1           10 1.0283591e-16 
    2905    138.75779       20 2.1776264e-15            9            1           10 1.0279215e-16 
    2910    138.99516       20 2.1848316e-15            9            1           10 1.0274853e-16 
    2915    139.27686       20 2.1920623e-15            9            1           10 1.0270505e-16 
    2920    139.61249       21 2.1993185e-15           10            1           10 1.0266172e-16 
    2925    139.97596       21 2.2066004e-15           10            1           10 1.0261854e-16 
    2930    140.32244       21 2.2139081e-15           10            1           10 1.0257551e-16 
    2935      140.531       22 2.2212416e-15           11            1           10 1.0253259e-16 
    2940     140.7302       22 2.2286009e-15           11            1           10 1.0248972e-16 
    2945    140.94223       22 2.2359862e-15           11            1           10 1.024469e-16 
    2950    141.13623       22 2.2433974e-15           11            1           10 1.0240413e-16 
    2955    141.32251       22 2.2508348e-15           11            1           10 1.0236141e-16 
    2960    141.52297       22 2.2582984e-15           11            1           10 1.0231874e-16 
    2965    141.69948       22 2.2657882e-15           11            1           10 1.0227612e-16 
    2970    141.91791       22 2.2733044e-15           11            1           10 1.0223355e-16 
    2975     142.1522       22 2.2808471e-15           11            1           10 1.0219103e-16 
    2980    142.36405       22 2.2884164e-15           11            1           10 1.0214856e-16 
    2985     142.5857       22 2.2960123e-15           11            1           10 1.0210614e-16 
    2990    142.80332       22 2.3036349e-15           11            1           10 1.0206378e-16 
    2995    143.01531       23 2.3112845e-15           11            1           11 1.0202146e-16 
    3000    143.21625       24 2.3189609e-15           12            1           11 1.0197919e-16 
    3005    143.42058       24 2.3266644e-15           12            1           11 1.0193697e-16 
    3010    143.65085       24 2.334395e-15           12            1           11 1.0189481e-16 
    3015    143.85989       24 2.3421528e-15           12            1           11 1.0185269e-16 
    3020    144.09064       24 2.3499379e-15           12            1           11 1.0181063e-16 
    3025    144.31972       24 2.3577504e-15           12            1           11 1.0176861e-16 
    3030    144.53554       24 2.3655905e-15           12            1           11 1.0172665e-16 
    3035    144.75124       24 2.3734581e-15           12            1           11 1.0168474e-16 
    3040    144.97599       24 2.3813535e-15           12            1           11 1.0164288e-16 
    3045    145.17267       24 2.3892766e-15           12            1           11 1.0160107e-16 
    3050     145.3688       25 2.3972276e-15           13            1           11 1.0155931e-16 
    3055    145.60599       25 2.4052067e-15           13            1           11 1.015176e-16 
    3060    145.96488       25 2.4132139e-15           13            1           11 1.0147602e-16 
    3065    146.30066       25 2.4212494e-15           13            1           11 1.0143463e-16 
    3070     146.6506       25 2.4293133e-15           13            1           11 1.0139341e-16 
    3075    146.98479       26 2.4374057e-15           14            1           11 1.0135238e-16 
    3080     147.3351       26 2.4455267e-15           14            1           11 1.0131152e-16 
    3085    147.70562       26 2.4536765e-15           14            1           11 1.0127086e-16 
    3090    148.04203       26 2.461855e-15           14            1           11 1.0123038e-16 
    3095    148.38978       26 2.4700625e-15           14            1           11 1.011901e-16 
    3100    148.71873       26 2.478299e-15           14            1           11   1.0115e-16 
    3105    149.05071       26 2.4865646e-15           14            1           11 1.011101e-16 
    3110    149.31314       26 2.4948595e-15           14            1           11 1.010704e-16 
    3115    149.64923       26 2.5031837e-15           14            1           11 1.010309e-16 
    3120    149.97972       26 2.5115373e-15           14            1           11 1.009916e-16 
    3125    150.31421       26 2.5199204e-15           14            1           11 1.009525e-16 
    3130    150.62559       26 2.5283332e-15           14            1           11 1.0091361e-16 
    3135     150.9637       26 2.5367758e-15           14            1           11 1.0087493e-16 
    3140    151.26396       26 2.5452482e-15           14            1           11 1.0083647e-16 
    3145    151.59785       26 2.5537506e-15           14            1           11 1.0079821e-16 
    3150    151.92886       27 2.562283e-15           14            1           12 1.0076018e-16 
    3155     152.2247       27 2.5708456e-15           14            1           12 1.0072236e-16 
    3160      152.556       27 2.5794385e-15           14            1           12 1.0068476e-16 
    3165    152.89838       27 2.5880618e-15           14            1           12 1.0064739e-16 
    3170    153.23459       27 2.5967156e-15           14            1           12 1.0061025e-16 
    3175    153.56259       27   2.6054e-15           14            1           12 1.0057334e-16 
    3180    153.89795       27 2.6141151e-15           14            1           12 1.0053666e-16 
    3185     154.2316       27 2.6228611e-15           14            1           12 1.0050022e-16 
    3190    154.56272       27 2.631638e-15           14            1           12 1.0046401e-16 
    3195    154.86606       27 2.6404459e-15           14            1           12 1.0042805e-16 
    3200    155.14097       27 2.649285e-15           14            1           12 1.0039234e-16 
    3205    155.43366       27 2.6581553e-15           14            1           12 1.0035687e-16 
    3210    155.77521       27 2.6670571e-15           14            1           12 1.0032165e-16 
    3215    156.09999       27 2.6759903e-15           14            1           12 1.0028668e-16 
    3220     156.4266       27 2.6849551e-15           14            1           12 1.0025198e-16 
    3225    156.73388       27 2.6939516e-15           14            1           12 1.0021753e-16 
    3230    157.03283       28  2.70298e-15           15            1           12 1.0018335e-16 
    3235      157.342       28 2.7120403e-15           15            1           12 1.0014944e-16 
    3240    157.67245       28 2.7211327e-15           15            1           12 1.0011579e-16 
    3245    157.96846       28 2.7302573e-15           15            1           12 1.0008242e-16 
    3250    158.29583       28 2.7394141e-15           15            1           12 1.0004932e-16 
    3255    158.57495       28 2.7486033e-15           15            1           12 1.0001651e-16 
    3260    158.90825       28 2.7578251e-15           15            1           12 9.9983983e-17 
    3265    159.22897       28 2.7670795e-15           15            1           12 9.9951742e-17 
    3270    159.54097       28 2.7763667e-15           15            1           12 9.9919795e-17 
    3275    159.82119       28 2.7856867e-15           15            1           12 9.9888141e-17 
    3280    160.14619       28 2.7950397e-15           15            1           12 9.9856787e-17 
    3285    160.48392       28 2.8044258e-15           15            1           12 9.9825735e-17 
    3290     160.8149       28 2.8138451e-15           15            1           12 9.9794992e-17 
    3295    161.18411       28 2.8232978e-15           15            1           12 9.9764558e-17 
    3300     161.5437       28 2.8327839e-15           15            1           12 9.9734439e-17 
    3305    161.89192       28 2.8423037e-15           15            1           12 9.9704638e-17 
    3310    162.24323       30 2.8518571e-15           15            1           14 9.967516e-17 
    3315    162.54041       30 2.8614443e-15           15            1           14 9.964601e-17 
    3320    162.82222       30 2.8710655e-15           15            1           14 9.961719e-17 
    3325    163.15046       30 2.8807208e-15           15            1           14 9.9588706e-17 
    3330    163.50382       30 2.8904103e-15           15            1           14 9.9560561e-17 
    3335    163.86719       30 2.900134e-15           15            1           14 9.953276e-17 
    3340    164.22257       30 2.9098923e-15           15            1           14 9.9505307e-17 
    3345    164.53567       30 2.919685e-15           15            1           14 9.9478206e-17 
    3350    164.86284       30 2.9295125e-15           15            1           14 9.9451464e-17 
    3355    165.21917       30 2.9393747e-15           15            1           14 9.9425083e-17 
    3360    165.57671       30 2.9492719e-15           15            1           14 9.9399068e-17 
    3365    165.89245       30 2.9592042e-15           15            1           14 9.9373426e-17 
    3370    166.22872       30 2.9691716e-15           15            1           14 9.9348159e-17 
    3375    166.56402       30 2.9791743e-15           15            1           14 9.9323273e-17 
    3380    166.93001       30 2.9892125e-15           15            1           14 9.9298773e-17 
    3385      167.249       30 2.9992862e-15           15            1           14 9.9274664e-17 
    3390    167.60294       30 3.0093957e-15           15            1           14 9.9250951e-17 
    3395     167.9426       30 3.0195409e-15           15            1           14 9.922764e-17 
    3400    168.29873       30 3.0297221e-15           15            1           14 9.9204734e-17 
    3405    168.66388       30 3.0399394e-15           15            1           14 9.918224e-17 
    3410    168.97615       30 3.0501929e-15           15            1           14 9.9160163e-17 
    3415     169.2603       30 3.0604828e-15           15            1           14 9.913851e-17 
    3420    169.55912       30 3.0708091e-15           15            1           14 9.9117285e-17 
    3425    169.84056       30 3.081172e-15           15            1           14 9.9096494e-17 
    3430    170.11067       30 3.0915717e-15           15            1           14 9.9076139e-17 
    3435    170.45103       30 3.1020082e-15           15            1           14 9.9056227e-17 
    3440    170.78858       30 3.1124817e-15           15            1           14 9.9036768e-17 
    3445    171.12724       30 3.1229924e-15           15            1           14 9.9017764e-17 
    3450    171.48045       30 3.1335403e-15           15            1           14 9.8999223e-17 
    3455    171.78337       30 3.1441256e-15           15            1           14 9.8981149e-17 
    3460    172.13537       30 3.1547485e-15           15            1           14 9.8963549e-17 
    3465    172.50473       30 3.165409e-15           15            1           14 9.894643e-17 
    3470    172.83584       30 3.1761074e-15           15            1           14 9.8929797e-17 
    3475    173.17156       30 3.1868437e-15           15            1           14 9.8913658e-17 
    3480    173.52619       30 3.1976181e-15           15            1           14 9.8898018e-17 
    3485    173.87683       30 3.2084307e-15           15            1           14 9.8882883e-17 
    3490    174.22458       30 3.2192817e-15           15            1           14 9.886826e-17 
    3495    174.60234       30 3.2301711e-15           15            1           14 9.8854159e-17 
    3500    174.95573       30 3.2410992e-15           15            1           14 9.8840583e-17 
    3505    175.31843       30 3.2520661e-15           15            1           14 9.8827538e-17 
    3510    175.69865       30 3.263072e-15           15            1           14 9.8815034e-17 
    3515    176.09971       30 3.2741168e-15           15            1           14 9.8803077e-17 
    3520    176.48558       30 3.2852009e-15           15            1           14 9.8791672e-17 
    3525     176.8599       31 3.2963243e-15           15            1           15 9.8780829e-17 
    3530    177.23815       31 3.3074873e-15           15            1           15 9.8770555e-17 
    3535    177.63671       31 3.3186898e-15           15            1           15 9.8760856e-17 
    3540    177.99578       31 3.3299321e-15           15            1           15 9.8751742e-17 
    3545    178.29919       31 3.3412144e-15           15            1           15 9.8743219e-17 
    3550    178.67522       31 3.3525367e-15           15            1           15 9.8735292e-17 
    3555    179.06736       31 3.3638992e-15           15            1           15 9.8727972e-17 
    3560    179.46615       31 3.3753021e-15           15            1           15 9.8721265e-17 
    3565    179.85803       31 3.3867455e-15           15            1           15 9.8715181e-17 
    3570    180.24299       31 3.3982296e-15           15            1           15 9.8709728e-17 
    3575    180.65221       31 3.4097544e-15           15            1           15 9.8704872e-17 
    3580    180.90086       31 3.4213201e-15           15            1           15 9.8700641e-17 
    3585    181.08102       31 3.4329265e-15           15            1           15 9.8696609e-17 
    3590    181.28332       31 3.4445736e-15           15            1           15 9.8692684e-17 
    3595    181.44625       31 3.4562616e-15           15            1           15 9.8688867e-17 
    3600    181.61824       32 3.4679905e-15           15            1           16 9.8685159e-17 
    3605    181.79121       32 3.4797605e-15           15            1           16 9.8681558e-17 
    3610    182.00367       32 3.4915719e-15           15            1           16 9.8678067e-17 
    3615    182.22202       32 3.5034246e-15           15            1           16 9.8674684e-17 
    3620    182.43898       32 3.5153189e-15           15            1           16 9.867141e-17 
    3625    182.65883       32 3.5272549e-15           15            1           16 9.8668245e-17 
    3630    182.87147       33 3.5392327e-15           15            1           17 9.8665189e-17 
    3635    183.08473       33 3.5512525e-15           15            1           17 9.8662243e-17 
    3640    183.31253       33 3.5633145e-15           15            1           17 9.8659406e-17 
    3645    183.52818       33 3.5754188e-15           15            1           17 9.865668e-17 
    3650    183.76156       33 3.5875655e-15           15            1           17 9.8654063e-17 
    3655    183.96435       34 3.5997547e-15           16            1           17 9.8651556e-17 
    3660    184.23454       34 3.6119868e-15           16            1           17 9.8649186e-17 
    3665    184.62192       34 3.624262e-15           16            1           17 9.8647256e-17 
    3670    185.01351       34 3.6365807e-15           16            1           17 9.8645853e-17 
    3675    185.37347       34 3.648943e-15           16            1           17 9.864498e-17 
    3680      185.732       34 3.6613491e-15           16            1           17 9.8644646e-17 
    3685     186.0333       34 3.6737988e-15           16            1           17 9.8644644e-17 
    3690    186.37339       34 3.6862921e-15           16            1           17 9.8644644e-17 
    3695    186.73138       34 3.698829e-15           16            1           17 9.8644644e-17 
    3700    187.09049       34 3.7114098e-15           16            1           17 9.8644644e-17 
    3705     187.4905       34 3.7240346e-15           16            1           17 9.8644644e-17 
    3710    187.82531       34 3.7367035e-15           16            1           17 9.8644644e-17 
    3715    188.21072       34 3.7494166e-15           16            1           17 9.8644644e-17 
    3720    188.62853       34 3.7621743e-15           16            1           17 9.8644644e-17 
    3725    189.04343       35 3.7749765e-15           17            1           17 9.8644644e-17 
    3730    189.44929       35 3.7878234e-15           17            1           17 9.8644644e-17 
    3735    189.85387       35 3.8007153e-15           17            1           17 9.8644644e-17 
    3740    190.25359       35 3.8136525e-15           17            1           17 9.8644895e-17 
    3745     190.6431       36 3.8266347e-15           18            1           17 9.8644895e-17 
    3750    191.04725       37 3.8396622e-15           19            1           17 9.8644895e-17 
    3755    191.45771       37 3.8527356e-15           19            1           17 9.8645148e-17 
    3760    191.86951       37 3.8658543e-15           19            1           17 9.8645148e-17 
    3765    192.28145       37 3.8790192e-15           19            1           17 9.8645398e-17 
    3770    192.69693       37 3.8922302e-15           19            1           17 9.8645646e-17 
    3775    193.10468       37 3.905487e-15           19            1           17 9.8645646e-17 
    3780    193.51466       37 3.9187905e-15           19            1           17 9.8645899e-17 
    3785    193.91175       37 3.9321402e-15           19            1           17 9.8645899e-17 
    3790    194.33603       37 3.9455368e-15           19            1           17 9.8646151e-17 
    3795    194.73283       37 3.9589802e-15           19            1           17 9.8646399e-17 
    3800    195.14368       37 3.9724704e-15           19            1           17 9.8646399e-17 
    3805    195.58131       37 3.986008e-15           19            1           17 9.8646647e-17 
    3810    195.96468       37 3.9995929e-15           19            1           17 9.8646899e-17 
    3815    196.38986       38 4.0132253e-15           20            1           17 9.8647147e-17 
    3820    196.83298       38 4.0269054e-15           20            1           17 9.8647395e-17 
    3825    197.30176       39 4.040633e-15           21            1           17 9.8647395e-17 
    3830    197.75094       39 4.0544089e-15           21            1           17 9.8647646e-17 
    3835    198.13736       39 4.068233e-15           21            1           17 9.8647903e-17 
    3840    198.59092       39 4.0821053e-15           21            1           17 9.8648152e-17 
    3845    199.03826       39 4.0960262e-15           21            1           17  9.86484e-17 
    3850    199.43888       40 4.1099957e-15           22            1           17 9.8648647e-17 
    3855    199.84246       40 4.1240141e-15           22            1           17 9.8648909e-17 
    3860    200.24467       40 4.1380814e-15           22            1           17 9.8649171e-17 
    3865     200.6481       40 4.152198e-15           22            1           17 9.8649421e-17 
    3870    201.07994       40 4.1663639e-15           22            1           17 9.864968e-17 
    3875    201.51628       40 4.1805793e-15           22            1           17 9.8649931e-17 
    3880    201.95638       40 4.1948446e-15           22            1           17 9.8650442e-17 
    3885    202.40619       40 4.2091596e-15           22            1           17 9.8650692e-17 
    3890    202.82763       40 4.2235246e-15           22            1           17 9.865094e-17 
    3895    203.26401       41 4.2379398e-15           22            1           18 9.8651187e-17 
    3900    203.70508       41 4.2524057e-15           22            1           18 9.8651701e-17 
[...]
    4045    214.13119       44 4.6946537e-15           23            1           20 9.8669052e-17 
    4050    214.59735       44 4.7107163e-15           23            1           20 9.8669576e-17 
    4055    214.99734       44 4.726835e-15           23            1           20 9.8670106e-17 
    4060    215.42248       44 4.7430101e-15           23            1           20 9.867061e-17 
    4065    215.85743       44 4.759242e-15           23            1           20 9.8671394e-17 
    4070    216.30365       44 4.7755304e-15           23            1           20 9.8671933e-17 
    4075    216.77866       44 4.7918757e-15           23            1           20 9.8672437e-17 
    4080    217.25761       44 4.8082782e-15           23            1           20 9.8672993e-17 
    4085    217.74673       45 4.8247382e-15           24            1           20 9.8673757e-17 
    4090    218.22322       45 4.8412555e-15           24            1           20 9.8674253e-17 
    4095     218.6965       45 4.8578308e-15           24            1           20 9.8675007e-17 
    4100    219.16143       45 4.8744638e-15           24            1           20 9.8675518e-17 
    4105    219.62687       45 4.8911553e-15           24            1           20 9.8676298e-17 
    4110    220.08882       46 4.9079048e-15           24            1           21 9.8676833e-17 
    4115    220.54342       46 4.9247132e-15           24            1           21 9.8677629e-17 
    4120    221.01477       46  4.94158e-15           24            1           21 9.8678178e-17 
    4125    221.49158       46 4.9585062e-15           24            1           21 9.8679028e-17 
    4130    221.95688       47 4.9754912e-15           24            1           22  9.86796e-17 
    4135    222.42888       49 4.9925359e-15           24            1           24 9.8680452e-17 
    4140    224.83808       50 5.0096308e-15           25            1           24 9.8672013e-17 
    4145    225.29416       50 5.0267581e-15           25            1           24 9.8636154e-17 
    4150    225.77522       51 5.0439599e-15           26            1           24 9.8614808e-17 
    4155     226.2391       51 5.0612354e-15           26            1           24 9.8606925e-17 
    4160     226.7224       51 5.0785791e-15           26            1           24 9.8606879e-17 
    4165    227.26304       51 5.0959846e-15           26            1           24 9.8607982e-17 
    4170    227.75294       51 5.1134507e-15           26            1           24 9.8608828e-17 
    4175    228.25056       51 5.1309779e-15           26            1           24 9.8609641e-17 
    4180     228.7623       53 5.1485666e-15           28            1           24 9.8610774e-17 
    4185    229.25697       53 5.1662166e-15           28            1           24 9.8611659e-17 
    4190    229.74242       53 5.1839282e-15           28            1           24 9.8612513e-17 
    4195    230.18276       53 5.201702e-15           28            1           24 9.8613651e-17 
    4200    230.63601       53 5.219538e-15           28            1           24 9.8614758e-17 
    4205    231.13994       53 5.237436e-15           28            1           24 9.8615584e-17 
    4210    231.65342       53 5.2553969e-15           28            1           24 9.8616721e-17 
    4215    232.13342       53 5.2734205e-15           28            1           24 9.8617837e-17 
    4220    232.63715       54 5.2915072e-15           28            1           25 9.8618944e-17 
    4225    233.14476       55 5.3096568e-15           29            1           25 9.8619807e-17 
    4230    233.63433       55 5.3278702e-15           29            1           25 9.8620926e-17 
    4235    234.17943       55 5.3461472e-15           29            1           25 9.8622042e-17 
    4240    234.71869       55 5.3644881e-15           29            1           25 9.862317e-17 
    4245    235.19253       55 5.3828935e-15           29            1           25 9.8624577e-17 
    4250    235.65534       55 5.4013629e-15           29            1           25 9.862573e-17 
    4255    236.18112       55 5.4198968e-15           29            1           25 9.862681e-17 
    4260    236.67528       55 5.4384957e-15           29            1           25 9.8628158e-17 
    4265    237.17848       55 5.4571596e-15           29            1           25 9.8629416e-17 
    4270    237.66837       55 5.4758888e-15           29            1           25 9.8630683e-17 
    4275    238.20136       55 5.4946834e-15           29            1           25 9.8631967e-17 
    4280    238.71317       55 5.5135437e-15           29            1           25 9.8633267e-17 
    4285    239.20622       55 5.5324701e-15           29            1           25 9.8634585e-17 
    4290    239.71853       55 5.5514625e-15           29            1           25 9.8635921e-17 
    4295    240.26547       55 5.5705214e-15           29            1           25 9.8637274e-17 
    4300    240.77783       55 5.589647e-15           29            1           25 9.8638646e-17 
    4305    241.26805       55 5.6088394e-15           29            1           25 9.8640035e-17 
    4310    241.79022       55 5.6280989e-15           29            1           25 9.8641443e-17 
    4315    242.28786       56 5.6474258e-15           29            1           26 9.8642869e-17 
    4320    242.85489       56 5.6668203e-15           29            1           26 9.8644314e-17 
    4325    243.45061       56 5.6862826e-15           29            1           26 9.8645779e-17 
    4330    244.00152       56 5.7058129e-15           29            1           26 9.8647262e-17 
    4335    244.57378       57 5.7254115e-15           30            1           26 9.8648765e-17 
    4340    245.14614       57 5.7450787e-15           30            1           26 9.8650288e-17 
    4345    245.71011       57 5.7648147e-15           30            1           26 9.865183e-17 
    4350    246.30296       57 5.7846196e-15           30            1           26 9.8653393e-17 
    4355    246.83092       57 5.8044938e-15           30            1           26 9.8654976e-17 
    4360    247.37568       57 5.8244375e-15           30            1           26 9.865658e-17 
    4365      247.863       57 5.844451e-15           30            1           26 9.8658204e-17 
    4370    248.40163       57 5.8645344e-15           30            1           26 9.865985e-17 
    4375    248.90901       57 5.8846881e-15           30            1           26 9.8661517e-17 
    4380    249.39728       57 5.9049122e-15           30            1           26 9.8663205e-17 
    4385    249.93398       57 5.9252071e-15           30            1           26 9.8664915e-17 
    4390    250.45514       57 5.9455729e-15           30            1           26 9.8666648e-17 
    4395    250.99642       57 5.9660099e-15           30            1           26 9.8668402e-17 
    4400    251.49104       57 5.9865184e-15           30            1           26 9.8670179e-17 
    4405    251.96847       57 6.0070987e-15           30            1           26 9.8671979e-17 
    4410    252.47607       57 6.0277509e-15           30            1           26 9.8673802e-17 
    4415     253.1018       57 6.0484753e-15           30            1           26 9.8675649e-17 
    4420    253.62188       59 6.0692722e-15           31            1           27 9.8677519e-17 
    4425    254.15901       59 6.0901418e-15           31            1           27 9.8679413e-17 
    4430    254.63834       59 6.1110844e-15           31            1           27 9.868133e-17 
    4435    255.13919       59 6.1321002e-15           31            1           27 9.8683273e-17 
    4440    255.59765       59 6.1531895e-15           31            1           27 9.868524e-17 
    4445    256.13266       59 6.1743526e-15           31            1           27 9.8687232e-17 
    4450    256.74366       59 6.1955897e-15           31            1           27 9.8689249e-17 
    4455    257.36362       59 6.216901e-15           31            1           27 9.8691291e-17 
    4460    257.95964       59 6.2382869e-15           31            1           27 9.869336e-17 
    4465     258.5174       61 6.2597475e-15           32            1           28 9.8695455e-17 
    4470    259.08336       61 6.2812832e-15           32            1           28 9.8697575e-17 
    4475    259.64464       61 6.3028942e-15           32            1           28 9.8699723e-17 
    4480    260.19909       61 6.3245808e-15           32            1           28 9.8701898e-17 
    4485    260.76032       61 6.3463433e-15           32            1           28 9.8704099e-17 
    4490    261.31394       61 6.3681818e-15           32            1           28 9.8706329e-17 
    4495     261.8559       61 6.3900967e-15           32            1           28 9.8708586e-17 
    4500    262.39748       61 6.4120882e-15           32            1           28 9.8710872e-17 
    4505    263.00119       61 6.4341567e-15           32            1           28 9.8713186e-17 
    4510    263.52995       61 6.4563023e-15           32            1           28 9.8715528e-17 
    4515    264.05731       61 6.4785254e-15           32            1           28  9.87179e-17 
    4520    264.59426       61 6.5008262e-15           32            1           28 9.8720302e-17 
    4525    265.14531       61 6.5232049e-15           32            1           28 9.8722733e-17 
    4530    265.63958       61 6.545662e-15           32            1           28 9.8725194e-17 
    4535    266.15202       61 6.5681975e-15           32            1           28 9.8727686e-17 
    4540    266.70802       61 6.5908119e-15           32            1           28 9.8730208e-17 
    4545    267.23118       61 6.6135054e-15           32            1           28 9.8732762e-17 
    4550     267.7727       62 6.6362782e-15           32            1           29 9.8735347e-17 
    4555    268.37985       63 6.6591306e-15           32            1           30 9.8737969e-17 
    4560    268.81223       64 6.682063e-15           33            1           30 9.8740627e-17 
    4565    269.38287       65 6.7050756e-15           34            1           30 9.8743309e-17 
    4570    269.90114       65 6.7281686e-15           34            1           30 9.8746024e-17 
    4575    270.49621       66 6.7513425e-15           34            1           31 9.8748771e-17 
    4580    270.90877       66 6.7745973e-15           34            1           31 9.8751554e-17 
    4585    271.27044       66 6.7979335e-15           34            1           31 9.8754365e-17 
    4590    271.47448       66 6.8213513e-15           34            1           31 9.8757179e-17 
    4595    271.76019       66 6.844851e-15           34            1           31 9.8759997e-17 
    4600    272.16931       66 6.8684329e-15           34            1           31 9.876283e-17 
    4605    272.59248       66 6.8920972e-15           34            1           31 9.8765685e-17 
    4610     273.0202       66 6.9158443e-15           34            1           31 9.8768563e-17 
    4615    273.45896       67 6.9396744e-15           35            1           31 9.8771465e-17 
    4620    273.86302       67 6.9635878e-15           35            1           31 9.877439e-17 
    4625    274.22842       67 6.9875849e-15           35            1           31 9.8777339e-17 
    4630    276.31833       67 7.0116661e-15           35            1           31 9.8780565e-17 
    4635    276.89973       67 7.0358316e-15           35            1           31 9.8783979e-17 
    4640    277.33048       67 7.0600814e-15           35            1           31 9.878721e-17 
    4645    277.68952       67 7.084416e-15           35            1           31 9.8790472e-17 
    4650    277.90474       67 7.1088357e-15           35            1           31 9.8793739e-17 
    4655    278.11345       67 7.1333408e-15           35            1           31 9.8797009e-17 
    4660    278.32962       67 7.1579316e-15           35            1           31 9.8800281e-17 
    4665    278.54214       67 7.1826083e-15           35            1           31 9.8803555e-17 
    4670    278.73063       67 7.2073713e-15           35            1           31 9.8806833e-17 
    4675    278.90794       68 7.232221e-15           35            1           32 9.8810114e-17 
    4680    279.24113       69 7.2571575e-15           35            1           33  9.88134e-17 
    4685    279.59945       69 7.2821812e-15           35            1           33 9.8816711e-17 
    4690    279.91365       69 7.3072924e-15           35            1           33 9.8820045e-17 
    4695    280.56549       69 7.3324914e-15           35            1           33 9.8823402e-17 
    4700    281.15902       69 7.3577786e-15           35            1           33 9.8826803e-17 
    4705    281.77409       69 7.3831542e-15           35            1           33 9.8830248e-17 
    4710    282.37771       69 7.4086186e-15           35            1           33 9.8833738e-17 
    4715    282.95818       69 7.434172e-15           35            1           33 9.8837273e-17 
    4720    283.56887       70 7.4598148e-15           36            1           33 9.8840853e-17 
    4725    284.11104       70 7.4855473e-15           36            1           33 9.8844479e-17 
    4730    284.62439       70 7.5113697e-15           36            1           33 9.884815e-17 
    4735     285.2314       70 7.5372825e-15           36            1           33 9.8851867e-17 
    4740    285.86128       71 7.563286e-15           36            1           34 9.8855631e-17 
    4745    286.50452       71 7.5893803e-15           36            1           34 9.8859442e-17 
    4750    287.10527       71 7.6155659e-15           36            1           34  9.88633e-17 
    4755    287.72553       71 7.6418432e-15           36            1           34 9.8867205e-17 
    4760    288.24951       71 7.6682123e-15           36            1           34 9.8871158e-17 
    4765    288.82559       71 7.6946736e-15           36            1           34 9.887516e-17 
    4770    289.39054       72 7.7212275e-15           37            1           34 9.8879211e-17 
    4775    289.98901       72 7.7478743e-15           37            1           34 9.8883311e-17 
    4780    290.57361       72 7.7746142e-15           37            1           34 9.8887461e-17 
    4785    291.19827       73 7.8014477e-15           37            1           35 9.8891661e-17 
    4790    291.81781       74 7.828375e-15           38            1           35 9.8895912e-17 
    4795    292.32208       74 7.8553965e-15           38            1           35 9.8900213e-17 
    4800    292.82013       74 7.8825126e-15           38            1           35 9.8904567e-17 
    4805    293.33563       74 7.9097234e-15           38            1           35 9.8908973e-17 
    4810    293.85563       74 7.9370295e-15           38            1           35 9.8913431e-17 
    4815     294.4575       74 7.964431e-15           38            1           35 9.8917942e-17 
    4820    295.12357       74 7.9919284e-15           38            1           35 9.8922507e-17 
    4825    295.77144       74 8.0195219e-15           38            1           35 9.8927127e-17 
    4830    296.35646       75 8.047212e-15           39            1           35  9.89318e-17 
    4835    296.99524       75 8.0749989e-15           39            1           35 9.893653e-17 
    4840    297.63297       75 8.102883e-15           39            1           35 9.8941314e-17 
    4845    298.28663       75 8.1308646e-15           39            1           35 9.8946156e-17 
    4850     298.9104       75 8.1589441e-15           39            1           35 9.8951054e-17 
    4855    299.54364       75 8.1871218e-15           39            1           35 9.8956009e-17 
    4860    300.16829       75 8.2153981e-15           39            1           35 9.8961023e-17 
    4865    300.83224       75 8.2437732e-15           39            1           35 9.8966095e-17 
    4870    301.47224       75 8.2722476e-15           39            1           35 9.8971226e-17 
    4875    302.05222       75 8.3008216e-15           39            1           35 9.8976417e-17 
    4880    302.52249       77 8.3294956e-15           41            1           35 9.8981669e-17 
    4885    303.16974       78 8.3582698e-15           42            1           35 9.8986981e-17 
    4890    303.81143       78 8.3871447e-15           42            1           35 9.8992355e-17 
    4895    304.46656       78 8.4161206e-15           42            1           35 9.8997791e-17 
    4900    305.12626       79 8.4451978e-15           43            1           35 9.900329e-17 
    4905    305.78042       79 8.4743767e-15           43            1           35 9.9008853e-17 
    4910    306.42639       81 8.5036577e-15           44            1           36 9.9014479e-17 
    4915    307.06319       82 8.5330411e-15           44            1           37 9.902017e-17 
    4920    307.74395       82 8.5625273e-15           44            1           37 9.9025927e-17 
    4925    308.32985       83 8.5921166e-15           44            1           38 9.903175e-17 
    4930    308.79315       83 8.6218094e-15           44            1           38 9.9037639e-17 
    4935    309.26862       83 8.6516061e-15           44            1           38 9.9043596e-17 
    4940    309.91801       84 8.681507e-15           44            1           39 9.9049621e-17 
    4945    310.57181       84 8.7115125e-15           44            1           39 9.9055714e-17 
    4950    311.22123       84 8.7416229e-15           44            1           39 9.9061877e-17 
    4955    311.84965       84 8.7718387e-15           44            1           39 9.906811e-17 
    4960    312.41859       84 8.8021601e-15           44            1           39 9.9074414e-17 
    4965    313.03089       84 8.8325876e-15           44            1           39 9.9080789e-17 
    4970    313.64488       84 8.8631215e-15           44            1           39 9.9087237e-17 
    4975    314.23153       86 8.8937623e-15           45            1           40 9.9093757e-17 
    4980    314.91334       87 8.9245102e-15           46            1           40 9.9100351e-17 
    4985    315.51754       87 8.9553656e-15           46            1           40 9.910702e-17 
    4990    316.19144       87 8.986329e-15           46            1           40 9.9113764e-17 
    4995    316.86746       87 9.0174007e-15           46            1           40 9.9120584e-17 
    5000    317.56815       87 9.0485811e-15           46            1           40 9.9127481e-17 
Loop time of 317.568 on 1 procs for 5000 steps with 87 atoms

Performance: 48972160.275 tau/day, 15.745 timesteps/s
95.3% CPU use with 1 MPI tasks x no OpenMP threads

MPI task timing breakdown:
Section |  min time  |  avg time  |  max time  |%varavg| %total
---------------------------------------------------------------
Pair    | 0.090671   | 0.090671   | 0.090671   |   0.0 |  0.03
Neigh   | 16.698     | 16.698     | 16.698     |   0.0 |  5.26
Comm    | 0.129      | 0.129      | 0.129      |   0.0 |  0.04
Output  | 0.10106    | 0.10106    | 0.10106    |   0.0 |  0.03
Modify  | 300.51     | 300.51     | 300.51     |   0.0 | 94.63
Other   |            | 0.04344    |            |       |  0.01

Nlocal:    87 ave 87 max 87 min
Histogram: 1 0 0 0 0 0 0 0 0 0
Nghost:    0 ave 0 max 0 min
Histogram: 1 0 0 0 0 0 0 0 0 0
Neighs:    378 ave 378 max 378 min
Histogram: 1 0 0 0 0 0 0 0 0 0

Total # of neighbors = 378
Ave neighs/atom = 4.34483
Neighbor list builds = 5000
Dangerous builds = 0


Total wall time: 0:05:27
