LAMMPS (5 Nov 2016)
# NUFEB simulation

atom_style	bio
atom_modify	map array sort 1000 5.0e-7
boundary	ff ff ff
newton		off
#processors  2 1 1

comm_modify	vel yes
read_data_bio atom.in
  orthogonal box = (0 0 0) to (0.0001 0.0001 0.0001)
  1 by 1 by 1 MPI processor grid
  reading atoms ...
  3 atoms
  10 nutrients

group AOB type 1
1 atoms in group AOB
group NOB type 2
1 atoms in group NOB
group COMM type 3
1 atoms in group COMM

neighbor	5.0e-7 bin
neigh_modify	delay 0 one 5000

#pair_style none
pair_style  gran/hooke/history 0.000200 NULL 0.000050 NULL 0.0 1

pair_coeff  * *
timestep 36

fix 1 all nve/limit 1e-8

#fix	 2 all gravity 1.47 vector 0 0 -1 # spherical 90.0 -180.0
#fix     3 all fdrag
fix 10 all viscous 0.1


fix xw all wall/gran hooke/history 2000 NULL 500.0 NULL 1.5 0 xplane  0.0   1.0e-04
fix yw all wall/gran hooke/history 2000 NULL 500.0 NULL 1.5 0 yplane  0.0   1.0e-04
fix zw all wall/gran hooke/history 2000 NULL 500.0 NULL 1.5 0 zplane  0.0   1.0e-04

variable kanc equal 50

fix xwa all walladh v_kanc xplane  0.0   1.0e-04
fix ywa all walladh v_kanc yplane  0.0   1.0e-04
fix zwa all walladh v_kanc zplane  0.0   1.0e-04

##############Ibm Variable Definitions##############

#Defining EPS density and ratio variables
variable EPSdens equal 30
variable EPSratio equal 1.25

variable ke equal 5e+10

#Defining kinetics variables
variable temp equal 298.15
variable gasTran equal 0.08205746
variable gvol equal 8e-14
variable rth equal 0.0083144
variable pressure equal 1
variable ph equal 7.0

#Defining diffusion variables
variable diffT equal 1e-6
variable tol equal 2e-11

##############Ibm functions##############

fix k1 all kinetics 25 25 25 v_temp v_rth v_gvol v_gasTran v_ph
fix g1 all diffusion exp v_diffT v_tol pp pp nd
#fix ki3 all kinetics/ph 1
fix ki2 all kinetics/thermo 1 fix open v_pressure
fix ki1 all kinetics/monod 1 v_EPSdens
fix d1 all divide 1 v_EPSdens 1 31231

#fix j1 all epsadh 1 v_ke 1
#fix e1 HET eps_extract 16 v_EPSratio v_EPSdens 1242242

##############Ibm compute##############

compute myMass all biomass
compute myNtypes all ntypes

##############Simulation outputs##############

#dump		id all custom 250 snapshot.bubblemd id type diameter x y z
dump            d0 all bio 500 biomass
thermo_style    custom step cpu atoms biomass c_myNtypes[*] c_myMass[2]
thermo		5
thermo_modify	lost ignore

run  5000
Neighbor list info ...
  2 neighbor list requests
  update every 1 steps, delay 0 steps, check yes
  max neighbors/atom: 5000, page size: 100000
  master list distance cutoff = 1.466e-06
  ghost atom cutoff = 1.466e-06
  binsize = 7.33e-07 -> bins = 137 137 137
Memory usage per processor = 18.9946 Mbytes
Step CPU Atoms biomass c_myNtypes[1] c_myNtypes[2] c_myNtypes[3] c_myMass[2] 
       0            0        3 4.1062866e-16            1            1            1 1.3687622e-16 
       5    2610.3627        3 4.1160011e-16            1            1            1 1.3689212e-16 
      10    2617.6848        3 4.125448e-16            1            1            1 1.3687793e-16 
      15    2628.9191        3 4.1346809e-16            1            1            1 1.3683899e-16 
      20    2656.2074        3 4.1441588e-16            1            1            1 1.3682119e-16 
      25    2682.1922        3 4.1535329e-16            1            1            1 1.3678964e-16 
      30    2717.8781        3 4.163171e-16            1            1            1 1.367811e-16 
      35     2743.461        3 4.172653e-16            1            1            1 1.3675356e-16 
      40    2782.4862        3 4.1823916e-16            1            1            1 1.3674827e-16 
      45     2809.553        3 4.1919663e-16            1            1            1 1.3672317e-16 
      50    2847.4761        3 4.2018043e-16            1            1            1 1.3672097e-16 
      55    2872.7871        3 4.211464e-16            1            1            1 1.3669749e-16 
      60    2908.4118        3 4.2213936e-16            1            1            1 1.3669755e-16 
      65    2935.9556        3 4.2311359e-16            1            1            1 1.3667542e-16 
      70    2974.4118        3 4.2411536e-16            1            1            1 1.3667734e-16 
      75    3003.4163        3 4.2509773e-16            1            1            1 1.3665637e-16 
      80    3039.7384        3 4.2610811e-16            1            1            1 1.3665991e-16 
      85    3070.9515        3 4.2709854e-16            1            1            1 1.3663999e-16 
      90     3102.863        3 4.2811747e-16            1            1            1 1.3664503e-16 
      95    3128.8232        3 4.2911593e-16            1            1            1 1.3662607e-16 
     100    3159.6089        3 4.3014335e-16            1            1            1 1.366325e-16 
     105    3183.6815        3 4.3114985e-16            1            1            1 1.3661446e-16 
     110    3213.1823        3 4.3218576e-16            1            1            1 1.3662225e-16 
     115    3238.1546        3 4.3320031e-16            1            1            1 1.3660508e-16 
     120    3271.1143        3 4.3424471e-16            1            1            1 1.3661417e-16 
     125    3298.1328        3 4.3526733e-16            1            1            1 1.3659786e-16 
     130    3329.0705        3 4.3632024e-16            1            1            1 1.3660821e-16 
     135    3355.0261        3 4.3735097e-16            1            1            1 1.3659274e-16 
     140    3386.8406        3 4.3841241e-16            1            1            1 1.3660432e-16 
     145     3412.036        3 4.3945129e-16            1            1            1 1.3658968e-16 
     150    3445.9207        4 4.4052154e-16            2            1            1 1.3660273e-16 
     155    3473.5585        5 4.4156893e-16            2            1            2 1.3658923e-16 
     160    3503.7758        5 4.4264829e-16            2            1            2 1.3660399e-16 
     165    3529.1436        5 4.4370423e-16            2            1            2 1.3659162e-16 
     170    3557.9793        5 4.4479272e-16            2            1            2 1.3660806e-16 
     175    3583.7929        5 4.4585722e-16            2            1            2 1.3659678e-16 
     180    3614.9643        5 4.4695483e-16            2            1            2 1.3661483e-16 
     185    3642.6734        5 4.4802792e-16            2            1            2 1.3660461e-16 
     190    3678.0226        5 4.4913464e-16            2            1            2 1.3662423e-16 
     195    3705.6337        5 4.5021635e-16            2            1            2 1.3661504e-16 
     200    3740.6558        5 4.5133224e-16            2            1            2 1.3663623e-16 
     205    3764.6484        5 4.5242261e-16            2            1            2 1.3662807e-16 
     210    3797.6237        5 4.5354768e-16            2            1            2 1.3665077e-16 
     215    3822.0018        5 4.5464675e-16            2            1            2 1.3664362e-16 
     220    3852.7528        5 4.5578105e-16            2            1            2 1.3666785e-16 
     225    3879.7474        5 4.5688887e-16            2            1            2 1.3666171e-16 
     230    3909.2697        5 4.5803245e-16            2            1            2 1.3668745e-16 
     235    3935.0392        5 4.5914905e-16            2            1            2 1.3668229e-16 
     240    3967.4638        5 4.6030192e-16            2            1            2 1.367095e-16 
     245    3994.1454        5 4.6142735e-16            2            1            2 1.3670533e-16 
     250    4026.4444        5 4.6258956e-16            2            1            2  1.36734e-16 
     255     4052.426        5 4.6372387e-16            2            1            2 1.367308e-16 
     260    4080.5333        5 4.6489547e-16            2            1            2 1.3676093e-16 
     265    4103.8329        5 4.6603869e-16            2            1            2 1.3675869e-16 
     270    4128.3035        5 4.6721972e-16            2            1            2 1.3679026e-16 
     275    4149.6704        5 4.683719e-16            2            1            2 1.3678896e-16 
     280    4174.2235        5 4.6956241e-16            2            1            2 1.3682196e-16 
     285    4195.6953        5 4.7072361e-16            2            1            2 1.3682161e-16 
     290    4220.2707        5 4.7192363e-16            2            1            2 1.3685603e-16 
     295    4241.8242        5 4.7309389e-16            2            1            2 1.3685662e-16 
     300      4266.53        5 4.7430349e-16            2            1            2 1.3689246e-16 
     305    4288.1496        5 4.7548286e-16            2            1            2 1.3689398e-16 
     310     4312.686        5 4.7670207e-16            2            1            2 1.3693121e-16 
     315    4334.4974        5 4.7789061e-16            2            1            2 1.3693365e-16 
     320    4359.0693        5 4.7911948e-16            2            1            2 1.3697227e-16 
     325    4380.9676        5 4.8031724e-16            2            1            2 1.3697564e-16 
     330    4405.7193        5 4.8155582e-16            2            1            2 1.3701565e-16 
     335    4427.6948        5 4.8276286e-16            2            1            2 1.3701993e-16 
     340    4452.4237        5 4.8401122e-16            2            1            2 1.3706133e-16 
     345    4474.4282        5 4.8522757e-16            2            1            2 1.3706652e-16 
     350    4499.2059        5 4.8648573e-16            2            1            2 1.3710927e-16 
     355    4521.4859        5 4.8771147e-16            2            1            2 1.3711537e-16 
     360    4546.3248        5 4.889795e-16            2            1            2 1.3715949e-16 
     365    4568.7735        5 4.9021467e-16            2            1            2 1.3716647e-16 
     370    4593.6892        5 4.9149261e-16            2            1            2 1.3721194e-16 
     375    4616.1705        5 4.9273726e-16            2            1            2 1.3721982e-16 
     380    4641.1025        5 4.9402518e-16            2            1            2 1.3726665e-16 
     385    4663.6549        5 4.9527937e-16            2            1            2 1.372754e-16 
     390    4688.6798        5 4.9657731e-16            2            1            2 1.3732356e-16 
     395     4711.369        5 4.978411e-16            2            1            2 1.3733321e-16 
     400    4736.3966        5 4.9914912e-16            2            1            2 1.3738271e-16 
     405    4759.2765        5 5.0042256e-16            2            1            2 1.3739323e-16 
     410    4784.3357        5 5.0174071e-16            2            1            2 1.3744405e-16 
     415    4807.3072        5 5.0302386e-16            2            1            2 1.3745545e-16 
     420    4832.4728        5 5.043522e-16            2            1            2 1.3750759e-16 
     425    4855.5122        5 5.0564512e-16            2            1            2 1.3751986e-16 
     430    4880.7331        5 5.0698371e-16            2            1            2 1.3757331e-16 
     435    4903.9063        5 5.0828645e-16            2            1            2 1.3758644e-16 
     440     4929.276        5 5.0963534e-16            2            1            2 1.3764121e-16 
     445    4952.5765        5 5.1094797e-16            2            1            2 1.376552e-16 
     450     4977.927        5 5.1230721e-16            2            1            2 1.3771127e-16 
     455    5001.3981        5 5.1362978e-16            2            1            2 1.377261e-16 
     460    5026.7976        5 5.1499945e-16            2            1            2 1.3778348e-16 
     465    5050.3722        5 5.1633202e-16            2            1            2 1.3779917e-16 
     470    5075.8652        5 5.1771216e-16            2            1            2 1.3785784e-16 
     475    5099.4665        5 5.1905479e-16            2            1            2 1.3787438e-16 
     480    5125.0029        5 5.2044547e-16            2            1            2 1.3793433e-16 
     485    5148.6722        5 5.2179823e-16            2            1            2 1.3795172e-16 
     490    5174.3663        5 5.231995e-16            2            1            2 1.3801295e-16 
     495    5198.2357        5 5.2456244e-16            2            1            2 1.3803118e-16 
     500    5223.9694        5 5.2597436e-16            2            1            2 1.3809369e-16 
     505    5247.9643        5 5.2734756e-16            2            1            2 1.3811276e-16 
     510    5273.7929        5 5.2877021e-16            2            1            2 1.3817655e-16 
     515    5297.9323        5 5.3015371e-16            2            1            2 1.3819645e-16 
     520    5323.7824        5 5.3158714e-16            2            1            2 1.3826152e-16 
     525    5347.9704        5 5.3298101e-16            2            1            2 1.3828225e-16 
     530    5374.0365        5 5.3442527e-16            2            1            2 1.3834856e-16 
     535     5398.331        5 5.3582957e-16            2            1            2 1.3837012e-16 
     540      5423.16        5 5.3728474e-16            2            1            2 1.384377e-16 
     545    5445.3321        5 5.3869955e-16            2            1            2 1.3846009e-16 
     550    5469.1096        5 5.4016567e-16            2            1            2 1.3852892e-16 
     555    5491.3857        5 5.4159104e-16            2            1            2 1.3855212e-16 
     560    5515.2111        5 5.4306819e-16            2            1            2 1.386222e-16 
     565    5537.6411        5 5.4450418e-16            2            1            2 1.3864621e-16 
     570    5561.5976        5 5.4599242e-16            2            1            2 1.3871753e-16 
     575    5584.1726        5 5.474391e-16            2            1            2 1.3874235e-16 
     580    5608.1705        5 5.489385e-16            2            1            2 1.3881492e-16 
     585     5630.838        5 5.5039595e-16            2            1            2 1.3884055e-16 
     590    5654.9472        5 5.5190656e-16            2            1            2 1.3891435e-16 
     595     5677.686        5 5.5337483e-16            2            1            2 1.3894079e-16 
     600     5701.831        5 5.5489673e-16            2            1            2 1.3901582e-16 
     605    5724.6788        5 5.5637589e-16            2            1            2 1.3904306e-16 
     610     5748.804        5 5.5790914e-16            2            1            2 1.3911932e-16 
     615    5771.7083        5 5.5939926e-16            2            1            2 1.3914736e-16 
     620    5795.9484        5 5.6094393e-16            2            1            2 1.3922484e-16 
     625    5818.8831        5 5.6244508e-16            2            1            2 1.3925367e-16 
     630    5843.2585        5 5.6400123e-16            2            1            2 1.3933237e-16 
     635    5866.3547        5 5.6551347e-16            2            1            2  1.39362e-16 
     640    5890.8036        5 5.6708118e-16            2            1            2 1.3944191e-16 
     645    5913.9944        5 5.6860458e-16            2            1            2 1.3947233e-16 
     650    5938.5438        5 5.7018391e-16            2            1            2 1.3955344e-16 
     655    5961.7986        5 5.7171855e-16            2            1            2 1.3958465e-16 
     660    5986.4162        5 5.7330956e-16            2            1            2 1.3966697e-16 
     665    6009.8702        5 5.748555e-16            2            1            2 1.3969895e-16 
     670    6034.5652        5 5.7645827e-16            2            1            2 1.3978248e-16 
     675    6058.0771        5 5.7801559e-16            2            1            2 1.3981524e-16 
     680    6082.9043        5 5.7963019e-16            2            1            2 1.3989996e-16 
     685    6106.4993        5 5.8119895e-16            2            1            2 1.399335e-16 
     690      6131.35        5 5.8282545e-16            2            1            2 1.4001942e-16 
     695    6155.0839        5 5.8440573e-16            2            1            2 1.4005373e-16 
     700    6180.0321        5 5.8604419e-16            2            1            2 1.4014083e-16 
     705    6203.9066        5 5.8763606e-16            2            1            2 1.4017591e-16 
     710    6228.9259        5 5.8928657e-16            2            1            2 1.402642e-16 
     715    6252.9073        5 5.908901e-16            2            1            2 1.4030005e-16 
     720    6278.0842        5 5.9255272e-16            2            1            2 1.4038952e-16 
     725    6302.2557        5 5.9416798e-16            2            1            2 1.4042613e-16 
     730    6327.5343        5 5.9584279e-16            2            1            2 1.4051678e-16 
     735     6351.759        5 5.9746986e-16            2            1            2 1.4055415e-16 
     740    6377.1233        5 5.9915692e-16            2            1            2 1.4064596e-16 
     745    6401.4498        5 6.0079588e-16            2            1            2 1.406841e-16 
     750    6426.9138        5 6.0249528e-16            2            1            2 1.4077709e-16 
     755    6451.3007        5 6.0414619e-16            2            1            2 1.4081598e-16 
     760    6476.7842        5 6.0585799e-16            2            1            2 1.4091013e-16 
     765    6501.3066        5 6.0752094e-16            2            1            2 1.4094977e-16 
     770    6526.8746        5 6.0924522e-16            2            1            2 1.4104508e-16 
     775    6551.5318        5 6.1092028e-16            2            1            2 1.4108547e-16 
     780    6577.1965        5 6.1265711e-16            2            1            2 1.4118194e-16 
     785    6601.9051        5 6.1434436e-16            2            1            2 1.4122308e-16 
     790    6627.7218        5 6.1609383e-16            2            1            2 1.413207e-16 
     795    6652.5231        5 6.1779334e-16            2            1            2 1.4136259e-16 
     800    6678.4199        5 6.1955552e-16            2            1            2 1.4146136e-16 
     805    6703.3602        5 6.2126737e-16            2            1            2 1.4150398e-16 
     810    6729.2711        5 6.2304234e-16            2            1            2 1.416039e-16 
     815     6754.291        5 6.2476662e-16            2            1            2 1.4164727e-16 
     820    6780.2838        5 6.2655445e-16            2            1            2 1.4174833e-16 
     825    6805.4422        5 6.2829122e-16            2            1            2 1.4179243e-16 
     830    6831.5435        5  6.30092e-16            2            1            2 1.4189463e-16 
     835    6856.7431        5 6.3184135e-16            2            1            2 1.4193946e-16 
     840    6882.9333        5 6.3365515e-16            2            1            2 1.420428e-16 
     845    6908.3082        5 6.3541715e-16            2            1            2 1.4208836e-16 
     850    6934.5614        5 6.3724405e-16            2            1            2 1.4219283e-16 
     855    6959.9525        5 6.3901881e-16            2            1            2 1.4223913e-16 
     860    6986.3522        5 6.4085889e-16            2            1            2 1.4234472e-16 
     865    7011.9032        5 6.4264645e-16            2            1            2 1.4239173e-16 
     870    7038.3463        5 6.444998e-16            2            1            2 1.4249845e-16 
     875    7064.0142        5 6.4630028e-16            2            1            2 1.425462e-16 
     880    7090.5673        5 6.4816697e-16            2            1            2 1.4265404e-16 
     885    7116.2818        5 6.4998043e-16            2            1            2 1.427025e-16 
     890    7142.8719        5 6.5186054e-16            2            1            2 1.4281145e-16 
     895    7168.6944        5 6.5368707e-16            2            1            2 1.4286064e-16 
     900    7195.3611        5 6.555807e-16            2            1            2 1.4297071e-16 
     905    7221.2959        5 6.5742039e-16            2            1            2 1.4302061e-16 
     910    7248.0607        5 6.593276e-16            2            1            2 1.4313179e-16 
     915    7274.0945        5 6.6118052e-16            2            1            2 1.431824e-16 
     920    7300.9418        5 6.6310142e-16            2            1            2 1.4329468e-16 
     925     7327.112        5 6.6496766e-16            2            1            2  1.43346e-16 
     930    7354.0109        5 6.6690232e-16            2            1            2 1.4345939e-16 
     935    7380.3067        5 6.6878197e-16            2            1            2 1.4351142e-16 
     940    7407.4116        5 6.7073047e-16            2            1            2 1.4362591e-16 
     945    7433.8475        5 6.7262362e-16            2            1            2 1.4367863e-16 
     950    7461.0328        5 6.7458605e-16            2            1            2 1.4379422e-16 
     955    7487.5229        6 6.7649278e-16            2            1            3 1.4384765e-16 
     960    7514.8528        6 6.7846923e-16            2            1            3 1.4396434e-16 
     965    7541.4889        6 6.8038964e-16            2            1            3 1.4401848e-16 
     970    7568.8056        6 6.823802e-16            2            1            3 1.4413625e-16 
     975    7595.4103        6 6.8431436e-16            2            1            3 1.4419108e-16 
     980    7622.8059        6 6.8631912e-16            2            1            3 1.4430995e-16 
     985    7649.5569        6 6.8826712e-16            2            1            3 1.4436548e-16 
     990    7677.0496        7 6.9028616e-16            3            1            3 1.4448542e-16 
     995    7703.9415        7 6.9224811e-16            3            1            3 1.4454165e-16 
    1000    7731.6058        7 6.9428152e-16            3            1            3 1.4466268e-16 
    1005    7758.6304        7 6.962575e-16            3            1            3 1.4471959e-16 
    1010    7786.2684        7 6.9830537e-16            3            1            3 1.448417e-16 
    1015    7813.3317        7 7.0029546e-16            3            1            3 1.448993e-16 
    1020    7841.0965        7 7.023579e-16            3            1            3 1.4502249e-16 
    1025    7868.3465        7 7.043622e-16            3            1            3 1.4508078e-16 
    1030    7896.1415        7 7.0643928e-16            3            1            3 1.4520504e-16 
    1035    7923.4074        7 7.0845789e-16            3            1            3 1.4526401e-16 
    1040    7951.3746        7 7.1054971e-16            3            1            3 1.4538935e-16 
    1045    7978.7299        7 7.1258271e-16            3            1            3  1.45449e-16 
    1050    8006.7877        7 7.1468936e-16            3            1            3 1.4557541e-16 
    1055    8034.3246        7 7.1673686e-16            3            1            3 1.4563574e-16 
    1060    8062.4872        7 7.1885843e-16            3            1            3 1.4576321e-16 
    1065    8089.9777        7 7.2092051e-16            3            1            3 1.4582423e-16 
    1070    8118.1417        7 7.2305711e-16            3            1            3 1.4595276e-16 
    1075     8145.813        7 7.2513387e-16            3            1            3 1.4601445e-16 
    1080    8174.1443        7 7.2728558e-16            3            1            3 1.4614404e-16 
    1085    8201.9005        7 7.2937712e-16            3            1            3 1.4620641e-16 
    1090    8230.3193        7 7.3154403e-16            3            1            3 1.4633706e-16 
    1095    8258.2406        7 7.3365045e-16            3            1            3 1.4640009e-16 
    1100    8286.7464        7 7.3583267e-16            3            1            3 1.465318e-16 
    1105    8314.8284        7 7.3795405e-16            3            1            3 1.465955e-16 
    1110    8343.3975        7 7.4015168e-16            3            1            3 1.4672826e-16 
    1115    8371.4617        7 7.4228814e-16            3            1            3 1.4679264e-16 
    1120    8400.0869        7 7.4450126e-16            3            1            3 1.4692645e-16 
    1125    8428.3608        7 7.4665288e-16            3            1            3 1.4699148e-16 
    1130     8457.119        7 7.4888161e-16            3            1            3 1.4712634e-16 
    1135    8485.5039        7 7.510485e-16            3            1            3 1.4719204e-16 
    1140    8514.3638        7 7.5329293e-16            3            1            3 1.4732795e-16 
    1145    8542.8248        7 7.5547518e-16            3            1            3 1.4739431e-16 
    1150    8571.7427        7 7.5773541e-16            3            1            3 1.4753126e-16 
    1155    8600.3663        7 7.5993314e-16            3            1            3 1.4759829e-16 
    1160    8629.3759        7 7.6220927e-16            3            1            3 1.4773627e-16 
    1165    8657.9992        7 7.6442256e-16            3            1            3 1.4780395e-16 
    1170    8687.1448        7 7.667147e-16            3            1            3 1.4794298e-16 
    1175    8715.8915        7 7.6894367e-16            3            1            3 1.4801132e-16 
    1180    8745.1241        7 7.712519e-16            3            1            3 1.4815138e-16 
    1185     8773.951        7 7.7349665e-16            3            1            3 1.4822038e-16 
    1190    8803.2613        7 7.7582109e-16            3            1            3 1.4836147e-16 
    1195    8832.1802        7 7.7808172e-16            3            1            3 1.4843112e-16 
    1200    8861.5782        7 7.8042248e-16            3            1            3 1.4857324e-16 
    1205    8890.6734        7 7.8269909e-16            3            1            3 1.4864354e-16 
    1210    8920.1304        7 7.8505627e-16            3            1            3 1.4878669e-16 
    1215     8949.313        7 7.8734897e-16            3            1            3 1.4885765e-16 
    1220    8978.9367        7 7.8972267e-16            3            1            3 1.4900183e-16 
    1225    9008.2129        7 7.9203158e-16            3            1            3 1.4907343e-16 
    1230    9037.8669        7 7.944219e-16            3            1            3 1.4921863e-16 
    1235     9067.257        7 7.9674711e-16            3            1            3 1.4929088e-16 
    1240    9097.0266        7 7.9915418e-16            3            1            3 1.4943711e-16 
    1245    9126.4546        7 8.0149581e-16            3            1            3   1.4951e-16 
    1250     9156.323        7 8.0391972e-16            3            1            3 1.4965726e-16 
    1255    9185.9047        7 8.0627786e-16            3            1            3 1.4973079e-16 
    1260    9215.8341        7 8.0871873e-16            3            1            3 1.4987907e-16 
    1265     9245.534        7 8.1109351e-16            3            1            3 1.4995325e-16 
    1270    9275.6019        7 8.1355144e-16            3            1            3 1.5010254e-16 
    1275    9305.4457        8 8.1594296e-16            4            1            3 1.5017736e-16 
    1280    9335.6324        8 8.1841807e-16            4            1            3 1.5032767e-16 
    1285    9365.5077        8 8.2082644e-16            4            1            3 1.5040313e-16 
    1290    9395.7366        8 8.2331883e-16            4            1            3 1.5055445e-16 
    1295    9425.6466        8 8.2574418e-16            4            1            3 1.5063055e-16 
    1300    9455.9005        8 8.2825397e-16            4            1            3 1.5078288e-16 
    1305    9485.9604        8 8.3069639e-16            4            1            3 1.5085961e-16 
    1310     9516.341        8 8.3322368e-16            4            1            3 1.5101296e-16 
    1315    9546.4815        8 8.356833e-16            4            1            3 1.5109032e-16 
    1320    9577.0003        8 8.3822822e-16            4            1            3 1.5124468e-16 
    1325    9607.2231        8 8.4070514e-16            4            1            3 1.5132268e-16 
    1330    9637.8283        8 8.432678e-16            4            1            3 1.5147804e-16 
    1335    9668.1667        8 8.4576215e-16            4            1            3 1.5155668e-16 
    1340    9698.8326        8 8.4834267e-16            4            1            3 1.5171304e-16 
    1345    9729.3243        8 8.5085455e-16            4            1            3 1.5179231e-16 
    1350    9760.0091        8 8.5345304e-16            4            1            3 1.5194968e-16 
    1355    9790.4873        9 8.5598258e-16            4            2            3 1.5202958e-16 
    1360    9821.2858        9 8.5859915e-16            4            2            3 1.5218795e-16 
    1365    9851.8895        9 8.6114647e-16            4            2            3 1.5226847e-16 
    1370    9882.7763        9 8.6378125e-16            4            2            3 1.5242785e-16 
    1375    9913.4778        9 8.6634646e-16            4            2            3  1.52509e-16 
    1380    9944.4617        9 8.6899957e-16            4            2            3 1.5266938e-16 
    1385    9975.2157        9 8.7158279e-16            4            2            3 1.5275116e-16 
    1390    10006.278        9 8.7425434e-16            4            2            3 1.5291253e-16 
    1395    10037.135        9 8.768557e-16            4            2            3 1.5299493e-16 
    1400    10068.306        9 8.7954583e-16            4            2            3 1.5315731e-16 
    1405    10097.553        9 8.8216543e-16            4            2            3 1.5324033e-16 
    1410    10126.867        9 8.8487425e-16            4            2            3 1.534037e-16 
    1415    10155.967        9 8.8751223e-16            4            2            3 1.5348735e-16 
    1420    10185.399        9 8.9023985e-16            4            2            3 1.5365171e-16 
    1425    10214.712        9 8.9289634e-16            4            2            3 1.5373598e-16 
    1430    10244.363       10 8.9564289e-16            4            2            4 1.5390134e-16 
    1435    10273.847       10  8.98318e-16            4            2            4 1.5398623e-16 
    1440    10303.525       10 9.0108361e-16            4            2            4 1.5415257e-16 
    1445    10332.996       10 9.0377747e-16            4            2            4 1.5423808e-16 
    1450    10362.713       10 9.0656227e-16            4            2            4 1.5440542e-16 
    1455    10392.289       10  9.09275e-16            4            2            4 1.5449155e-16 
    1460    10422.079       10 9.1207912e-16            4            2            4 1.5465988e-16 
    1465    10451.732       10 9.1481085e-16            4            2            4 1.5474663e-16 
    1470     10481.69       10 9.1763441e-16            4            2            4 1.5491595e-16 
    1475    10511.481       10 9.2038527e-16            4            2            4 1.5500331e-16 
    1480    10541.554       10 9.2322839e-16            4            2            4 1.5517362e-16 
    1485    10571.469       10 9.2599851e-16            4            2            4 1.552616e-16 
    1490    10601.606       10 9.2886132e-16            4            2            4 1.554329e-16 
    1495    10631.585       10 9.3165083e-16            4            2            4 1.5552149e-16 
    1500    10661.838       10 9.3453347e-16            4            2            4 1.5569377e-16 
    1505    10691.866       10 9.373425e-16            4            2            4 1.5578297e-16 
    1510    10722.142       10 9.4024509e-16            4            2            4 1.5595624e-16 
    1515      10752.3       10 9.4307377e-16            4            2            4 1.5604605e-16 
    1520    10782.643       10 9.4599645e-16            4            2            4 1.562203e-16 
    1525    10812.888       10 9.4884491e-16            4            2            4 1.5631073e-16 
    1530    10843.323       10 9.5178781e-16            4            2            4 1.5648596e-16 
    1535    10873.696       10 9.5465618e-16            4            2            4  1.56577e-16 
    1540    10904.222       10 9.5761944e-16            4            2            4 1.5675321e-16 
    1545    10934.689       10 9.6050787e-16            4            2            4 1.5684486e-16 
    1550    10965.273       10 9.6349161e-16            4            2            4 1.5702206e-16 
    1555    10995.812       10 9.6640022e-16            4            2            4 1.5711431e-16 
    1560    11026.469       10 9.6940459e-16            4            2            4 1.5729249e-16 
    1565    11057.104       10 9.7233352e-16            4            2            4 1.5738536e-16 
    1570    11087.898       10 9.7535865e-16            4            2            4 1.5756451e-16 
    1575    11118.669       10 9.7830804e-16            4            2            4 1.5765798e-16 
    1580    11149.614       10 9.8135408e-16            4            2            4 1.5783812e-16 
    1585    11180.425       10 9.8432406e-16            4            2            4 1.5793219e-16 
    1590    11211.453       10 9.8739113e-16            4            2            4 1.5811331e-16 
    1595    11242.317       10 9.9038185e-16            4            2            4 1.5820799e-16 
    1600    11273.428       10 9.934701e-16            4            2            4 1.5839008e-16 
    1605    11304.353       10 9.964817e-16            4            2            4 1.5848537e-16 
    1610    11335.555       10 9.9959126e-16            4            2            4 1.5866843e-16 
    1615    11366.615       10 1.0026239e-15            4            2            4 1.5876432e-16 
    1620    11397.972       10 1.0057549e-15            4            2            4 1.5894836e-16 
    1625    11429.179       10 1.0088087e-15            4            2            4 1.5904486e-16 
    1630    11460.543       10 1.0119613e-15            4            2            4 1.5922988e-16 
    1635    11491.874       10 1.0150364e-15            4            2            4 1.5932698e-16 
    1640    11523.361       10 1.0182108e-15            4            2            4 1.5951296e-16 
    1645     11554.71       10 1.0213073e-15            4            2            4 1.5961067e-16 
    1650    11586.249       10 1.0245036e-15            4            2            4 1.5979763e-16 
    1655    11617.748       10 1.0276217e-15            4            2            4 1.5989593e-16 
    1660    11649.445       10  1.03084e-15            4            2            4 1.6008387e-16 
    1665    11681.019       10 1.0339798e-15            4            2            4 1.6018277e-16 
    1670    11712.743       10 1.0372203e-15            4            2            4 1.6037168e-16 
    1675     11744.41       10 1.0403821e-15            4            2            4 1.6047118e-16 
    1680    11776.255       10 1.0436449e-15            4            2            4 1.6066106e-16 
    1685    11807.982       10 1.0468287e-15            4            2            4 1.6076116e-16 
    1690    11839.901       10 1.050114e-15            4            2            4 1.6095201e-16 
    1695    11871.704       10 1.0533199e-15            4            2            4 1.6105271e-16 
    1700    11903.644       10 1.0566279e-15            4            2            4 1.6124454e-16 
    1705    11935.518       10 1.0598562e-15            4            2            4 1.6134583e-16 
    1710    11967.641       10 1.0631869e-15            4            2            4 1.6153863e-16 
    1715     11999.65       10 1.0664377e-15            4            2            4 1.6164052e-16 
    1720    12031.791       10 1.0697913e-15            4            2            4 1.6183429e-16 
    1725    12063.826       10 1.0730647e-15            4            2            4 1.6193678e-16 
    1730    12096.089       10 1.0764415e-15            4            2            4 1.6213151e-16 
    1735    12128.287       10 1.0797377e-15            4            2            4 1.622346e-16 
    1740    12160.642       10 1.0831377e-15            4            2            4 1.624303e-16 
    1745    12193.471       10 1.0864568e-15            4            2            4 1.6253399e-16 
    1750    12226.437       10 1.0898802e-15            4            2            4 1.6273066e-16 
    1755    12259.399       10 1.0932225e-15            4            2            4 1.6283494e-16 
    1760    12292.767       10 1.0966694e-15            4            2            4 1.6303258e-16 
    1765    12325.692       10 1.1000349e-15            4            2            4 1.6313745e-16 
    1770    12358.786       10 1.1035056e-15            4            2            4 1.6333606e-16 
    1775    12391.896       10 1.1068945e-15            4            2            4 1.6344153e-16 
    1780    12425.122       10 1.110389e-15            4            2            4 1.636411e-16 
    1785    12458.135       10 1.1138016e-15            4            2            4 1.6374717e-16 
    1790    12491.417       10 1.1173201e-15            4            2            4 1.6394771e-16 
    1795    12524.608       10 1.1207564e-15            4            2            4 1.6405436e-16 
    1800    12558.275       10 1.1242991e-15            4            2            4 1.6425587e-16 
    1805    12591.748       10 1.1277593e-15            4            2            4 1.6436312e-16 
    1810    12625.214       10 1.1313264e-15            4            2            4 1.6456559e-16 
    1815    12658.688       10 1.1348106e-15            4            2            4 1.6467344e-16 
    1820    12692.508       10 1.1384022e-15            4            2            4 1.6487687e-16 
    1825    12726.089       10 1.1419107e-15            4            2            4 1.6498531e-16 
    1830    12759.756       10 1.145527e-15            4            2            4 1.6518972e-16 
    1835    12795.689       11 1.1490598e-15            4            2            5 1.6529875e-16 
    1840    12829.044       11 1.1527011e-15            4            2            5 1.6550422e-16 
    1845    12862.675       11 1.1562585e-15            4            2            5 1.6561388e-16 
    1850    12896.408       11 1.1599248e-15            4            2            5 1.6582027e-16 
    1855    12930.112       11 1.1635069e-15            4            2            5 1.659305e-16 
    1860    12963.891       11 1.1671983e-15            4            2            5 1.6613782e-16 
    1865    12997.842       11 1.1708054e-15            4            2            5 1.6624863e-16 
    1870    13031.774       11 1.1745221e-15            4            2            5 1.6645691e-16 
    1875    13065.632       11 1.1781542e-15            4            2            5 1.665683e-16 
    1880    13099.818       11 1.1818964e-15            4            2            5 1.6677754e-16 
    1885    13133.864       11 1.1855538e-15            4            2            5 1.6688952e-16 
    1890    13168.134       11 1.1893217e-15            4            2            5 1.6709972e-16 
    1895    13202.279       11 1.1930045e-15            4            2            5 1.6721229e-16 
    1900    13236.626       11 1.1967983e-15            4            2            5 1.6742345e-16 
    1905    13270.932       12 1.2005066e-15            5            2            5 1.6753661e-16 
    1910    13305.309       12 1.2043264e-15            5            2            5 1.6774874e-16 
    1915    13339.533       12 1.2080605e-15            5            2            5 1.6786249e-16 
    1920    13373.956       12 1.2119066e-15            5            2            5 1.6807558e-16 
    1925    13408.337       12 1.2156666e-15            5            2            5 1.6818992e-16 
    1930    13442.785       12 1.2195391e-15            5            2            5 1.6840397e-16 
    1935    13477.427       12 1.2233252e-15            5            2            5 1.6851889e-16 
    1940    13512.101       12 1.2272242e-15            5            2            5 1.6873391e-16 
    1945    13547.002       12 1.2310366e-15            5            2            5 1.6884942e-16 
    1950    13581.611       12 1.2349624e-15            5            2            5 1.690654e-16 
    1955    13616.146       12 1.2388013e-15            5            2            5 1.691815e-16 
    1960    13650.939       12 1.242754e-15            5            2            5 1.6939844e-16 
    1965    13685.598       12 1.2466195e-15            5            2            5 1.6951513e-16 
    1970    13720.836       12 1.2505994e-15            5            2            5 1.6973304e-16 
    1975    13755.766       12 1.2544917e-15            5            2            5 1.6985031e-16 
    1980    13790.795       12 1.2584989e-15            5            2            5 1.7006918e-16 
    1985    13825.808       12 1.2624182e-15            5            2            5 1.7018704e-16 
    1990     13860.88       12 1.2664529e-15            5            2            5 1.7040687e-16 
    1995    13896.122       12 1.2703994e-15            5            2            5 1.7052531e-16 
    2000    13931.409       12 1.2744617e-15            5            2            5 1.7074611e-16 
    2005    13966.525       12 1.2784357e-15            5            2            5 1.7086514e-16 
    2010    14001.799       12 1.2825258e-15            5            2            5 1.710869e-16 
    2015    14037.149       12 1.2865273e-15            5            2            5 1.7120652e-16 
    2020    14072.514       13 1.2906455e-15            6            2            5 1.7142924e-16 
    2025    14107.781       13 1.2946748e-15            6            2            5 1.7154944e-16 
    2030    14143.059       13 1.2988212e-15            6            2            5 1.7177313e-16 
    2035     14178.44       13 1.3028785e-15            6            2            5 1.7189392e-16 
    2040    14214.099       13 1.3070533e-15            6            2            5 1.7211857e-16 
    2045    14249.567       13 1.3111387e-15            6            2            5 1.7223994e-16 
    2050     14285.11       14 1.3153421e-15            7            2            5 1.7246556e-16 
    2055    14320.542       14 1.3194559e-15            7            2            5 1.7258751e-16 
    2060    14356.206       14 1.3236881e-15            7            2            5 1.7281409e-16 
    2065    14391.892       14 1.3278304e-15            7            2            5 1.7293663e-16 
    2070     14427.69       14 1.3320916e-15            7            2            5 1.7316417e-16 
    2075    14463.388       14 1.3362626e-15            7            2            5 1.7328729e-16 
    2080    14499.193       14 1.3405531e-15            7            2            5 1.735158e-16 
    2085    14534.951       14 1.344753e-15            7            2            5 1.7363951e-16 
    2090    14571.032       14 1.3490729e-15            7            2            5 1.7386898e-16 
    2095    14607.086       14 1.3533019e-15            7            2            5 1.7399326e-16 
    2100    14643.083       14 1.3576513e-15            7            2            5 1.742237e-16 
    2105    14679.505       14 1.3619097e-15            7            2            5 1.7434857e-16 
    2110    14715.787       14 1.3662889e-15            7            2            5 1.7457997e-16 
    2115    14751.955       14 1.3705768e-15            7            2            5 1.7470543e-16 
    2120    14788.565       14 1.3749861e-15            7            2            5 1.7493779e-16 
    2125    14824.815       14 1.3793036e-15            7            2            5 1.7506383e-16 
    2130    14861.314       15 1.3837431e-15            7            2            6 1.7529716e-16 
    2135    14897.927       15 1.3880906e-15            7            2            6 1.7542378e-16 
    2140    14934.415       15 1.3925605e-15            7            2            6 1.7565807e-16 
    2145    14970.862       15 1.3969381e-15            7            2            6 1.7578528e-16 
    2150    15007.521       15 1.4014387e-15            7            2            6 1.7602053e-16 
    2155    15044.106       15 1.4058466e-15            7            2            6 1.7614832e-16 
    2160    15080.776       15 1.410378e-15            7            2            6 1.7638454e-16 
    2165     15117.32       15 1.4148165e-15            7            2            6 1.7651291e-16 
    2170    15154.133       15 1.4193788e-15            7            2            6 1.767501e-16 
    2175    15190.871       15 1.4238481e-15            7            2            6 1.7687905e-16 
    2180    15227.774       15 1.4284417e-15            7            2            6 1.771172e-16 
    2185    15264.568       15 1.4329419e-15            7            2            6 1.7724673e-16 
    2190     15301.56       15 1.437567e-15            7            2            6 1.7748585e-16 
    2195    15338.398       15 1.4420984e-15            7            2            6 1.7761597e-16 
    2200    15375.332       15 1.4467552e-15            7            2            6 1.7785605e-16 
    2205    15412.239       15 1.451318e-15            7            2            6 1.7798674e-16 
    2210     15449.36       15 1.4560066e-15            7            2            6 1.7822779e-16 
    2215    15486.534       15 1.460601e-15            7            2            6 1.7835907e-16 
    2220    15523.772       15 1.4653218e-15            7            2            6 1.7860108e-16 
    2225    15560.966       15 1.469948e-15            7            2            6 1.7873294e-16 
    2230    15598.224       15 1.4747011e-15            7            2            6 1.7897592e-16 
    2235    15635.489       15 1.4793594e-15            7            2            6 1.7910837e-16 
    2240    15672.877       15 1.484145e-15            7            2            6 1.7935231e-16 
    2245    15710.285       15 1.4888355e-15            7            2            6 1.7948533e-16 
    2250    15747.925       15 1.4936539e-15            7            2            6 1.7973025e-16 
    2255    15785.388       15 1.4983769e-15            7            2            6 1.7986385e-16 
    2260    15822.918       15 1.5032283e-15            7            2            6 1.8010973e-16 
    2265    15860.417       15 1.507984e-15            7            2            6 1.8024392e-16 
    2270    15898.072       15 1.5128686e-15            7            2            6 1.8049076e-16 
    2275    15935.742       15 1.5176573e-15            7            2            6 1.8062553e-16 
    2280    15973.455       15 1.5225753e-15            7            2            6 1.8087335e-16 
    2285    16011.468       15 1.5273971e-15            7            2            6 1.810087e-16 
    2290    16049.411       15 1.5323488e-15            7            2            6 1.8125748e-16 
    2295    16087.157       15 1.537204e-15            7            2            6 1.8139341e-16 
    2300    16125.144       15 1.5421896e-15            7            2            6 1.8164316e-16 
    2305    16163.033       15 1.5470784e-15            7            2            6 1.8177967e-16 
    2310    16201.085       15 1.5520981e-15            7            2            6 1.8203038e-16 
    2315    16239.186       15 1.5570208e-15            7            2            6 1.8216748e-16 
    2320    16277.233       15 1.5620748e-15            7            2            6 1.8241916e-16 
    2325    16315.326       15 1.5670316e-15            7            2            6 1.8255684e-16 
    2330    16353.544       15 1.5721203e-15            7            2            6 1.828095e-16 
    2335    16391.717       15 1.5771114e-15            7            2            6 1.8294775e-16 
    2340    16429.989       15 1.5822348e-15            7            2            6 1.8320137e-16 
    2345    16468.427       15 1.5872605e-15            7            2            6 1.8334021e-16 
    2350    16507.001       15 1.592419e-15            7            2            6 1.835948e-16 
    2355    16545.506       15 1.5974795e-15            7            2            6 1.8373422e-16 
    2360    16584.245       15 1.6026733e-15            7            2            6 1.8398978e-16 
    2365    16622.749       15 1.6077688e-15            7            2            6 1.8412978e-16 
    2370    16661.387       15 1.6129982e-15            7            2            6 1.8438632e-16 
    2375    16699.888       15 1.6181289e-15            7            2            6 1.845269e-16 
    2380    16738.713       15 1.6233941e-15            7            2            6 1.847844e-16 
    2385    16777.406       15 1.6285604e-15            7            2            6 1.8492556e-16 
    2390    16816.217       15 1.6338615e-15            7            2            6 1.8518404e-16 
    2395    16854.962       15 1.6390636e-15            7            2            6 1.8532578e-16 
    2400    16893.897       15 1.6444011e-15            7            2            6 1.8558523e-16 
    2405    16932.839       15 1.6496391e-15            7            2            6 1.8572755e-16 
    2410    16971.908       15 1.6550131e-15            7            2            6 1.8598797e-16 
    2415    17011.225       15 1.6602874e-15            7            2            6 1.8613087e-16 
    2420    17050.376       16 1.6656982e-15            7            2            7 1.8639226e-16 
    2425    17089.411       16 1.671009e-15            7            2            7 1.8653574e-16 
    2430    17128.623       16 1.6764568e-15            7            2            7 1.8679811e-16 
    2435    17167.882       16 1.6818043e-15            7            2            7 1.8694217e-16 
    2440    17207.181       16 1.6872894e-15            7            2            7 1.8720551e-16 
    2445    17246.663       16 1.692674e-15            7            2            7 1.8735016e-16 
    2450    17286.141       16 1.6981966e-15            7            2            7 1.8761448e-16 
    2455    17325.595       16 1.7036185e-15            7            2            7 1.877597e-16 
    2460    17365.139       16 1.7091788e-15            7            2            7 1.8802499e-16 
    2465    17405.175       16 1.7146382e-15            7            2            7 1.881708e-16 
    2470    17444.856       17 1.7202366e-15            7            2            8 1.8843707e-16 
    2475    17484.546       17 1.7257338e-15            7            2            8 1.8858346e-16 
    2480    17524.345       18 1.7313705e-15            8            2            8 1.888507e-16 
    2485    17563.636       18 1.7369058e-15            8            2            8 1.8899767e-16 
    2490    17603.117       18 1.7425811e-15            8            2            8 1.8926589e-16 
    2495    17642.424       18 1.7481546e-15            8            2            8 1.8941344e-16 
    2500    17681.842       18 1.7538687e-15            8            2            8 1.8968263e-16 
    2505    17721.242       18 1.7594808e-15            8            2            8 1.8983077e-16 
    2510    17760.775       18 1.765234e-15            8            2            8 1.9010094e-16 
    2515    17800.225       18 1.770885e-15            8            2            8 1.9024966e-16 
    2520     17839.83       18 1.7766776e-15            8            2            8 1.905208e-16 
    2525    17879.273       18 1.7823676e-15            8            2            8 1.906701e-16 
    2530    17918.961       18 1.7881998e-15            8            2            8 1.9094223e-16 
    2535    17958.457       18 1.7939293e-15            8            2            8 1.910921e-16 
    2540    17998.097       18 1.7998014e-15            8            2            8 1.9136521e-16 
    2545    18037.735       18 1.8055704e-15            8            2            8 1.9151567e-16 
    2550    18077.474       18 1.8114828e-15            8            2            8 1.9178975e-16 
    2555    18117.234       18 1.8172917e-15            8            2            8 1.9194079e-16 
    2560    18157.268       18 1.8232445e-15            8            2            8 1.9221585e-16 
    2565    18197.257       18 1.8290937e-15            8            2            8 1.9236748e-16 
    2570    18237.286       18 1.8350872e-15            8            2            8 1.9264352e-16 
    2575    18277.308       18 1.8409768e-15            8            2            8 1.9279573e-16 
    2580    18317.307       18 1.8470113e-15            8            2            8 1.9307275e-16 
    2585    18357.423       18 1.8529417e-15            8            2            8 1.9322554e-16 
    2590    18397.566       18 1.8590176e-15            8            2            8 1.9350355e-16 
    2595    18438.013       18 1.864989e-15            8            2            8 1.9365692e-16 
    2600    18478.254       18 1.8711064e-15            8            2            8 1.9393591e-16 
    2605    18518.537       18 1.8771191e-15            8            2            8 1.9408987e-16 
    2610    18559.144       18 1.8832784e-15            8            2            8 1.9436984e-16 
    2615    18599.532       18 1.8893327e-15            8            2            8 1.9452438e-16 
    2620    18639.873       18 1.8955341e-15            8            2            8 1.9480533e-16 
    2625    18680.188       18 1.9016304e-15            8            2            8 1.9496045e-16 
    2630    18720.646       18 1.9078742e-15            8            2            8 1.9524239e-16 
    2635    18761.253       18 1.9140126e-15            8            2            8 1.953981e-16 
    2640    18802.005       18 1.9202992e-15            8            2            8 1.9568102e-16 
    2645    18842.753       18 1.9264801e-15            8            2            8 1.9583731e-16 
    2650    18883.531       18 1.9328096e-15            8            2            8 1.9612122e-16 
    2655    18924.433       18 1.9390333e-15            8            2            8 1.9627809e-16 
    2660    18965.315       18 1.9454062e-15            8            2            8 1.9656299e-16 
    2665    19006.204       18 1.9516729e-15            8            2            8 1.9672045e-16 
    2670    19047.336       18 1.9580894e-15            8            2            8 1.9700633e-16 
    2675    19088.442       18 1.9643995e-15            8            2            8 1.9716438e-16 
    2680    19129.621       18 1.9708599e-15            8            2            8 1.9745125e-16 
    2685    19170.813       18 1.9772137e-15            8            2            8 1.9760988e-16 
    2690    19212.061       18 1.9837183e-15            8            2            8 1.9789773e-16 
    2695    19253.154       18 1.990116e-15            8            2            8 1.9805694e-16 
    2700    19294.585       18 1.9966651e-15            8            2            8 1.9834579e-16 
    2705    19335.815       18 2.0031071e-15            8            2            8 1.9850559e-16 
    2710    19377.233       18 2.0097011e-15            8            2            8 1.9879543e-16 
    2715    19418.499       18 2.0161876e-15            8            2            8 1.9895581e-16 
    2720    19459.998       18 2.0228267e-15            8            2            8 1.9924664e-16 
    2725     19501.56       18 2.0293581e-15            8            2            8 1.9940761e-16 
    2730    19543.123       18 2.0360427e-15            8            2            8 1.9969943e-16 
    2735    19584.534       18 2.0426193e-15            8            2            8 1.9986099e-16 
    2740    19626.206       18 2.0493496e-15            8            2            8 2.001538e-16 
    2745    19667.717       18 2.0559717e-15            8            2            8 2.0031594e-16 
    2750    19709.659       18 2.062748e-15            8            2            8 2.0060975e-16 
    2755     19752.15       18 2.069416e-15            8            2            8 2.0077247e-16 
    2760    19794.136       18 2.0762387e-15            8            2            8 2.0106728e-16 
    2765    19837.738       18 2.0829528e-15            8            2            8 2.0123059e-16 
    2770    19880.344       18 2.0898222e-15            8            2            8 2.0152639e-16 
    2775    19923.584       18 2.0965827e-15            8            2            8 2.0169029e-16 
    2780    19966.755       18 2.1034992e-15            8            2            8 2.0198708e-16 
    2785    20010.386       18 2.1103065e-15            8            2            8 2.0215157e-16 
    2790    20053.606       18 2.1172703e-15            8            2            8 2.0244936e-16 
    2795    20096.672       19 2.1241247e-15            8            2            9 2.0261443e-16 
    2800    20140.936       20 2.1311361e-15            9            2            9 2.0291322e-16 
    2805    20185.361       20 2.138038e-15            9            2            9 2.0307888e-16 
    2810    20229.384       20 2.1450974e-15            9            2            9 2.0337867e-16 
    2815    20273.905       20 2.152047e-15            9            2            9 2.0354492e-16 
    2820    20319.969       20 2.1591548e-15            9            2            9 2.038457e-16 
    2825    20364.248       20 2.1661524e-15            9            2            9 2.0401253e-16 
    2830    20407.658       20 2.1733089e-15            9            2            9 2.0431429e-16 
    2835    20451.128       20 2.1803549e-15            9            2            9 2.0448171e-16 
    2840    20494.274       20 2.1875604e-15            9            2            9 2.0478449e-16 
    2845    20536.856       20 2.1946552e-15            9            2            9 2.049525e-16 
    2850    20580.012       20 2.2019099e-15            9            2            9 2.0525629e-16 
    2855    20623.367       20 2.2090538e-15            9            2            9 2.0542489e-16 
    2860     20666.51       20 2.2163583e-15            9            2            9 2.0572968e-16 
    2865    20709.547       20 2.2235516e-15            9            2            9 2.0589888e-16 
    2870    20753.275       20 2.2309061e-15            9            2            9 2.0620467e-16 
    2875    20796.302       20 2.2381492e-15            9            2            9 2.0637446e-16 
    2880    20840.823       21 2.245554e-15           10            2            9 2.0668126e-16 
    2885    20885.885       21 2.2528472e-15           10            2            9 2.0685163e-16 
    2890    20930.574       21 2.2603027e-15           10            2            9 2.0715932e-16 
    2895    20975.401       21 2.2676463e-15           10            2            9 2.0733017e-16 
    2900    21019.487       21 2.2751527e-15           10            2            9 2.0763878e-16 
    2905    21063.686       21 2.282547e-15           10            2            9 2.078102e-16 
    2910    21120.342       22 2.2901048e-15           10            2           10 2.0811979e-16 
    2915    21198.086       22 2.2975504e-15           10            2           10 2.0829179e-16 
    2920    21288.906       22 2.3051599e-15           10            2           10 2.0860238e-16 
    2925    21356.231       22 2.3126569e-15           10            2           10 2.0877496e-16 
    2930    21417.941       22 2.3203186e-15           10            2           10 2.0908656e-16 
    2935    21478.816       22 2.3278675e-15           10            2           10 2.0925974e-16 
    2940    21538.865       22 2.3355816e-15           10            2           10 2.0957235e-16 
    2945     21600.98       22 2.3431828e-15           10            2           10 2.0974613e-16 
    2950    21664.044       22 2.3509498e-15           10            2           10 2.1005976e-16 
    2955    21720.195       23 2.3586036e-15           11            2           10 2.1023414e-16 
    2960    21773.238       23 2.3664238e-15           11            2           10 2.1054878e-16 
    2965    21827.351       23 2.3741305e-15           11            2           10 2.1072374e-16 
    2970    21880.269       24 2.3820043e-15           12            2           10 2.1103941e-16 
    2975    21929.646       24 2.3897644e-15           12            2           10 2.1121498e-16 
    2980     21976.32       24 2.3976921e-15           12            2           10 2.1153166e-16 
    2985    22022.746       24 2.4055059e-15           12            2           10 2.1170782e-16 
    2990    22074.227       24 2.4134879e-15           12            2           10 2.1202551e-16 
    2995    22171.079       24 2.4213557e-15           12            2           10 2.1220227e-16 
    3000    22271.768       24 2.4293924e-15           12            2           10 2.1252098e-16 
    3005    22363.321       24 2.4373147e-15           12            2           10 2.1269833e-16 
    3010    22421.686       24 2.4454065e-15           12            2           10 2.1301806e-16 
    3015    22482.101       24 2.4533836e-15           12            2           10 2.1319601e-16 
    3020    22543.339       25 2.4615308e-15           13            2           10 2.1351676e-16 
    3025    22604.522       25 2.4695632e-15           13            2           10 2.1369531e-16 
    3030    22665.096       25 2.4777662e-15           13            2           10 2.1401708e-16 
    3035    22725.662       25 2.4858542e-15           13            2           10 2.1419623e-16 
    3040    22785.882       25 2.4941134e-15           13            2           10 2.1451903e-16 
    3045    22845.361       25 2.5022573e-15           13            2           10 2.1469877e-16 
    3050    22904.524       25 2.5105731e-15           13            2           10 2.150226e-16 
    3055    22963.225       25 2.5187734e-15           13            2           10 2.1520294e-16 
    3060    23021.187       25 2.5271462e-15           13            2           10 2.1552779e-16 
    3065     23079.02       26 2.5354033e-15           13            2           11 2.1570873e-16 
    3070    23136.725       26 2.5438335e-15           13            2           11 2.1603461e-16 
    3075    23194.351       26 2.5521477e-15           13            2           11 2.1621616e-16 
    3080    23251.818       26 2.5606357e-15           13            2           11 2.1654306e-16 
    3085    23309.414       26 2.5690074e-15           13            2           11 2.1672521e-16 
    3090    23366.928       26 2.5775535e-15           13            2           11 2.1705315e-16 
    3095    23423.645       26 2.5859832e-15           13            2           11 2.172359e-16 
    3100     23481.04       26 2.594588e-15           13            2           11 2.1756487e-16 
    3105    23538.896       26 2.603076e-15           13            2           11 2.1774822e-16 
    3110    23596.223       26 2.6117397e-15           13            2           11 2.1807824e-16 
    3115    23652.873       26 2.6202865e-15           13            2           11 2.182622e-16 
    3120    23709.868       26 2.6290097e-15           13            2           11 2.1859326e-16 
    3125     23761.36       26 2.6376156e-15           13            2           11 2.1877783e-16 
    3130    23812.336       26 2.6463986e-15           13            2           11 2.1910994e-16 
    3135    23863.056       26 2.6550641e-15           13            2           11 2.1929512e-16 
    3140     23913.71       26 2.6639073e-15           13            2           11 2.1962827e-16 
    3145    23963.873       26 2.6726328e-15           13            2           11 2.1981406e-16 
    3150     24014.18       26 2.6815366e-15           13            2           11 2.2014826e-16 
    3155    24064.412       26 2.6903225e-15           13            2           11 2.2033467e-16 
    3160    24114.937       26 2.6992874e-15           13            2           11 2.2066991e-16 
    3165    24165.414       26 2.7081342e-15           13            2           11 2.2085693e-16 
    3170    24216.159       26 2.7171605e-15           13            2           11 2.2119323e-16 
    3175    24266.658       26 2.7260685e-15           13            2           11 2.2138086e-16 
    3180     24316.46       26 2.7351567e-15           13            2           11 2.2171821e-16 
    3185    24366.006       27 2.7441265e-15           14            2           11 2.2190646e-16 
    3190    24415.877       27 2.753277e-15           14            2           11 2.2224485e-16 
    3195    24465.535       27 2.7623088e-15           14            2           11 2.2243371e-16 
    3200    24515.764       28 2.7715221e-15           14            2           12 2.2277317e-16 
    3205    24565.923       28 2.7806165e-15           14            2           12 2.2296264e-16 
    3210    24616.303       28 2.789893e-15           14            2           12 2.2330315e-16 
    3215    24667.221       28 2.7990503e-15           14            2           12 2.2349324e-16 
    3220    24717.434       28 2.8083904e-15           14            2           12 2.238348e-16 
    3225    24768.961       29 2.8176112e-15           14            2           13 2.2402551e-16 
    3230    24820.511       29 2.8270154e-15           14            2           13 2.2436813e-16 
    3235    24872.857       29 2.8362999e-15           14            2           13 2.2455945e-16 
    3240    24924.779       29 2.8457687e-15           14            2           13 2.2490313e-16 
    3245    24977.081       29 2.8551175e-15           14            2           13 2.2509507e-16 
    3250    25029.887       29 2.8646512e-15           14            2           13 2.254398e-16 
    3255    25082.008       29 2.8740648e-15           14            2           13 2.2563236e-16 
    3260    25131.225       29 2.8836639e-15           14            2           13 2.2597816e-16 
    3265    25180.884       29 2.8931427e-15           14            2           13 2.2617133e-16 
    3270    25231.286       29 2.9028076e-15           14            2           13 2.265182e-16 
    3275    25297.989       30 2.912352e-15           14            2           14 2.2671199e-16 
    3280    25374.225       30 2.9220833e-15           14            2           14 2.2705992e-16 
    3285    25445.115       30 2.9316938e-15           14            2           14 2.2725433e-16 
    3290    25518.303       30 2.9414918e-15           14            2           14 2.2760333e-16 
    3295    25589.706       30 2.9511689e-15           14            2           14 2.2779837e-16 
    3300    25667.974       30 2.9610342e-15           14            2           14 2.2814844e-16 
    3305    25739.376       30 2.9707783e-15           14            2           14 2.2834411e-16 
    3310    25809.192       30 2.9807113e-15           14            2           14 2.2869525e-16 
    3315    25878.694       30 2.9905229e-15           14            2           14 2.2889154e-16 
    3320    25954.013       30 3.000524e-15           14            2           14 2.2924376e-16 
    3325    26028.442       30 3.0104036e-15           14            2           14 2.2944068e-16 
    3330    26102.344       30 3.0204734e-15           14            2           14 2.2979398e-16 
    3335    26167.826       30 3.0304214e-15           14            2           14 2.2999152e-16 
    3340    26241.347       30 3.0405603e-15           14            2           14 2.303459e-16 
    3345    26318.342       30 3.0505772e-15           14            2           14 2.3054407e-16 
    3350     26385.31       30 3.0607857e-15           14            2           14 2.3089953e-16 
    3355    26441.104       30 3.0708719e-15           14            2           14 2.3109833e-16 
    3360    26496.827       30 3.0811505e-15           14            2           14 2.3145487e-16 
    3365    26552.761       30 3.0913067e-15           14            2           14 2.3165429e-16 
    3370    26608.812       30 3.1016558e-15           14            2           14 2.3201191e-16 
    3375    26667.697       30 3.1118823e-15           14            2           14 2.3221197e-16 
    3380    26730.471       30 3.1223025e-15           14            2           14 2.3257068e-16 
    3385    26788.314       30 3.1325998e-15           14            2           14 2.3277136e-16 
    3390    26844.616       30 3.1430916e-15           14            2           14 2.3313115e-16 
    3395      26900.9       30 3.1534602e-15           14            2           14 2.3333247e-16 
    3400    26957.411       30 3.164024e-15           14            2           14 2.3369335e-16 
    3405    27013.705       31 3.1744645e-15           15            2           14 2.3389529e-16 
    3410    27070.489       31 3.1851008e-15           15            2           14 2.3425726e-16 
    3415    27127.686       31 3.1956136e-15           15            2           14 2.3445984e-16 
    3420    27185.591       31 3.206323e-15           15            2           14 2.3482289e-16 
    3425    27242.254       31 3.2169086e-15           15            2           14 2.3502611e-16 
    3430    27298.938       31 3.2276915e-15           15            2           14 2.3539025e-16 
    3435    27355.664       31 3.2383505e-15           15            2           14 2.355941e-16 
    3440    27412.666       31 3.2492074e-15           15            2           14 2.3595933e-16 
    3445    27469.516       31 3.2599403e-15           15            2           14 2.3616381e-16 
    3450    27526.575       31 3.2708718e-15           15            2           14 2.3653015e-16 
    3455    27583.605       31 3.281679e-15           15            2           14 2.3673526e-16 
    3460    27640.716       31 3.2926856e-15           15            2           14 2.3710269e-16 
    3465    27698.029       31 3.3035676e-15           15            2           14 2.3730843e-16 
    3470    27755.374       31 3.3146498e-15           15            2           14 2.3767696e-16 
    3475    27812.765       31 3.3256073e-15           15            2           14 2.3788334e-16 
    3480     27870.31       31 3.3367656e-15           15            2           14 2.3825297e-16 
    3485    27927.811       31 3.347799e-15           15            2           14 2.3845999e-16 
    3490    27985.303       31 3.3590339e-15           15            2           14 2.3883071e-16 
    3495      28043.6       31 3.3701438e-15           15            2           14 2.3903837e-16 
    3500    28103.012       31 3.3814559e-15           15            2           14 2.3941019e-16 
    3505    28161.577       32 3.3926428e-15           16            2           14 2.3961849e-16 
    3510     28223.72       32 3.4040326e-15           16            2           14 2.3999141e-16 
    3515    28281.753       32 3.4152969e-15           16            2           14 2.4020035e-16 
    3520    28340.178       33 3.426765e-15           17            2           14 2.4057438e-16 
    3525     28398.32       33 3.4381075e-15           17            2           14 2.4078396e-16 
    3530    28456.119       33 3.4496543e-15           17            2           14 2.411591e-16 
    3535    28514.007       33 3.4610754e-15           17            2           14 2.4136931e-16 
    3540    28571.946       33 3.4727016e-15           17            2           14 2.4174556e-16 
    3545    28629.959       33 3.4842017e-15           17            2           14 2.4195642e-16 
    3550    28688.527       33 3.4959079e-15           17            2           14 2.4233378e-16 
    3555    28746.481       33 3.5074877e-15           17            2           14 2.4254529e-16 
    3560    28804.801       33 3.5192743e-15           17            2           14 2.4292379e-16 
    3565    28863.774       33 3.5309345e-15           17            2           14 2.4313595e-16 
    3570    28922.378       34 3.542802e-15           17            2           15 2.4351556e-16 
    3575    28980.637       34 3.5545429e-15           17            2           15 2.4372836e-16 
    3580    29039.219       34 3.5664921e-15           17            2           15 2.4410909e-16 
    3585    29097.676       34 3.5783144e-15           17            2           15 2.4432255e-16 
    3590     29156.38       34 3.5903456e-15           17            2           15 2.4470442e-16 
    3595    29214.972       34 3.6022499e-15           17            2           15 2.4491853e-16 
    3600    29275.096       34 3.6143639e-15           17            2           15 2.4530153e-16 
    3605     29334.13       34 3.6263506e-15           17            2           15 2.4551631e-16 
    3610    29393.419       34 3.6385479e-15           17            2           15 2.4590044e-16 
    3615    29452.508       34 3.6506178e-15           17            2           15 2.4611587e-16 
    3620    29512.043       35 3.6628989e-15           18            2           15 2.4650114e-16 
    3625    29571.029       35 3.6750525e-15           18            2           15 2.4671719e-16 
    3630    29630.544       35 3.687418e-15           18            2           15 2.471035e-16 
    3635    29690.255       35 3.6996557e-15           18            2           15 2.4732017e-16 
    3640    29750.294       35 3.7121062e-15           18            2           15 2.4770758e-16 
    3645    29809.339       35 3.7244288e-15           18            2           15 2.4792489e-16 
    3650    29869.626       35 3.7369649e-15           18            2           15 2.4831343e-16 
    3655      29929.8       35 3.7493729e-15           18            2           15 2.485314e-16 
    3660    29990.312       35 3.7619952e-15           18            2           15 2.4892107e-16 
    3665    30050.798       35 3.7744893e-15           18            2           15 2.491397e-16 
    3670    30111.491       35 3.7871984e-15           18            2           15 2.4953051e-16 
    3675    30172.292       35 3.799779e-15           18            2           15 2.497498e-16 
    3680    30233.154       35 3.8125756e-15           18            2           15 2.5014176e-16 
    3685     30293.98       35 3.8252434e-15           18            2           15 2.503617e-16 
    3690    30355.047       35 3.838128e-15           18            2           15 2.5075481e-16 
    3695    30416.048       35 3.8508837e-15           18            2           15 2.5097541e-16 
    3700    30477.333       35 3.8638568e-15           18            2           15 2.5136966e-16 
    3705    30538.364       35 3.876701e-15           18            2           15 2.5159093e-16 
    3710    30599.765       35 3.8897634e-15           18            2           15 2.5198633e-16 
    3715    30661.306       36 3.9026966e-15           18            2           16 2.5220826e-16 
    3720    30722.782       36 3.9158489e-15           18            2           16 2.5260482e-16 
    3725    30784.058       36 3.9288717e-15           18            2           16 2.5282741e-16 
    3730    30845.987       36 3.9421145e-15           18            2           16 2.5322511e-16 
    3735    30907.312       36 3.9552277e-15           18            2           16 2.5344838e-16 
    3740    30968.992       37 3.9685615e-15           18            2           17 2.5384723e-16 
    3745    31030.413       37 3.9817656e-15           18            2           17 2.5407116e-16 
    3750    31092.198       37 3.9951912e-15           18            2           17 2.5447117e-16 
    3755    31154.039       37 4.0084869e-15           18            2           17 2.5469577e-16 
    3760    31215.741       38 4.0220049e-15           18            2           18 2.5509694e-16 
    3765    31277.388       38 4.0353928e-15           18            2           18 2.553222e-16 
    3770    31338.999       38 4.0490038e-15           18            2           18 2.5572454e-16 
    3775    31400.926       38 4.0624846e-15           18            2           18 2.5595048e-16 
    3780    31463.016       38 4.0761893e-15           18            2           18 2.5635398e-16 
    3785    31524.929       38 4.0897635e-15           18            2           18 2.5658058e-16 
    3790    31586.955       38 4.1035625e-15           18            2           18 2.5698523e-16 
    3795    31649.112       39 4.1172309e-15           19            2           18 2.572125e-16 
    3800    31711.049       39 4.1311249e-15           19            2           18 2.5761832e-16 
    3805    31773.183       39 4.1448881e-15           19            2           18 2.5784627e-16 
    3810    31835.533       39 4.1588777e-15           19            2           18 2.5825326e-16 
    3815    31897.795       39 4.1727364e-15           19            2           18 2.5848187e-16 
    3820    31960.228       40 4.1868222e-15           20            2           18 2.5889004e-16 
    3825    32022.694       41 4.2007771e-15           20            3           18 2.5911933e-16 
    3830    32085.147       41 4.2149599e-15           20            3           18 2.5952867e-16 
    3835    32147.604       42 4.2290115e-15           20            3           19 2.5975864e-16 
    3840    32210.031       42 4.243292e-15           20            3           19 2.6016915e-16 
    3845     32272.63       42 4.257441e-15           20            3           19 2.603998e-16 
    3850    32335.188       42 4.2718198e-15           20            3           19 2.6081149e-16 
    3855    32397.622       42 4.286067e-15           20            3           19 2.6104282e-16 
    3860    32460.534       42 4.3005448e-15           20            3           19 2.6145569e-16 
    3865    32523.107       42 4.3148909e-15           20            3           19 2.616877e-16 
    3870     32585.76       42 4.3294683e-15           20            3           19 2.6210175e-16 
    3875     32648.81       43 4.3439139e-15           21            3           19 2.6233444e-16 
    3880    32711.723       43 4.3585917e-15           21            3           19 2.6274967e-16 
    3885    32775.626       43 4.3731375e-15           21            3           19 2.6298304e-16 
    3890    32838.943       43 4.3879164e-15           21            3           19 2.6339946e-16 
    3895    32901.723       43 4.4025631e-15           21            3           19 2.6363352e-16 
    3900    32965.036       43 4.4174437e-15           21            3           19 2.6405112e-16 
[...]
    4045    34820.481       45 4.8691636e-15           22            3           20 2.7361677e-16 
    4050    34885.614       46 4.8856584e-15           23            3           20 2.7405243e-16 
    4055    34950.671       46 4.9020188e-15           23            3           20 2.7429753e-16 
    4060    35017.583       46 4.9186273e-15           23            3           20 2.7473437e-16 
    4065     35082.26       46 4.9351013e-15           23            3           20 2.7498015e-16 
    4070    35147.277       46 4.9518243e-15           23            3           20 2.754182e-16 
    4075    35212.138       46 4.9684126e-15           23            3           20 2.7566467e-16 
    4080    35277.208       46 4.9852508e-15           23            3           20 2.7610394e-16 
    4085    35343.001       47 5.0019543e-15           24            3           20 2.7635111e-16 
    4090    35408.186       47 5.0189086e-15           24            3           20 2.767916e-16 
    4095    35473.261       47 5.035728e-15           24            3           20 2.7703948e-16 
    4100    35538.627       49 5.0527992e-15           24            3           22 2.7748119e-16 
    4105    35603.791       49 5.0697353e-15           24            3           22 2.7772977e-16 
    4110    35669.034       51 5.0869242e-15           25            3           23 2.7817272e-16 
    4115    35734.468       51 5.103978e-15           25            3           23 2.7842201e-16 
    4120     35800.44       52 5.1212854e-15           26            3           23 2.788662e-16 
    4125    35865.773       52 5.1384576e-15           26            3           23 2.791162e-16 
    4130    35931.762       52 5.1558843e-15           26            3           23 2.7956161e-16 
    4135    35997.268       52 5.1731757e-15           26            3           23 2.7981232e-16 
    4140    36062.864       53 5.1907226e-15           27            3           23 2.8025897e-16 
    4145    36129.129       53 5.2081339e-15           27            3           23 2.8051038e-16 
    4150     36196.76       53 5.2258018e-15           27            3           23 2.809583e-16 
    4155    36262.766       53 5.2433341e-15           27            3           23 2.8121045e-16 
    4160    36330.638       53 5.2611239e-15           27            3           23 2.8165963e-16 
    4165    36396.529       53 5.2787779e-15           27            3           23 2.8191249e-16 
    4170    36462.525       53 5.2966903e-15           27            3           23 2.8236292e-16 
    4175    36528.607       53 5.3144669e-15           27            3           23 2.826165e-16 
    4180    36595.684       53 5.3325029e-15           27            3           23 2.8306817e-16 
    4185    36663.796       53 5.3504029e-15           27            3           23 2.8332246e-16 
    4190    36730.315       54 5.3685633e-15           27            3           24 2.8377538e-16 
    4195    36796.431       54 5.3865876e-15           27            3           24 2.8403039e-16 
    4200    36862.954       54 5.4048732e-15           27            3           24 2.8448457e-16 
    4205    36929.344       54 5.4230227e-15           27            3           24 2.8474029e-16 
    4210    36995.622       54 5.4414345e-15           27            3           24 2.8519572e-16 
    4215    37061.807       54  5.45971e-15           27            3           24 2.8545216e-16 
    4220    37128.329       54 5.4782488e-15           27            3           24 2.8590885e-16 
    4225    37194.555       54 5.4966512e-15           27            3           24 2.8616601e-16 
    4230    37261.296       54 5.5153178e-15           27            3           24 2.8662395e-16 
    4235    37328.238       54 5.5338481e-15           27            3           24 2.8688183e-16 
    4240    37394.938       55 5.5526435e-15           27            3           25 2.8734104e-16 
    4245    37461.674       55 5.5713024e-15           27            3           25 2.8759964e-16 
    4250     37528.53       55 5.5902275e-15           27            3           25 2.8806011e-16 
    4255    37595.254       55 5.6090161e-15           27            3           25 2.8831944e-16 
    4260    37662.176       56 5.6280717e-15           28            3           25 2.8878117e-16 
    4265     37729.08       56 5.6469907e-15           28            3           25 2.8904122e-16 
    4270    37796.182       56 5.6661779e-15           28            3           25 2.8950422e-16 
    4275    37863.373       56 5.6852283e-15           28            3           25  2.89765e-16 
    4280    37930.965       56 5.7045479e-15           28            3           25 2.9022927e-16 
    4285    37998.568       56 5.7237306e-15           28            3           25 2.9049077e-16 
    4290    38066.368       56 5.7431835e-15           28            3           25 2.9095632e-16 
    4295    38133.917       56 5.7624995e-15           28            3           25 2.9121855e-16 
    4300    38201.744       56 5.7820866e-15           28            3           25 2.9168537e-16 
    4305    38269.295       57 5.8015367e-15           29            3           25 2.9194833e-16 
    4310    38337.074       57 5.821259e-15           29            3           25 2.9241643e-16 
    4315    38404.657       57 5.8408443e-15           29            3           25 2.9268012e-16 
    4320    38472.522       57 5.8607027e-15           29            3           25 2.931495e-16 
    4325    38540.303       57 5.880424e-15           29            3           25 2.9341393e-16 
    4330    38608.438       57 5.9004195e-15           29            3           25 2.9388459e-16 
    4335    38676.332       58 5.9202778e-15           30            3           25 2.9414975e-16 
    4340    38744.405       58 5.9404113e-15           30            3           25 2.946217e-16 
    4345    38812.405       58 5.9604076e-15           30            3           25 2.9488759e-16 
    4350    38880.545       58 5.9806801e-15           30            3           25 2.9536083e-16 
    4355    38948.486       58 6.0008152e-15           30            3           25 2.9562746e-16 
    4360     39016.97       59 6.0212277e-15           31            3           25 2.9610198e-16 
    4365    39085.168       60 6.0415026e-15           31            3           26 2.9636936e-16 
    4370     39153.77       60 6.062056e-15           31            3           26 2.968452e-16 
    4375    39222.313       60 6.0824718e-15           31            3           26 2.9711333e-16 
    4380    39290.626       61 6.1031671e-15           31            3           27 2.9759048e-16 
    4385    39360.376       61 6.1237247e-15           31            3           27 2.9785934e-16 
    4390    39430.145       61 6.1445628e-15           31            3           27 2.9833777e-16 
    4395    39498.275       61 6.1652632e-15           31            3           27 2.9860737e-16 
    4400    39566.662       61 6.1862452e-15           31            3           27 2.9908711e-16 
    4405     39635.07       61 6.2070894e-15           31            3           27 2.9935745e-16 
    4410    39703.635       62 6.2282163e-15           32            3           27 2.9983849e-16 
    4415    39772.116       62 6.2492054e-15           32            3           27 3.0010958e-16 
    4420    39841.021       62 6.2704782e-15           32            3           27 3.0059191e-16 
    4425    39909.659       62 6.2916132e-15           32            3           27 3.0086374e-16 
    4430     39978.64       62 6.3130328e-15           32            3           27 3.0134738e-16 
    4435    40048.205       62 6.3343146e-15           32            3           27 3.0161996e-16 
    4440    40117.397       62 6.3558823e-15           32            3           27 3.0210491e-16 
    4445    40186.337       62 6.3773119e-15           32            3           27 3.0237823e-16 
    4450    40255.501       62 6.3990285e-15           32            3           27 3.028645e-16 
    4455    40325.436       62 6.4206071e-15           32            3           27 3.0313858e-16 
    4460    40394.768       62 6.4424737e-15           32            3           27 3.0362616e-16 
    4465    40464.265       62 6.4642022e-15           32            3           27 3.0390099e-16 
    4470      40533.8       62 6.4862199e-15           32            3           27 3.043899e-16 
    4475    40603.293       62 6.5080994e-15           32            3           27 3.0466548e-16 
    4480    40672.961       62 6.5302691e-15           32            3           27 3.0515571e-16 
    4485    40742.366       62 6.5523007e-15           32            3           27 3.0543204e-16 
    4490    40812.198       62 6.5746236e-15           32            3           27 3.059236e-16 
    4495     40881.82       63 6.5968083e-15           32            3           28 3.0620069e-16 
    4500    40952.005       64 6.6192854e-15           33            3           28 3.0669358e-16 
    4505    41021.969       64 6.6416243e-15           33            3           28 3.0697143e-16 
    4510      41092.1       64 6.6642566e-15           33            3           28 3.0746565e-16 
    4515    41162.163       65 6.6867508e-15           33            3           29 3.0774426e-16 
    4520    41232.322       65 6.7095395e-15           33            3           29 3.0823981e-16 
    4525    41302.245       65  6.73219e-15           33            3           29 3.0851918e-16 
    4530    41373.101       65 6.7551362e-15           33            3           29 3.0901607e-16 
    4535     41443.49       65 6.7779442e-15           33            3           29 3.0929621e-16 
    4540    41514.637       65 6.8010489e-15           33            3           29 3.0979444e-16 
    4545    41584.846       66 6.8240154e-15           33            3           30 3.1007534e-16 
    4550    41655.288       66 6.8472798e-15           33            3           30 3.1057492e-16 
    4555    41725.642       66 6.8704059e-15           33            3           30 3.1085658e-16 
    4560    41796.156       66 6.8938311e-15           33            3           30 3.113575e-16 
    4565    41866.566       66 6.917118e-15           33            3           30 3.1163994e-16 
    4570    41937.206       66 6.9407051e-15           33            3           30 3.1214221e-16 
    4575    42007.754       66 6.9641538e-15           33            3           30 3.1242541e-16 
    4580    42078.423       66 6.9879039e-15           33            3           30 3.1292903e-16 
    4585    42148.816       68 7.0115156e-15           34            3           31 3.1321301e-16 
    4590    42219.816       68 7.0354299e-15           34            3           31 3.1371799e-16 
    4595    42290.854       68 7.0592057e-15           34            3           31 3.1400273e-16 
    4600    42361.631       68 7.0832853e-15           34            3           31 3.1450907e-16 
    4605     42432.32       68 7.1072265e-15           34            3           31 3.1479459e-16 
    4610    42503.236       68 7.1314725e-15           34            3           31 3.1530229e-16 
    4615     42574.06       68 7.1555801e-15           34            3           31 3.1558859e-16 
    4620    42645.799       69 7.1799937e-15           34            3           32 3.1609764e-16 
    4625    42716.755       69 7.2042689e-15           34            3           32 3.1638472e-16 
    4630    42788.182       69 7.2288513e-15           34            3           32 3.1689515e-16 
    4635    42859.554       69 7.2532952e-15           34            3           32  3.17183e-16 
    4640    42931.143       69 7.2780476e-15           34            3           32 3.176948e-16 
    4645    43002.506       70 7.3026615e-15           35            3           32 3.1798343e-16 
    4650    43074.114       70 7.327585e-15           35            3           32 3.1849661e-16 
    4655    43145.373       70 7.3523701e-15           35            3           32 3.1878602e-16 
    4660    43216.967       70 7.3774659e-15           35            3           32 3.1930057e-16 
    4665    43289.148       70 7.4024234e-15           35            3           32 3.1959077e-16 
    4670     43361.11       70 7.4276927e-15           35            3           32 3.201067e-16 
    4675    43433.233       70 7.4528237e-15           35            3           32 3.2039769e-16 
    4680    43505.157       70 7.4782678e-15           35            3           32 3.2091499e-16 
    4685    43577.059       70 7.5035736e-15           35            3           32 3.2120677e-16 
    4690    43649.396       71 7.5291936e-15           36            3           32 3.2172546e-16 
    4695    43721.334       71 7.5546753e-15           36            3           32 3.2201803e-16 
    4700    43793.408       71 7.5804726e-15           36            3           32 3.225381e-16 
    4705    43865.064       71 7.6061314e-15           36            3           32 3.2283146e-16 
    4710    43937.392       71 7.6321071e-15           36            3           32 3.2335293e-16 
    4715    44009.522       71 7.6579444e-15           36            3           32 3.2364708e-16 
    4720     44082.14       71 7.6840997e-15           36            3           32 3.2416994e-16 
    4725    44154.246       71 7.7101167e-15           36            3           32 3.2446489e-16 
    4730    44226.533       71 7.7364529e-15           36            3           32 3.2498915e-16 
    4735    44298.553       71 7.7626508e-15           36            3           32 3.2528489e-16 
    4740    44371.032       72 7.7891692e-15           37            3           32 3.2581055e-16 
    4745    44443.475       72 7.8155494e-15           37            3           32 3.2610708e-16 
    4750    44516.098       72 7.8422513e-15           37            3           32 3.2663414e-16 
    4755    44588.619       73 7.868815e-15           37            3           33 3.2693147e-16 
    4760    44661.212       73 7.8957016e-15           37            3           33 3.2745993e-16 
    4765    44733.515       73  7.92245e-15           37            3           33 3.2775805e-16 
    4770    44806.541       73 7.9495226e-15           37            3           33 3.2828792e-16 
    4775    44879.525       73 7.976457e-15           37            3           33 3.2858685e-16 
    4780    44952.845       73 8.0037169e-15           37            3           33 3.2911813e-16 
    4785    45025.829       73 8.0308387e-15           37            3           33 3.2941786e-16 
    4790    45099.229       73 8.0582872e-15           37            3           33 3.2995056e-16 
    4795     45172.59       73 8.0855976e-15           37            3           33 3.302511e-16 
    4800    45245.891       73 8.113236e-15           37            3           33 3.3078521e-16 
    4805    45319.144       73 8.1407364e-15           37            3           33 3.3108656e-16 
    4810    45392.662       73 8.168566e-15           37            3           33 3.316221e-16 
    4815    45465.776       73 8.1962577e-15           37            3           33 3.3192426e-16 
    4820    45539.477       74 8.2242799e-15           38            3           33 3.3246122e-16 
    4825    45612.669       74 8.2521642e-15           38            3           33 3.3276419e-16 
    4830    45686.754       74 8.2803804e-15           38            3           33 3.3330258e-16 
    4835    45760.458       74 8.3084586e-15           38            3           33 3.3360637e-16 
    4840    45836.147       75  8.33687e-15           39            3           33 3.3414619e-16 
    4845    45909.715       75 8.3651436e-15           39            3           33 3.3445079e-16 
    4850    45983.395       79 8.3937516e-15           41            3           35 3.3499205e-16 
    4855    46057.367       80 8.4222219e-15           42            3           35 3.3529747e-16 
    4860     46131.83       80 8.4510279e-15           42            3           35 3.3584017e-16 
    4865    46205.668       80 8.4796962e-15           42            3           35 3.361464e-16 
    4870    46280.194       81 8.5087017e-15           43            3           35 3.3669055e-16 
    4875     46354.15       82 8.5375695e-15           43            3           36 3.369976e-16 
    4880    46428.241       82 8.5667757e-15           43            3           36 3.3754319e-16 
    4885    46502.128       83 8.5958443e-15           44            3           36 3.3785107e-16 
    4890    46576.599       83 8.6252527e-15           44            3           36 3.383981e-16 
    4895    46650.863       83 8.6545237e-15           44            3           36 3.3870681e-16 
    4900    46725.463       83 8.6841358e-15           44            3           36 3.3925529e-16 
    4905    46800.401       84 8.7136105e-15           44            3           37 3.3956481e-16 
    4910    46875.295       84 8.7434276e-15           44            3           37 3.4011473e-16 
    4915    46949.601       84 8.7731075e-15           44            3           37 3.4042508e-16 
    4920    47025.025       85 8.803131e-15           44            3           38 3.4097645e-16 
    4925    47100.069       85 8.8330174e-15           44            3           38 3.4128762e-16 
    4930    47175.175       85 8.8632489e-15           44            3           38 3.4184045e-16 
    4935     47249.89       85 8.8933432e-15           44            3           38 3.4215244e-16 
    4940    47325.169       85 8.923784e-15           44            3           38 3.4270673e-16 
    4945     47399.92       85 8.9540878e-15           44            3           38 3.4301955e-16 
    4950    47475.135       86 8.9847393e-15           44            3           39 3.435753e-16 
    4955    47550.082       87 9.015254e-15           44            3           40 3.4388896e-16 
    4960    47625.464       87 9.0461178e-15           44            3           40 3.4444619e-16 
    4965    47700.427       87 9.0768448e-15           44            3           40 3.4476068e-16 
    4970    47775.715       87 9.1079224e-15           44            3           40 3.4531938e-16 
    4975    47850.967       87 9.1388633e-15           44            3           40 3.4563472e-16 
    4980    47926.695       87 9.170156e-15           44            3           40 3.461949e-16 
    4985    48001.432       87 9.2013122e-15           44            3           40 3.4651107e-16 
    4990    48076.929       87 9.2328217e-15           44            3           40 3.4707274e-16 
    4995    48152.257       87 9.2641947e-15           44            3           40 3.4738976e-16 
    5000    48228.601       87 9.2959224e-15           44            3           40 3.4795291e-16 
Loop time of 48228.6 on 1 procs for 5000 steps with 87 atoms

Performance: 322464.259 tau/day, 0.104 timesteps/s
99.9% CPU use with 1 MPI tasks x no OpenMP threads

MPI task timing breakdown:
Section |  min time  |  avg time  |  max time  |%varavg| %total
---------------------------------------------------------------
Pair    | 0.047098   | 0.047098   | 0.047098   |   0.0 |  0.00
Neigh   | 8.1181     | 8.1181     | 8.1181     |   0.0 |  0.02
Comm    | 0.061534   | 0.061534   | 0.061534   |   0.0 |  0.00
Output  | 0.030382   | 0.030382   | 0.030382   |   0.0 |  0.00
Modify  | 48220      | 48220      | 48220      |   0.0 | 99.98
Other   |            | 0.02114    |            |       |  0.00

Nlocal:    87 ave 87 max 87 min
Histogram: 1 0 0 0 0 0 0 0 0 0
Nghost:    0 ave 0 max 0 min
Histogram: 1 0 0 0 0 0 0 0 0 0
Neighs:    381 ave 381 max 381 min
Histogram: 1 0 0 0 0 0 0 0 0 0

Total # of neighbors = 381
Ave neighs/atom = 4.37931
Neighbor list builds = 5000
Dangerous builds = 0


Total wall time: 13:23:54
