  Granular Flow Simulation 

       3 atoms 
       3 atom types 
       4 nutrients

   0.0   1.0e-04  xlo xhi 
   0.0   1.0e-04  ylo yhi 
   0.0   1.0e-04  zlo zhi 

 Atoms

     1 1 9.66e-7 290 5e-5 0.3e-4 5e-7 9.66e-7 dead
     2 2 9.66e-7 290 5e-5 0.5e-4 5e-7 9.66e-7 hety
     3 3 9.66e-7 290 5e-5 0.7e-4 5e-7 9.66e-7 hetr


 Nutrients

     1 o2 l 3.13e-5 3.13e-5 3.13e-5 3.13e-5 3.13e-5 3.13e-5 3.13e-5
     2 go2 g 0 0 0 0 0 0 0
     3 h2o l 1 1 1 1 1 1 1
     4 h l 0 0 0 0 0 0 0

 Diffusion Coeffs
     
     o2 2e-9
     go2 0
     h2o 0
     h 0 

 Ks
     
     dead 0 0 0 0
     hety 9.38e-6 0 0 0
     hetr 1.88e-5 0 0 0

 Growth

     dead 0
     hety 0.000381111
     hetr 0.001524167

 Yield
    
     dead 0
     hety 0.0598373984
     hetr 0.0299186992
  
 Maintenance
 
     dead 0
     hety 0.00125
     hetr 0.00125

 eD
    
     dead 0
     hety 0
     hetr 0

 KLa
          
     o2 0
     go2 0
     h2o 0
     h 0 

 Decay

     dead 0
     hety 0.00056
     hetr 0.00056

 Dissipation

     dead 0
     hety 115
     hetr 145

 Catabolism Coeffs
       
     dead 0 0 0 0 
     hety -1 0 1 0
     hetr -1 0 1 0

 Anabolism Coeffs
         
     dead 0 0 0 0 
     hety 0 0 0 0
     hetr 0 0 0 0
 
 Decay Coeffs
           
     dead 0 0 0 0
     hety 0 0 0 0
     hetr 0 0 0 0
 
 Nutrient Energy

    o2 inf 16.4 inf inf inf 2
    go2 inf 0 inf inf inf 2
    h2o inf -237.18 -157.3 inf inf 2
    h inf 0 inf inf inf 2

 Type Energy

    dead inf -67 inf inf inf 2
    hety inf -67 inf inf inf 2
    hetr inf -67 inf inf inf 2

