  Granular Flow Simulation 

       45 atoms 
       2 atom types 
       10 nutrients

   0.0   6.0e-05  xlo xhi 
   0.0   1.0e-04  ylo yhi 
   0.0   1.0e-04  zlo zhi 

 Atoms

     1 1 1.2e-6 290 1e-5 1e-5 5e-7 1.2e-6 aob
     2 2 1.2e-6 290 1e-5 2e-5 5e-7 1.2e-6 nob
     3 1 1.2e-6 290 1e-5 3e-5 5e-7 1.2e-6 aob
     4 2 1.2e-6 290 1e-5 4e-5 5e-7 1.2e-6 nob
     5 1 1.2e-6 290 1e-5 5e-5 5e-7 1.2e-6 aob
     6 2 1.2e-6 290 1e-5 6e-5 5e-7 1.2e-6 nob
     7 1 1.2e-6 290 1e-5 7e-5 5e-7 1.2e-6 aob
     8 2 1.2e-6 290 1e-5 8e-5 5e-7 1.2e-6 nob
     9 1 1.2e-6 290 1e-5 9e-5 5e-7 1.2e-6 aob
     10 2 1.2e-6 290 2e-5 1e-5 5e-7 1.2e-6 nob
     11 1 1.2e-6 290 2e-5 2e-5 5e-7 1.2e-6 aob
     12 2 1.2e-6 290 2e-5 3e-5 5e-7 1.2e-6 nob
     13 1 1.2e-6 290 2e-5 4e-5 5e-7 1.2e-6 aob
     14 2 1.2e-6 290 2e-5 5e-5 5e-7 1.2e-6 nob
     15 1 1.2e-6 290 2e-5 6e-5 5e-7 1.2e-6 aob
     16 2 1.2e-6 290 2e-5 7e-5 5e-7 1.2e-6 nob
     17 1 1.2e-6 290 2e-5 8e-5 5e-7 1.2e-6 aob
     18 2 1.2e-6 290 2e-5 9e-5 5e-7 1.2e-6 nob
     19 1 1.2e-6 290 3e-5 1e-5 5e-7 1.2e-6 aob
     20 2 1.2e-6 290 3e-5 2e-5 5e-7 1.2e-6 nob
     21 1 1.2e-6 290 3e-5 3e-5 5e-7 1.2e-6 aob
     22 2 1.2e-6 290 3e-5 4e-5 5e-7 1.2e-6 nob
     23 1 1.2e-6 290 3e-5 5e-5 5e-7 1.2e-6 aob
     24 2 1.2e-6 290 3e-5 6e-5 5e-7 1.2e-6 nob
     25 1 1.2e-6 290 3e-5 7e-5 5e-7 1.2e-6 aob
     26 2 1.2e-6 290 3e-5 8e-5 5e-7 1.2e-6 nob
     27 1 1.2e-6 290 3e-5 9e-5 5e-7 1.2e-6 aob
     28 2 1.2e-6 290 4e-5 1e-5 5e-7 1.2e-6 nob
     29 1 1.2e-6 290 4e-5 2e-5 5e-7 1.2e-6 aob
     30 2 1.2e-6 290 4e-5 3e-5 5e-7 1.2e-6 nob
     31 1 1.2e-6 290 4e-5 4e-5 5e-7 1.2e-6 aob
     32 2 1.2e-6 290 4e-5 5e-5 5e-7 1.2e-6 nob
     33 1 1.2e-6 290 4e-5 6e-5 5e-7 1.2e-6 aob
     34 2 1.2e-6 290 4e-5 7e-5 5e-7 1.2e-6 nob
     35 1 1.2e-6 290 4e-5 8e-5 5e-7 1.2e-6 aob
     36 2 1.2e-6 290 4e-5 9e-5 5e-7 1.2e-6 nob
     37 1 1.2e-6 290 5e-5 1e-5 5e-7 1.2e-6 aob
     38 2 1.2e-6 290 5e-5 2e-5 5e-7 1.2e-6 nob
     39 1 1.2e-6 290 5e-5 3e-5 5e-7 1.2e-6 aob
     40 2 1.2e-6 290 5e-5 4e-5 5e-7 1.2e-6 nob
     41 1 1.2e-6 290 5e-5 5e-5 5e-7 1.2e-6 aob
     42 2 1.2e-6 290 5e-5 6e-5 5e-7 1.2e-6 nob
     43 1 1.2e-6 290 5e-5 7e-5 5e-7 1.2e-6 aob
     44 2 1.2e-6 290 5e-5 8e-5 5e-7 1.2e-6 nob
     45 1 1.2e-6 290 5e-5 9e-5 5e-7 1.2e-6 aob

 Nutrients

     1 nh3 l 0.002 0.002 0.002 0.002 0.002 0.002 0.002
     2 no2 l 1e-6 1e-6 1e-6 1e-6 1e-6 1e-6 1e-6
     3 no3 l 1e-20 1e-20 1e-20 1e-20 1e-20 1e-20 1e-20
     4 o2 l 2.81e-4 2.81e-4 2.81e-4 2.81e-4 2.81e-4 2.81e-4 2.81e-4
     5 co2 l 0.005 0.005 0.005 0.005 0.005 0.005 0.005
     6 go2 g 0.21 0.21 0.21 0.21 0.21 0.21 0.21
     7 gco2 g 3.09e-3 3.09e-3 3.09e-3 3.09e-3 3.09e-3 3.09e-3 3.09e-3
     8 gn2 g 0.787 0.787 0.787 0.787 0.787 0.787 0.787
     9 h2o l 1 1 1 1 1 1 1
     10 h l 0 0 0 0 0 0 0

 Diffusion Coeffs
     
     nh3 1.639e-9
     no2 1.7e-9
     no3 1.7e-9
     o2 2e-9
     co2 1.919e-9
     go2 0 
     gco2 0
     gn2 0
     h2o 0
     h 0 

 Ks
     
     aob 2e-06 0 0 9.38e-06 0 0 0 0 0 0
     nob 0 2.29e-04 0 3.44e-05 0 0 0 0 0 0

 Consumption Rate

     aob 0.003257289
     nob 0.038071429

 Yield
    
     aob 0.0836585366
     nob 0.023902439

 Maintenance
 
     aob 0
     nob 0

 eD
    
     aob 0.9
     nob 2.9

 Decay

     aob 0
     nob 0

 Catabolism Coeffs
         
     aob -1 1 0 -1.5 0 0 0 0 1 1
     nob 0 -1 1 -0.5 0 0 0 0 0 0

 Anabolism Coeffs
          
     aob -0.9 0.7 0 0 -1 0 0 0 1.1 -0.3
     nob 0 -2.9 2.7 0 -1 0 0 0 0.2 -1.2
 
 Decay Coeffs
           
     aob 0 0 0 0 1 0 0 0 0 0
     nob 0 0 0 0 1 0 0 0 0 0
 
 Nutrient Energy

    nh3 inf -79.37 -26.57 inf inf 3
    no2 inf -50.60 -32.20 inf inf 3
    no3 inf -103.70 -111.30 inf	inf 3
    o2 inf 16.4 inf inf inf 2
    co2 -386.00	-623.16	-586.85	-527.80	inf 3
    go2 inf 0 inf inf inf 2
    gco2 inf -394.36 inf inf inf 2
    gn2 inf 0 inf inf inf 2
    h2o inf -237.18 -157.3 inf inf 2
    h inf 0 inf inf inf 2

 Type Energy

    aob inf -67 inf inf inf 2
    nob inf -67 inf inf inf 2

 Dissipation

    aob 3500
    nob 3500

 Nutrient Charge
  
    nh3 na 1 0 na na
    no2 na 0 -1 na na
    no3 na 0 -1 na na
    o2 na 0 na na na
    co2 0 0 -1 -2 na
    go2 na 0 na na na
    gco2 na 0 na na na
    gn2 na 0 na na na
    h2o na 0 -1 na na
    h na 1 na na na

 Type Charge
  
    aob na 0 na na na
    nob na 0 na na na
