LAMMPS data file for polygons: cubes, moment of inertia I = m edge^2/ 6
2 atoms
2 bodies
1 atom types

   0   50  xlo xhi 
   0   50  ylo yhi 
   0   10  zlo zhi 

Atoms

1 1 1 1 23 24 2.1
2 1 1 1 25 23 2.5

Bodies

1 3 13
2 1 0
1.333 0 1.333 0 0 0
4 0 0
-4 0 0
1
2 3 13
2 1 0
1.333 0 1.333 0 0 0
0 6 0
0 -6 0
1




