LAMMPS data file for polygons: cubes, moment of inertia I = m edge^2/ 6
2 atoms
2 bodies
1 atom types

   0   50e-6  xlo xhi 
   0   50e-6  ylo yhi 
   0   10e-6  zlo zhi 

Atoms

1 1 1 7.853982e-15 23e-6 24e-6 2.1e-6
2 1 1 7.853982e-15 25e-6 23e-6 2.5e-6

Bodies

1 3 13
2 1 0
4.11413e-22 0 4.11413e-22 0 0 0
4e-6 0 0
-4e-6 0 0
1e-6
2 3 13
2 1 0
4.11413e-22 0 4.11413e-22 0 0 0
0 6e-6 0
0 -6e-6 0
1e-6




