LAMMPS data file for polygons: cubes, moment of inertia I = m edge^2/ 6
1 atoms
1 bodies
1 atom types
-6 6 xlo xhi
-6 6 ylo yhi
-6 6 zlo zhi

Atoms

1 1 1 1 1.5 1.5 1.5

Bodies

1 3 13
2 1 1
0 0 0 0 0 0
-3 1 0
2 0 0
1

