LAMMPS (5 Nov 2016)
# NUFEB simulation

units si
atom_style      bio
atom_modify     map array sort 1000 5.0e-6
boundary        pp pp ff
newton          off
processors 2 1 2

comm_modify     vel yes

read_data_bio atom.in
  orthogonal box = (0 0 0) to (0.0004 3e-05 0.0006)
  2 by 1 by 2 MPI processor grid
  reading atoms ...
  0 atoms
  5 nutrients

group HET type 1
0 atoms in group HET
group AOB type 2
0 atoms in group AOB

variable  x equal 40
variable  y equal 3
variable  z equal 1

lattice sc 2e-5 origin 0.75 0.5 0.5
Lattice spacing in x,y,z = 2e-05 2e-05 2e-05
region reg block 0 $x 0 $y 0 $z
region reg block 0 40 0 $y 0 $z
region reg block 0 40 0 3 0 $z
region reg block 0 40 0 3 0 1
create_atoms 1 random 100 31241231 reg
Created 100 atoms

#lattice sc 2e-5 origin 0.25 0.5 0.5
region reg2 block 0 $x 0 $y 0 $z
region reg2 block 0 40 0 $y 0 $z
region reg2 block 0 40 0 3 0 $z
region reg2 block 0 40 0 3 0 1
create_atoms 2 random 100 766125 reg
Created 100 atoms

neighbor        5e-7 bin

set type 1 diameter 9.5e-6
  100 settings made for diameter
set type 1 density 15
  100 settings made for density
set type 2 diameter 9.5e-6
  100 settings made for diameter
set type 2 density 15
  100 settings made for density

neigh_modify    delay 0 one 2000

##############Define DEM Variables&Commands##############

pair_style  gran/hooke/history 1.e-4 NULL 1.e-5 NULL 0.0 1
pair_coeff  * *

timestep 720

variable kanc equal 50

fix 1 all nve/limit 1e-7
fix fv all viscous 1e-5

fix zw all wall/gran hooke/history 2000 NULL 500.0 NULL 1.5 0 zplane  0.0  6e-04

fix zwa all walladh v_kanc zplane  0.0   6e-04

variable ke equal 5e+10
fix j1 all epsadh 1 v_ke 1

##############Define IBm Variables##############

#EPS density, ratio variables and division diameter
variable EPSdens equal 30
variable EPSratio equal 1.25
variable divDia equal 1e-5

#kinetics variables
variable etaHET equal 0.0
variable diffT equal 1e-4
variable tol equal 1e-7
variable layer equal 0

##############Define IBm Commands##############

fix k1 all kinetics 1 40 3 60 v_diffT v_layer niter -1 demflag 0
fix kgm all kinetics/growth/monod v_EPSdens v_etaHET
fix g1 all kinetics/diffusion v_tol pp pp nd kg bulk 2.31e-7 1.25e-3 0.1
fix d1 all divide 1 v_EPSdens v_divDia 31231 demflag 0
fix vf1 all verify 1 bm3 demflag 0

##############Simulation Output##############

compute myHeight all avg_height
compute myMass all biomass
compute myNtype all ntypes

dump du0 all bio 5010 biomass ntypes bulk
dump		id all custom 120100 snapshot.bubblemd id type diameter x y z
thermo_style    custom step cpu atoms biomass c_myHeight c_myNtype[*]
thermo          1001
thermo_modify   lost warn

##############Two-loops Run##############

run 3600 pre no post no every 1 "fix_modify k1 demflag 1" "fix_modify d1 demflag 1" "fix_modify vf1 demflag 1" "timestep 0.1" "run 1000 pre no post no" "timestep 720" "fix_modify k1 demflag 0" "fix_modify d1 demflag 0" "fix_modify vf1 demflag 0"
WARNING: EPS is not defined in fix_kinetics/kinetics/monod (../fix_bio_kinetics_monod.cpp:253)
ae = 3.030000e+02, top = 2.436433e-05, base = 4.783087e-06, ave_h = 9.922097e-06 
Neighbor list info ...
  3 neighbor list requests
  update every 1 steps, delay 0 steps, check yes
  max neighbors/atom: 2000, page size: 100000
  master list distance cutoff = 1e-05
  ghost atom cutoff = 1e-05
  binsize = 5e-06 -> bins = 80 6 120
Memory usage per processor = 8.72826 Mbytes
Step CPU Atoms biomass c_myHeight c_myNtype[1] c_myNtype[2] c_myNtype[3] 
       0            0      200 1.3467615e-12 1.2194212e-05            0          100          100 
number of iterations: 8327 
maxz = 1.969727e-05 
S-sub-bulk = 2.969203e-02
S-sub-base = 2.991157e-02
S-nh4-bulk = 5.720675e-03
S-nh4-base = 5.953180e-03

       1    1.0734231      200 1.3829119e-12 1.2322639e-05            0          100          100 
Loop time of 1.07344 on 4 procs for 1 steps with 200 atoms

99.9% CPU use with 4 MPI tasks x no OpenMP threads
fix_modify k1 demflag 1
fix_modify d1 demflag 1
fix_modify vf1 demflag 1
timestep 0.1
run 1000 pre no post no
Step CPU Atoms biomass c_myHeight c_myNtype[1] c_myNtype[2] c_myNtype[3] 
       1            0      200 1.3829119e-12 1.2322639e-05            0          100          100 
    1001  0.024773121      200 1.3829119e-12 1.6033433e-05            0          100          100 
Loop time of 0.0247907 on 4 procs for 1000 steps with 200 atoms

100.0% CPU use with 4 MPI tasks x no OpenMP threads
timestep 720
fix_modify k1 demflag 0
fix_modify d1 demflag 0
fix_modify vf1 demflag 0
Step CPU Atoms biomass c_myHeight c_myNtype[1] c_myNtype[2] c_myNtype[3] 
    1001            0      200 1.3829119e-12 1.6033433e-05            0          100          100 
number of iterations: 11973 
maxz = 2.349332e-05 
S-sub-bulk = 2.941309e-02
S-sub-base = 2.960848e-02
S-nh4-bulk = 5.476530e-03
S-nh4-base = 5.679074e-03

    1002   0.58376908      200 1.4201631e-12  1.61201e-05            0          100          100 
Loop time of 0.583783 on 4 procs for 1 steps with 200 atoms

100.0% CPU use with 4 MPI tasks x no OpenMP threads
fix_modify k1 demflag 1
fix_modify d1 demflag 1
fix_modify vf1 demflag 1
timestep 0.1
run 1000 pre no post no
Step CPU Atoms biomass c_myHeight c_myNtype[1] c_myNtype[2] c_myNtype[3] 
    1002            0      200 1.4201631e-12  1.61201e-05            0          100          100 
    2002  0.018968105      200 1.4201631e-12 1.6128712e-05            0          100          100 
Loop time of 0.0189828 on 4 procs for 1000 steps with 200 atoms

100.0% CPU use with 4 MPI tasks x no OpenMP threads
timestep 720
fix_modify k1 demflag 0
fix_modify d1 demflag 0
fix_modify vf1 demflag 0
Step CPU Atoms biomass c_myHeight c_myNtype[1] c_myNtype[2] c_myNtype[3] 
    2002            0      200 1.4201631e-12 1.6128712e-05            0          100          100 
number of iterations: 11746 
maxz = 2.339796e-05 
S-sub-bulk = 2.915888e-02
S-sub-base = 2.932537e-02
S-nh4-bulk = 5.262930e-03
S-nh4-base = 5.435339e-03

    2003   0.53518915      200 1.4585519e-12 1.6152318e-05            0          100          100 
Loop time of 0.535205 on 4 procs for 1 steps with 200 atoms

100.0% CPU use with 4 MPI tasks x no OpenMP threads
fix_modify k1 demflag 1
fix_modify d1 demflag 1
fix_modify vf1 demflag 1
timestep 0.1
run 1000 pre no post no
Step CPU Atoms biomass c_myHeight c_myNtype[1] c_myNtype[2] c_myNtype[3] 
    2003            0      200 1.4585519e-12 1.6152318e-05            0          100          100 
    3003  0.019124031      200 1.4585519e-12 1.6183037e-05            0          100          100 
Loop time of 0.0191408 on 4 procs for 1000 steps with 200 atoms

100.0% CPU use with 4 MPI tasks x no OpenMP threads
timestep 720
fix_modify k1 demflag 0
fix_modify d1 demflag 0
fix_modify vf1 demflag 0
Step CPU Atoms biomass c_myHeight c_myNtype[1] c_myNtype[2] c_myNtype[3] 
    3003            0      200 1.4585519e-12 1.6183037e-05            0          100          100 
number of iterations: 11479 
maxz = 2.349259e-05 
S-sub-bulk = 2.892562e-02
S-sub-base = 2.906834e-02
S-nh4-bulk = 5.075730e-03
S-nh4-base = 5.221398e-03

    3004   0.51900077      200 1.4981246e-12 1.6254427e-05            0          100          100 
Loop time of 0.519017 on 4 procs for 1 steps with 200 atoms

100.0% CPU use with 4 MPI tasks x no OpenMP threads
fix_modify k1 demflag 1
fix_modify d1 demflag 1
fix_modify vf1 demflag 1
timestep 0.1
run 1000 pre no post no
Step CPU Atoms biomass c_myHeight c_myNtype[1] c_myNtype[2] c_myNtype[3] 
    3004            0      200 1.4981246e-12 1.6254427e-05            0          100          100 
    4004  0.019172907      200 1.4981246e-12 1.6501316e-05            0          100          100 
Loop time of 0.0191914 on 4 procs for 1000 steps with 200 atoms

100.0% CPU use with 4 MPI tasks x no OpenMP threads
timestep 720
fix_modify k1 demflag 0
fix_modify d1 demflag 0
fix_modify vf1 demflag 0
Step CPU Atoms biomass c_myHeight c_myNtype[1] c_myNtype[2] c_myNtype[3] 
    4004            0      200 1.4981246e-12 1.6501316e-05            0          100          100 
number of iterations: 11246 
maxz = 2.576982e-05 
S-sub-bulk = 2.871000e-02
S-sub-base = 2.883285e-02
S-nh4-bulk = 4.911324e-03
S-nh4-base = 5.033849e-03

    4005   0.52667499      300 1.5389293e-12 1.7326831e-05            0          200          100 
Loop time of 0.526689 on 4 procs for 1 steps with 300 atoms

100.0% CPU use with 4 MPI tasks x no OpenMP threads
fix_modify k1 demflag 1
fix_modify d1 demflag 1
fix_modify vf1 demflag 1
timestep 0.1
run 1000 pre no post no
Step CPU Atoms biomass c_myHeight c_myNtype[1] c_myNtype[2] c_myNtype[3] 
    4005            0      300 1.5389293e-12 1.7326831e-05            0          200          100 
    5005  0.033898115      300 1.5389293e-12 1.9172585e-05            0          200          100 
Loop time of 0.0339234 on 4 procs for 1000 steps with 300 atoms

100.0% CPU use with 4 MPI tasks x no OpenMP threads
timestep 720
fix_modify k1 demflag 0
fix_modify d1 demflag 0
fix_modify vf1 demflag 0
Step CPU Atoms biomass c_myHeight c_myNtype[1] c_myNtype[2] c_myNtype[3] 
    5005            0      300 1.5389293e-12 1.9172585e-05            0          200          100 
number of iterations: 10976 
maxz = 2.757418e-05 
S-sub-bulk = 2.850913e-02
S-sub-base = 2.862047e-02
S-nh4-bulk = 4.766560e-03
S-nh4-base = 4.870353e-03

    5006   0.54993796      300 1.5810176e-12 1.9135574e-05            0          200          100 
Loop time of 0.549954 on 4 procs for 1 steps with 300 atoms

100.0% CPU use with 4 MPI tasks x no OpenMP threads
fix_modify k1 demflag 1
fix_modify d1 demflag 1
fix_modify vf1 demflag 1
timestep 0.1
run 1000 pre no post no
Step CPU Atoms biomass c_myHeight c_myNtype[1] c_myNtype[2] c_myNtype[3] 
    5006            0      300 1.5810176e-12 1.9135574e-05            0          200          100 
    6006  0.030790091      300 1.5810176e-12 1.9129781e-05            0          200          100 
Loop time of 0.0308082 on 4 procs for 1000 steps with 300 atoms

100.0% CPU use with 4 MPI tasks x no OpenMP threads
timestep 720
fix_modify k1 demflag 0
fix_modify d1 demflag 0
fix_modify vf1 demflag 0
Step CPU Atoms biomass c_myHeight c_myNtype[1] c_myNtype[2] c_myNtype[3] 
    6006            0      300 1.5810176e-12 1.9129781e-05            0          200          100 
number of iterations: 17508 
maxz = 2.764248e-05 
S-sub-bulk = 2.832071e-02
S-sub-base = 2.836400e-02
S-nh4-bulk = 4.639178e-03
S-nh4-base = 4.700503e-03

    6007    1.1350949      300 1.6244062e-12 1.9227234e-05            0          200          100 
Loop time of 1.13511 on 4 procs for 1 steps with 300 atoms

100.0% CPU use with 4 MPI tasks x no OpenMP threads
fix_modify k1 demflag 1
fix_modify d1 demflag 1
fix_modify vf1 demflag 1
timestep 0.1
run 1000 pre no post no
Step CPU Atoms biomass c_myHeight c_myNtype[1] c_myNtype[2] c_myNtype[3] 
    6007            0      300 1.6244062e-12 1.9227234e-05            0          200          100 
    7007  0.033284903      300 1.6244062e-12 1.9431973e-05            0          200          100 
Loop time of 0.0333042 on 4 procs for 1000 steps with 300 atoms

100.0% CPU use with 4 MPI tasks x no OpenMP threads
timestep 720
fix_modify k1 demflag 0
fix_modify d1 demflag 0
fix_modify vf1 demflag 0
Step CPU Atoms biomass c_myHeight c_myNtype[1] c_myNtype[2] c_myNtype[3] 
    7007            0      300 1.6244062e-12 1.9431973e-05            0          200          100 
number of iterations: 15802 
maxz = 2.771203e-05 
S-sub-bulk = 2.814235e-02
S-sub-base = 2.817042e-02
S-nh4-bulk = 4.526352e-03
S-nh4-base = 4.572536e-03

    7008   0.91507816      300 1.6691769e-12 1.9297665e-05            0          200          100 
Loop time of 0.915095 on 4 procs for 1 steps with 300 atoms

100.0% CPU use with 4 MPI tasks x no OpenMP threads
fix_modify k1 demflag 1
fix_modify d1 demflag 1
fix_modify vf1 demflag 1
timestep 0.1
run 1000 pre no post no
Step CPU Atoms biomass c_myHeight c_myNtype[1] c_myNtype[2] c_myNtype[3] 
    7008            0      300 1.6691769e-12 1.9297665e-05            0          200          100 
    8008  0.031795979      300 1.6691769e-12 1.9543927e-05            0          200          100 
Loop time of 0.0318124 on 4 procs for 1000 steps with 300 atoms

100.0% CPU use with 4 MPI tasks x no OpenMP threads
timestep 720
fix_modify k1 demflag 0
fix_modify d1 demflag 0
fix_modify vf1 demflag 0
Step CPU Atoms biomass c_myHeight c_myNtype[1] c_myNtype[2] c_myNtype[3] 
    8008            0      300 1.6691769e-12 1.9543927e-05            0          200          100 
number of iterations: 15544 
maxz = 2.764248e-05 
S-sub-bulk = 2.797215e-02
S-sub-base = 2.798677e-02
S-nh4-bulk = 4.426038e-03
S-nh4-base = 4.459354e-03

    8009   0.91275406      300 1.7153842e-12 1.9516285e-05            0          200          100 
Loop time of 0.912768 on 4 procs for 1 steps with 300 atoms

99.9% CPU use with 4 MPI tasks x no OpenMP threads
fix_modify k1 demflag 1
fix_modify d1 demflag 1
fix_modify vf1 demflag 1
timestep 0.1
run 1000 pre no post no
Step CPU Atoms biomass c_myHeight c_myNtype[1] c_myNtype[2] c_myNtype[3] 
    8009            0      300 1.7153842e-12 1.9516285e-05            0          200          100 
    9009  0.038397074      300 1.7153842e-12 1.9609541e-05            0          200          100 
Loop time of 0.0384181 on 4 procs for 1000 steps with 300 atoms

100.0% CPU use with 4 MPI tasks x no OpenMP threads
timestep 720
fix_modify k1 demflag 0
fix_modify d1 demflag 0
fix_modify vf1 demflag 0
Step CPU Atoms biomass c_myHeight c_myNtype[1] c_myNtype[2] c_myNtype[3] 
    9009            0      300 1.7153842e-12 1.9609541e-05            0          200          100 
number of iterations: 15338 
maxz = 2.786065e-05 
S-sub-bulk = 2.780840e-02
S-sub-base = 2.781092e-02
S-nh4-bulk = 4.336474e-03
S-nh4-base = 4.358408e-03

    9010   0.93500113      300 1.763084e-12 1.9644675e-05            0          200          100 
Loop time of 0.935023 on 4 procs for 1 steps with 300 atoms

99.9% CPU use with 4 MPI tasks x no OpenMP threads
fix_modify k1 demflag 1
fix_modify d1 demflag 1
fix_modify vf1 demflag 1
timestep 0.1
run 1000 pre no post no
Step CPU Atoms biomass c_myHeight c_myNtype[1] c_myNtype[2] c_myNtype[3] 
    9010            0      300 1.763084e-12 1.9644675e-05            0          200          100 
   10010  0.037105083      300 1.763084e-12 1.9572836e-05            0          200          100 
Loop time of 0.0371252 on 4 procs for 1000 steps with 300 atoms

100.0% CPU use with 4 MPI tasks x no OpenMP threads
timestep 720
fix_modify k1 demflag 0
fix_modify d1 demflag 0
fix_modify vf1 demflag 0
Step CPU Atoms biomass c_myHeight c_myNtype[1] c_myNtype[2] c_myNtype[3] 
   10010            0      300 1.763084e-12 1.9572836e-05            0          200          100 
number of iterations: 15197 
maxz = 2.778901e-05 
S-sub-bulk = 2.764963e-02
S-sub-base = 2.764154e-02
S-nh4-bulk = 4.256129e-03
S-nh4-base = 4.268455e-03

   10011   0.92913198      300 1.8123339e-12 1.9607136e-05            0          200          100 
Loop time of 0.92915 on 4 procs for 1 steps with 300 atoms

100.0% CPU use with 4 MPI tasks x no OpenMP threads
fix_modify k1 demflag 1
fix_modify d1 demflag 1
fix_modify vf1 demflag 1
timestep 0.1
run 1000 pre no post no
Step CPU Atoms biomass c_myHeight c_myNtype[1] c_myNtype[2] c_myNtype[3] 
   10011            0      300 1.8123339e-12 1.9607136e-05            0          200          100 
   11011  0.035507202      300 1.8123339e-12 1.9667115e-05            0          200          100 
Loop time of 0.0355278 on 4 procs for 1000 steps with 300 atoms

100.0% CPU use with 4 MPI tasks x no OpenMP threads
timestep 720
fix_modify k1 demflag 0
fix_modify d1 demflag 0
fix_modify vf1 demflag 0
Step CPU Atoms biomass c_myHeight c_myNtype[1] c_myNtype[2] c_myNtype[3] 
   11011            0      300 1.8123339e-12 1.9667115e-05            0          200          100 
number of iterations: 15071 
maxz = 2.785195e-05 
S-sub-bulk = 2.749453e-02
S-sub-base = 2.747686e-02
S-nh4-bulk = 4.183685e-03
S-nh4-base = 4.187978e-03

   11012   0.88159084      300 1.8631933e-12 1.9695277e-05            0          200          100 
Loop time of 0.881611 on 4 procs for 1 steps with 300 atoms

99.9% CPU use with 4 MPI tasks x no OpenMP threads
fix_modify k1 demflag 1
fix_modify d1 demflag 1
fix_modify vf1 demflag 1
timestep 0.1
run 1000 pre no post no
Step CPU Atoms biomass c_myHeight c_myNtype[1] c_myNtype[2] c_myNtype[3] 
   11012            0      300 1.8631933e-12 1.9695277e-05            0          200          100 
   12012  0.052325964      300 1.8631933e-12 2.0124447e-05            0          200          100 
Loop time of 0.0523522 on 4 procs for 1000 steps with 300 atoms

100.0% CPU use with 4 MPI tasks x no OpenMP threads
timestep 720
fix_modify k1 demflag 0
fix_modify d1 demflag 0
fix_modify vf1 demflag 0
Step CPU Atoms biomass c_myHeight c_myNtype[1] c_myNtype[2] c_myNtype[3] 
   12012            0      300 1.8631933e-12 2.0124447e-05            0          200          100 
number of iterations: 15003 
maxz = 2.925044e-05 
S-sub-bulk = 2.734196e-02
S-sub-base = 2.731470e-02
S-nh4-bulk = 4.117997e-03
S-nh4-base = 4.113910e-03

   12013   0.91474295      400 1.9157226e-12 2.1470168e-05            0          200          200 
Loop time of 0.914761 on 4 procs for 1 steps with 400 atoms

100.0% CPU use with 4 MPI tasks x no OpenMP threads
fix_modify k1 demflag 1
fix_modify d1 demflag 1
fix_modify vf1 demflag 1
timestep 0.1
run 1000 pre no post no
Step CPU Atoms biomass c_myHeight c_myNtype[1] c_myNtype[2] c_myNtype[3] 
   12013            0      400 1.9157226e-12 2.1470168e-05            0          200          200 
   13013  0.053364992      400 1.9157226e-12 2.2332964e-05            0          200          200 
Loop time of 0.0533862 on 4 procs for 1000 steps with 400 atoms

100.0% CPU use with 4 MPI tasks x no OpenMP threads
timestep 720
fix_modify k1 demflag 0
fix_modify d1 demflag 0
fix_modify vf1 demflag 0
Step CPU Atoms biomass c_myHeight c_myNtype[1] c_myNtype[2] c_myNtype[3] 
   13013            0      400 1.9157226e-12 2.2332964e-05            0          200          200 
number of iterations: 14895 
maxz = 3.257726e-05 
S-sub-bulk = 2.719086e-02
S-sub-base = 2.715892e-02
S-nh4-bulk = 4.058026e-03
S-nh4-base = 4.050206e-03

   13014   0.90014482      400 1.9699889e-12 2.2279575e-05            0          200          200 
Loop time of 0.900162 on 4 procs for 1 steps with 400 atoms

100.0% CPU use with 4 MPI tasks x no OpenMP threads
fix_modify k1 demflag 1
fix_modify d1 demflag 1
fix_modify vf1 demflag 1
timestep 0.1
run 1000 pre no post no
Step CPU Atoms biomass c_myHeight c_myNtype[1] c_myNtype[2] c_myNtype[3] 
   13014            0      400 1.9699889e-12 2.2279575e-05            0          200          200 
   14014   0.04946804      400 1.9699889e-12 2.2435384e-05            0          200          200 
Loop time of 0.049489 on 4 procs for 1000 steps with 400 atoms

100.0% CPU use with 4 MPI tasks x no OpenMP threads
timestep 720
fix_modify k1 demflag 0
fix_modify d1 demflag 0
fix_modify vf1 demflag 0
Step CPU Atoms biomass c_myHeight c_myNtype[1] c_myNtype[2] c_myNtype[3] 
   14014            0      400 1.9699889e-12 2.2435384e-05            0          200          200 
number of iterations: 14999 
maxz = 3.248075e-05 
S-sub-bulk = 2.704036e-02
S-sub-base = 2.699926e-02
S-nh4-bulk = 4.003010e-03
S-nh4-base = 3.989700e-03

   14015   0.85058403      400 2.0260514e-12 2.255309e-05            0          200          200 
Loop time of 0.850604 on 4 procs for 1 steps with 400 atoms

100.0% CPU use with 4 MPI tasks x no OpenMP threads
fix_modify k1 demflag 1
fix_modify d1 demflag 1
fix_modify vf1 demflag 1
timestep 0.1
run 1000 pre no post no
Step CPU Atoms biomass c_myHeight c_myNtype[1] c_myNtype[2] c_myNtype[3] 
   14015            0      400 2.0260514e-12 2.255309e-05            0          200          200 
   15015  0.056710005      400 2.0260514e-12 2.259464e-05            0          200          200 
Loop time of 0.0567403 on 4 procs for 1000 steps with 400 atoms

100.0% CPU use with 4 MPI tasks x no OpenMP threads
timestep 720
fix_modify k1 demflag 0
fix_modify d1 demflag 0
fix_modify vf1 demflag 0
Step CPU Atoms biomass c_myHeight c_myNtype[1] c_myNtype[2] c_myNtype[3] 
   15015            0      400 2.0260514e-12 2.259464e-05            0          200          200 
number of iterations: 14949 
maxz = 3.257281e-05 
S-sub-bulk = 2.688964e-02
S-sub-base = 2.684156e-02
S-nh4-bulk = 3.952209e-03
S-nh4-base = 3.934380e-03

   15016   0.87323809      400 2.0839775e-12 2.252778e-05            0          200          200 
Loop time of 0.873255 on 4 procs for 1 steps with 400 atoms

99.9% CPU use with 4 MPI tasks x no OpenMP threads
fix_modify k1 demflag 1
fix_modify d1 demflag 1
fix_modify vf1 demflag 1
timestep 0.1
run 1000 pre no post no
Step CPU Atoms biomass c_myHeight c_myNtype[1] c_myNtype[2] c_myNtype[3] 
   15016            0      400 2.0839775e-12 2.252778e-05            0          200          200 
   16016   0.04923892      400 2.0839775e-12 2.2836578e-05            0          200          200 
Loop time of 0.0492539 on 4 procs for 1000 steps with 400 atoms

100.0% CPU use with 4 MPI tasks x no OpenMP threads
timestep 720
fix_modify k1 demflag 0
fix_modify d1 demflag 0
fix_modify vf1 demflag 0
Step CPU Atoms biomass c_myHeight c_myNtype[1] c_myNtype[2] c_myNtype[3] 
   16016            0      400 2.0839775e-12 2.2836578e-05            0          200          200 
number of iterations: 14996 
maxz = 3.248075e-05 
S-sub-bulk = 2.673796e-02
S-sub-base = 2.668287e-02
S-nh4-bulk = 3.904996e-03
S-nh4-base = 3.883259e-03

   16017   0.84232688      400 2.143835e-12 2.3014597e-05            0          200          200 
Loop time of 0.84234 on 4 procs for 1 steps with 400 atoms

100.0% CPU use with 4 MPI tasks x no OpenMP threads
fix_modify k1 demflag 1
fix_modify d1 demflag 1
fix_modify vf1 demflag 1
timestep 0.1
run 1000 pre no post no
Step CPU Atoms biomass c_myHeight c_myNtype[1] c_myNtype[2] c_myNtype[3] 
   16017            0      400 2.143835e-12 2.3014597e-05            0          200          200 
   17017  0.056993008      400 2.143835e-12 2.3201784e-05            0          200          200 
Loop time of 0.0570145 on 4 procs for 1000 steps with 400 atoms

100.0% CPU use with 4 MPI tasks x no OpenMP threads
timestep 720
fix_modify k1 demflag 0
fix_modify d1 demflag 0
fix_modify vf1 demflag 0
Step CPU Atoms biomass c_myHeight c_myNtype[1] c_myNtype[2] c_myNtype[3] 
   17017            0      400 2.143835e-12 2.3201784e-05            0          200          200 
number of iterations: 15099 
maxz = 3.257084e-05 
S-sub-bulk = 2.658468e-02
S-sub-base = 2.652258e-02
S-nh4-bulk = 3.860838e-03
S-nh4-base = 3.835472e-03

   17018   0.85247493      400 2.2056937e-12 2.3183312e-05            0          200          200 
Loop time of 0.85249 on 4 procs for 1 steps with 400 atoms

99.9% CPU use with 4 MPI tasks x no OpenMP threads
fix_modify k1 demflag 1
fix_modify d1 demflag 1
fix_modify vf1 demflag 1
timestep 0.1
run 1000 pre no post no
Step CPU Atoms biomass c_myHeight c_myNtype[1] c_myNtype[2] c_myNtype[3] 
   17018            0      400 2.2056937e-12 2.3183312e-05            0          200          200 
   18018  0.055670977      400 2.2056937e-12 2.329855e-05            0          200          200 
Loop time of 0.055691 on 4 procs for 1000 steps with 400 atoms

100.0% CPU use with 4 MPI tasks x no OpenMP threads
timestep 720
fix_modify k1 demflag 0
fix_modify d1 demflag 0
fix_modify vf1 demflag 0
Step CPU Atoms biomass c_myHeight c_myNtype[1] c_myNtype[2] c_myNtype[3] 
   18018            0      400 2.2056937e-12 2.329855e-05            0          200          200 
number of iterations: 15119 
maxz = 3.485824e-05 
S-sub-bulk = 2.642919e-02
S-sub-base = 2.636202e-02
S-nh4-bulk = 3.819266e-03
S-nh4-base = 3.791156e-03

   18019   0.85468292      424 2.2696271e-12 2.3792328e-05            0          224          200 
Loop time of 0.854699 on 4 procs for 1 steps with 424 atoms

100.0% CPU use with 4 MPI tasks x no OpenMP threads
fix_modify k1 demflag 1
fix_modify d1 demflag 1
fix_modify vf1 demflag 1
timestep 0.1
run 1000 pre no post no
Step CPU Atoms biomass c_myHeight c_myNtype[1] c_myNtype[2] c_myNtype[3] 
   18019            0      424 2.2696271e-12 2.3792328e-05            0          224          200 
   19019  0.060415983      424 2.2696271e-12 2.4459449e-05            0          224          200 
Loop time of 0.0604355 on 4 procs for 1000 steps with 424 atoms

100.0% CPU use with 4 MPI tasks x no OpenMP threads
timestep 720
fix_modify k1 demflag 0
fix_modify d1 demflag 0
fix_modify vf1 demflag 0
Step CPU Atoms biomass c_myHeight c_myNtype[1] c_myNtype[2] c_myNtype[3] 
   19019            0      424 2.2696271e-12 2.4459449e-05            0          224          200 
number of iterations: 15198 
maxz = 3.495741e-05 
S-sub-bulk = 2.627094e-02
S-sub-base = 2.619978e-02
S-nh4-bulk = 3.779893e-03
S-nh4-base = 3.748784e-03

   19020   0.85381198      443 2.3357098e-12 2.4730096e-05            0          243          200 
Loop time of 0.853829 on 4 procs for 1 steps with 443 atoms

100.0% CPU use with 4 MPI tasks x no OpenMP threads
fix_modify k1 demflag 1
fix_modify d1 demflag 1
fix_modify vf1 demflag 1
timestep 0.1
run 1000 pre no post no
Step CPU Atoms biomass c_myHeight c_myNtype[1] c_myNtype[2] c_myNtype[3] 
   19020            0      443 2.3357098e-12 2.4730096e-05            0          243          200 
   20020   0.06437397      443 2.3357098e-12 2.5114022e-05            0          243          200 
Loop time of 0.0643947 on 4 procs for 1000 steps with 443 atoms

100.0% CPU use with 4 MPI tasks x no OpenMP threads
timestep 720
fix_modify k1 demflag 0
fix_modify d1 demflag 0
fix_modify vf1 demflag 0
Step CPU Atoms biomass c_myHeight c_myNtype[1] c_myNtype[2] c_myNtype[3] 
   20020            0      443 2.3357098e-12 2.5114022e-05            0          243          200 
number of iterations: 15335 
maxz = 3.505673e-05 
S-sub-bulk = 2.610942e-02
S-sub-base = 2.603559e-02
S-nh4-bulk = 3.742354e-03
S-nh4-base = 3.709516e-03

   20021   0.85036421      465 2.4040197e-12 2.5110473e-05            0          265          200 
Loop time of 0.850382 on 4 procs for 1 steps with 465 atoms

100.0% CPU use with 4 MPI tasks x no OpenMP threads
fix_modify k1 demflag 1
fix_modify d1 demflag 1
fix_modify vf1 demflag 1
timestep 0.1
run 1000 pre no post no
Step CPU Atoms biomass c_myHeight c_myNtype[1] c_myNtype[2] c_myNtype[3] 
   20021            0      465 2.4040197e-12 2.5110473e-05            0          265          200 
   21021  0.064718962      465 2.4040197e-12 2.6139134e-05            0          265          200 
Loop time of 0.0647373 on 4 procs for 1000 steps with 465 atoms

100.0% CPU use with 4 MPI tasks x no OpenMP threads
timestep 720
fix_modify k1 demflag 0
fix_modify d1 demflag 0
fix_modify vf1 demflag 0
Step CPU Atoms biomass c_myHeight c_myNtype[1] c_myNtype[2] c_myNtype[3] 
   21021            0      465 2.4040197e-12 2.6139134e-05            0          265          200 
number of iterations: 15508 
maxz = 3.495741e-05 
S-sub-bulk = 2.594419e-02
S-sub-base = 2.586794e-02
S-nh4-bulk = 3.706342e-03
S-nh4-base = 3.672156e-03

   21022   0.85672784      488 2.4746359e-12 2.6214966e-05            0          288          200 
Loop time of 0.856745 on 4 procs for 1 steps with 488 atoms

100.0% CPU use with 4 MPI tasks x no OpenMP threads
fix_modify k1 demflag 1
fix_modify d1 demflag 1
fix_modify vf1 demflag 1
timestep 0.1
run 1000 pre no post no
Step CPU Atoms biomass c_myHeight c_myNtype[1] c_myNtype[2] c_myNtype[3] 
   21022            0      488 2.4746359e-12 2.6214966e-05            0          288          200 
   22022  0.075613976      488 2.4746359e-12 2.6724567e-05            0          288          200 
Loop time of 0.075634 on 4 procs for 1000 steps with 488 atoms

100.0% CPU use with 4 MPI tasks x no OpenMP threads
timestep 720
fix_modify k1 demflag 0
fix_modify d1 demflag 0
fix_modify vf1 demflag 0
Step CPU Atoms biomass c_myHeight c_myNtype[1] c_myNtype[2] c_myNtype[3] 
   22022            0      488 2.4746359e-12 2.6724567e-05            0          288          200 
number of iterations: 15596 
maxz = 3.544402e-05 
S-sub-bulk = 2.577481e-02
S-sub-base = 2.569685e-02
S-nh4-bulk = 3.671626e-03
S-nh4-base = 3.636018e-03

   22023   0.88778305      500 2.5476401e-12 2.683697e-05            0          300          200 
Loop time of 0.887798 on 4 procs for 1 steps with 500 atoms

99.9% CPU use with 4 MPI tasks x no OpenMP threads
fix_modify k1 demflag 1
fix_modify d1 demflag 1
fix_modify vf1 demflag 1
timestep 0.1
run 1000 pre no post no
Step CPU Atoms biomass c_myHeight c_myNtype[1] c_myNtype[2] c_myNtype[3] 
   22023            0      500 2.5476401e-12 2.683697e-05            0          300          200 
   23023  0.077008009      500 2.5476401e-12 2.7181691e-05            0          300          200 
Loop time of 0.0770304 on 4 procs for 1000 steps with 500 atoms

100.0% CPU use with 4 MPI tasks x no OpenMP threads
timestep 720
fix_modify k1 demflag 0
fix_modify d1 demflag 0
fix_modify vf1 demflag 0
Step CPU Atoms biomass c_myHeight c_myNtype[1] c_myNtype[2] c_myNtype[3] 
   23023            0      500 2.5476401e-12 2.7181691e-05            0          300          200 
number of iterations: 15794 
maxz = 3.621178e-05 
S-sub-bulk = 2.560088e-02
S-sub-base = 2.552134e-02
S-nh4-bulk = 3.638007e-03
S-nh4-base = 3.600887e-03

   23024   0.91436195      521 2.6231147e-12 2.7451073e-05            0          321          200 
Loop time of 0.914379 on 4 procs for 1 steps with 521 atoms

100.0% CPU use with 4 MPI tasks x no OpenMP threads
fix_modify k1 demflag 1
fix_modify d1 demflag 1
fix_modify vf1 demflag 1
timestep 0.1
run 1000 pre no post no
Step CPU Atoms biomass c_myHeight c_myNtype[1] c_myNtype[2] c_myNtype[3] 
   23024            0      521 2.6231147e-12 2.7451073e-05            0          321          200 
   24024  0.084198952      521 2.6231147e-12 2.7697054e-05            0          321          200 
Loop time of 0.0842144 on 4 procs for 1000 steps with 521 atoms

100.0% CPU use with 4 MPI tasks x no OpenMP threads
timestep 720
fix_modify k1 demflag 0
fix_modify d1 demflag 0
fix_modify vf1 demflag 0
Step CPU Atoms biomass c_myHeight c_myNtype[1] c_myNtype[2] c_myNtype[3] 
   24024            0      521 2.6231147e-12 2.7697054e-05            0          321          200 
number of iterations: 25585 
maxz = 3.629170e-05 
S-sub-bulk = 2.542274e-02
S-sub-base = 2.523272e-02
S-nh4-bulk = 3.606165e-03
S-nh4-base = 3.537728e-03

   24025    1.9300981      537 2.7010506e-12 2.7981219e-05            0          337          200 
Loop time of 1.93011 on 4 procs for 1 steps with 537 atoms

99.9% CPU use with 4 MPI tasks x no OpenMP threads
fix_modify k1 demflag 1
fix_modify d1 demflag 1
fix_modify vf1 demflag 1
timestep 0.1
run 1000 pre no post no
Step CPU Atoms biomass c_myHeight c_myNtype[1] c_myNtype[2] c_myNtype[3] 
   24025            0      537 2.7010506e-12 2.7981219e-05            0          337          200 
   25025  0.086112976      537 2.7010506e-12 2.8664857e-05            0          337          200 
Loop time of 0.086132 on 4 procs for 1000 steps with 537 atoms

100.0% CPU use with 4 MPI tasks x no OpenMP threads
timestep 720
fix_modify k1 demflag 0
fix_modify d1 demflag 0
fix_modify vf1 demflag 0
Step CPU Atoms biomass c_myHeight c_myNtype[1] c_myNtype[2] c_myNtype[3] 
   25025            0      537 2.7010506e-12 2.8664857e-05            0          337          200 
number of iterations: 21544 
maxz = 3.656832e-05 
S-sub-bulk = 2.523929e-02
S-sub-base = 2.504670e-02
S-nh4-bulk = 3.574974e-03
S-nh4-base = 3.505479e-03

   25026    1.3954611      557 2.7816255e-12 2.8809209e-05            0          357          200 
Loop time of 1.39548 on 4 procs for 1 steps with 557 atoms

100.0% CPU use with 4 MPI tasks x no OpenMP threads
fix_modify k1 demflag 1
fix_modify d1 demflag 1
fix_modify vf1 demflag 1
timestep 0.1
run 1000 pre no post no
Step CPU Atoms biomass c_myHeight c_myNtype[1] c_myNtype[2] c_myNtype[3] 
   25026            0      557 2.7816255e-12 2.8809209e-05            0          357          200 
   26026  0.096791029      557 2.7816255e-12 3.0180576e-05            0          357          200 
Loop time of 0.096812 on 4 procs for 1000 steps with 557 atoms

99.0% CPU use with 4 MPI tasks x no OpenMP threads
timestep 720
fix_modify k1 demflag 0
fix_modify d1 demflag 0
fix_modify vf1 demflag 0
Step CPU Atoms biomass c_myHeight c_myNtype[1] c_myNtype[2] c_myNtype[3] 
   26026            0      557 2.7816255e-12 3.0180576e-05            0          357          200 
number of iterations: 21851 
maxz = 3.716620e-05 
S-sub-bulk = 2.505021e-02
S-sub-base = 2.485535e-02
S-nh4-bulk = 3.544283e-03
S-nh4-base = 3.474448e-03

   26027    1.4535201      566 2.8649314e-12 3.0287887e-05            0          366          200 
Loop time of 1.45354 on 4 procs for 1 steps with 566 atoms

100.0% CPU use with 4 MPI tasks x no OpenMP threads
fix_modify k1 demflag 1
fix_modify d1 demflag 1
fix_modify vf1 demflag 1
timestep 0.1
run 1000 pre no post no
Step CPU Atoms biomass c_myHeight c_myNtype[1] c_myNtype[2] c_myNtype[3] 
   26027            0      566 2.8649314e-12 3.0287887e-05            0          366          200 
   27027  0.095304966      566 2.8649314e-12 3.0651039e-05            0          366          200 
Loop time of 0.0953243 on 4 procs for 1000 steps with 566 atoms

100.0% CPU use with 4 MPI tasks x no OpenMP threads
timestep 720
fix_modify k1 demflag 0
fix_modify d1 demflag 0
fix_modify vf1 demflag 0
Step CPU Atoms biomass c_myHeight c_myNtype[1] c_myNtype[2] c_myNtype[3] 
   27027            0      566 2.8649314e-12 3.0651039e-05            0          366          200 
number of iterations: 22302 
maxz = 3.791916e-05 
S-sub-bulk = 2.485521e-02
S-sub-base = 2.465399e-02
S-nh4-bulk = 3.514035e-03
S-nh4-base = 3.443038e-03

   27028    1.4112711      590 2.9510567e-12 3.0739784e-05            0          390          200 
Loop time of 1.41129 on 4 procs for 1 steps with 590 atoms

100.0% CPU use with 4 MPI tasks x no OpenMP threads
fix_modify k1 demflag 1
fix_modify d1 demflag 1
fix_modify vf1 demflag 1
timestep 0.1
run 1000 pre no post no
Step CPU Atoms biomass c_myHeight c_myNtype[1] c_myNtype[2] c_myNtype[3] 
   27028            0      590 2.9510567e-12 3.0739784e-05            0          390          200 
   28028   0.10557508      590 2.9510567e-12 3.1373404e-05            0          390          200 
Loop time of 0.105597 on 4 procs for 1000 steps with 590 atoms

100.0% CPU use with 4 MPI tasks x no OpenMP threads
timestep 720
fix_modify k1 demflag 0
fix_modify d1 demflag 0
fix_modify vf1 demflag 0
Step CPU Atoms biomass c_myHeight c_myNtype[1] c_myNtype[2] c_myNtype[3] 
   28028            0      590 2.9510567e-12 3.1373404e-05            0          390          200 
number of iterations: 22504 
maxz = 3.982469e-05 
S-sub-bulk = 2.465399e-02
S-sub-base = 2.444799e-02
S-nh4-bulk = 3.484141e-03
S-nh4-base = 3.412281e-03

   28029     1.451535      600 3.0400973e-12 3.1484648e-05            0          400          200 
Loop time of 1.45155 on 4 procs for 1 steps with 600 atoms

99.9% CPU use with 4 MPI tasks x no OpenMP threads
fix_modify k1 demflag 1
fix_modify d1 demflag 1
fix_modify vf1 demflag 1
timestep 0.1
run 1000 pre no post no
Step CPU Atoms biomass c_myHeight c_myNtype[1] c_myNtype[2] c_myNtype[3] 
   28029            0      600 3.0400973e-12 3.1484648e-05            0          400          200 
   29029   0.10044217      600 3.0400973e-12 3.209357e-05            0          400          200 
Loop time of 0.100463 on 4 procs for 1000 steps with 600 atoms

100.0% CPU use with 4 MPI tasks x no OpenMP threads
timestep 720
fix_modify k1 demflag 0
fix_modify d1 demflag 0
fix_modify vf1 demflag 0
Step CPU Atoms biomass c_myHeight c_myNtype[1] c_myNtype[2] c_myNtype[3] 
   29029            0      600 3.0400973e-12 3.209357e-05            0          400          200 
number of iterations: 22867 
maxz = 4.019403e-05 
S-sub-bulk = 2.444624e-02
S-sub-base = 2.423592e-02
S-nh4-bulk = 3.454500e-03
S-nh4-base = 3.382265e-03

   29030     1.488404      600 3.1321529e-12 3.2118789e-05            0          400          200 
Loop time of 1.48842 on 4 procs for 1 steps with 600 atoms

99.7% CPU use with 4 MPI tasks x no OpenMP threads
fix_modify k1 demflag 1
fix_modify d1 demflag 1
fix_modify vf1 demflag 1
timestep 0.1
run 1000 pre no post no
Step CPU Atoms biomass c_myHeight c_myNtype[1] c_myNtype[2] c_myNtype[3] 
   29030            0      600 3.1321529e-12 3.2118789e-05            0          400          200 
   30030    0.1063199      600 3.1321529e-12 3.2524262e-05            0          400          200 
Loop time of 0.106346 on 4 procs for 1000 steps with 600 atoms

100.0% CPU use with 4 MPI tasks x no OpenMP threads
timestep 720
fix_modify k1 demflag 0
fix_modify d1 demflag 0
fix_modify vf1 demflag 0
Step CPU Atoms biomass c_myHeight c_myNtype[1] c_myNtype[2] c_myNtype[3] 
   30030            0      600 3.1321529e-12 3.2524262e-05            0          400          200 
number of iterations: 23144 
maxz = 4.068982e-05 
S-sub-bulk = 2.423168e-02
S-sub-base = 2.401680e-02
S-nh4-bulk = 3.425075e-03
S-nh4-base = 3.352382e-03

   30031     1.481421      600 3.2273219e-12 3.2436373e-05            0          400          200 
Loop time of 1.48144 on 4 procs for 1 steps with 600 atoms

100.0% CPU use with 4 MPI tasks x no OpenMP threads
fix_modify k1 demflag 1
fix_modify d1 demflag 1
fix_modify vf1 demflag 1
timestep 0.1
run 1000 pre no post no
Step CPU Atoms biomass c_myHeight c_myNtype[1] c_myNtype[2] c_myNtype[3] 
   30031            0      600 3.2273219e-12 3.2436373e-05            0          400          200 
   31031   0.10227704      600 3.2273219e-12 3.3068253e-05            0          400          200 
Loop time of 0.102297 on 4 procs for 1000 steps with 600 atoms

100.0% CPU use with 4 MPI tasks x no OpenMP threads
timestep 720
fix_modify k1 demflag 0
fix_modify d1 demflag 0
fix_modify vf1 demflag 0
Step CPU Atoms biomass c_myHeight c_myNtype[1] c_myNtype[2] c_myNtype[3] 
   31031            0      600 3.2273219e-12 3.3068253e-05            0          400          200 
number of iterations: 23533 
maxz = 4.161035e-05 
S-sub-bulk = 2.401006e-02
S-sub-base = 2.378977e-02
S-nh4-bulk = 3.395827e-03
S-nh4-base = 3.322216e-03

   31032      1.49792      600 3.3257049e-12 3.3169466e-05            0          400          200 
Loop time of 1.49794 on 4 procs for 1 steps with 600 atoms

99.9% CPU use with 4 MPI tasks x no OpenMP threads
fix_modify k1 demflag 1
fix_modify d1 demflag 1
fix_modify vf1 demflag 1
timestep 0.1
run 1000 pre no post no
Step CPU Atoms biomass c_myHeight c_myNtype[1] c_myNtype[2] c_myNtype[3] 
   31032            0      600 3.3257049e-12 3.3169466e-05            0          400          200 
   32032      0.10376      600 3.3257049e-12 3.3586128e-05            0          400          200 
Loop time of 0.103782 on 4 procs for 1000 steps with 600 atoms

100.0% CPU use with 4 MPI tasks x no OpenMP threads
timestep 720
fix_modify k1 demflag 0
fix_modify d1 demflag 0
fix_modify vf1 demflag 0
Step CPU Atoms biomass c_myHeight c_myNtype[1] c_myNtype[2] c_myNtype[3] 
   32032            0      600 3.3257049e-12 3.3586128e-05            0          400          200 
number of iterations: 23839 
maxz = 4.268278e-05 
S-sub-bulk = 2.378111e-02
S-sub-base = 2.355528e-02
S-nh4-bulk = 3.366730e-03
S-nh4-base = 3.292208e-03

   32033    1.5780339      606 3.4274057e-12 3.3658952e-05            0          406          200 
Loop time of 1.57805 on 4 procs for 1 steps with 606 atoms

99.9% CPU use with 4 MPI tasks x no OpenMP threads
fix_modify k1 demflag 1
fix_modify d1 demflag 1
fix_modify vf1 demflag 1
timestep 0.1
run 1000 pre no post no
Step CPU Atoms biomass c_myHeight c_myNtype[1] c_myNtype[2] c_myNtype[3] 
   32033            0      606 3.4274057e-12 3.3658952e-05            0          406          200 
   33033   0.12460399      606 3.4274057e-12 3.4284483e-05            0          406          200 
Loop time of 0.124624 on 4 procs for 1000 steps with 606 atoms

100.0% CPU use with 4 MPI tasks x no OpenMP threads
timestep 720
fix_modify k1 demflag 0
fix_modify d1 demflag 0
fix_modify vf1 demflag 0
Step CPU Atoms biomass c_myHeight c_myNtype[1] c_myNtype[2] c_myNtype[3] 
   33033            0      606 3.4274057e-12 3.4284483e-05            0          406          200 
number of iterations: 24247 
maxz = 4.315444e-05 
S-sub-bulk = 2.354458e-02
S-sub-base = 2.331042e-02
S-nh4-bulk = 3.337681e-03
S-nh4-base = 3.263517e-03

   33034    1.5120862      616 3.5325327e-12 3.4332433e-05            0          416          200 
Loop time of 1.5121 on 4 procs for 1 steps with 616 atoms

99.9% CPU use with 4 MPI tasks x no OpenMP threads
fix_modify k1 demflag 1
fix_modify d1 demflag 1
fix_modify vf1 demflag 1
timestep 0.1
run 1000 pre no post no
Step CPU Atoms biomass c_myHeight c_myNtype[1] c_myNtype[2] c_myNtype[3] 
   33034            0      616 3.5325327e-12 3.4332433e-05            0          416          200 
   34034   0.11255217      616 3.5325327e-12 3.5123177e-05            0          416          200 
Loop time of 0.112573 on 4 procs for 1000 steps with 616 atoms

100.0% CPU use with 4 MPI tasks x no OpenMP threads
timestep 720
fix_modify k1 demflag 0
fix_modify d1 demflag 0
fix_modify vf1 demflag 0
Step CPU Atoms biomass c_myHeight c_myNtype[1] c_myNtype[2] c_myNtype[3] 
   34034            0      616 3.5325327e-12 3.5123177e-05            0          416          200 
number of iterations: 24461 
maxz = 4.677903e-05 
S-sub-bulk = 2.330015e-02
S-sub-base = 2.306405e-02
S-nh4-bulk = 3.308633e-03
S-nh4-base = 3.235503e-03

   34035     1.549324      630 3.6412017e-12 3.5246595e-05            0          430          200 
Loop time of 1.54934 on 4 procs for 1 steps with 630 atoms

99.9% CPU use with 4 MPI tasks x no OpenMP threads
fix_modify k1 demflag 1
fix_modify d1 demflag 1
fix_modify vf1 demflag 1
timestep 0.1
run 1000 pre no post no
Step CPU Atoms biomass c_myHeight c_myNtype[1] c_myNtype[2] c_myNtype[3] 
   34035            0      630 3.6412017e-12 3.5246595e-05            0          430          200 
   35035   0.12137508      630 3.6412017e-12 3.5851312e-05            0          430          200 
Loop time of 0.121397 on 4 procs for 1000 steps with 630 atoms

100.0% CPU use with 4 MPI tasks x no OpenMP threads
timestep 720
fix_modify k1 demflag 0
fix_modify d1 demflag 0
fix_modify vf1 demflag 0
Step CPU Atoms biomass c_myHeight c_myNtype[1] c_myNtype[2] c_myNtype[3] 
   35035            0      630 3.6412017e-12 3.5851312e-05            0          430          200 
number of iterations: 37670 
maxz = 4.787811e-05 
S-sub-bulk = 2.304926e-02
S-sub-base = 2.264641e-02
S-nh4-bulk = 3.280898e-03
S-nh4-base = 3.173436e-03

   35036    3.2327111      646 3.7533206e-12 3.6169442e-05            0          446          200 
Loop time of 3.23274 on 4 procs for 1 steps with 646 atoms

100.0% CPU use with 4 MPI tasks x no OpenMP threads
fix_modify k1 demflag 1
fix_modify d1 demflag 1
fix_modify vf1 demflag 1
timestep 0.1
run 1000 pre no post no
Step CPU Atoms biomass c_myHeight c_myNtype[1] c_myNtype[2] c_myNtype[3] 
   35036            0      646 3.7533206e-12 3.6169442e-05            0          446          200 
   36036   0.12757611      646 3.7533206e-12 3.6987039e-05            0          446          200 
Loop time of 0.127607 on 4 procs for 1000 steps with 646 atoms

100.0% CPU use with 4 MPI tasks x no OpenMP threads
timestep 720
fix_modify k1 demflag 0
fix_modify d1 demflag 0
fix_modify vf1 demflag 0
Step CPU Atoms biomass c_myHeight c_myNtype[1] c_myNtype[2] c_myNtype[3] 
   36036            0      646 3.7533206e-12 3.6987039e-05            0          446          200 
number of iterations: 32012 
maxz = 4.912909e-05 
S-sub-bulk = 2.278997e-02
S-sub-base = 2.237949e-02
S-nh4-bulk = 3.252973e-03
S-nh4-base = 3.146051e-03

   36037     2.284127      665 3.8691871e-12 3.721787e-05            0          465          200 
Loop time of 2.28415 on 4 procs for 1 steps with 665 atoms

100.0% CPU use with 4 MPI tasks x no OpenMP threads
fix_modify k1 demflag 1
fix_modify d1 demflag 1
fix_modify vf1 demflag 1
timestep 0.1
run 1000 pre no post no
Step CPU Atoms biomass c_myHeight c_myNtype[1] c_myNtype[2] c_myNtype[3] 
   36037            0      665 3.8691871e-12 3.721787e-05            0          465          200 
   37037   0.13389301      665 3.8691871e-12 3.8225348e-05            0          465          200 
Loop time of 0.133913 on 4 procs for 1000 steps with 665 atoms

100.0% CPU use with 4 MPI tasks x no OpenMP threads
timestep 720
fix_modify k1 demflag 0
fix_modify d1 demflag 0
fix_modify vf1 demflag 0
Step CPU Atoms biomass c_myHeight c_myNtype[1] c_myNtype[2] c_myNtype[3] 
   37037            0      665 3.8691871e-12 3.8225348e-05            0          465          200 
number of iterations: 32493 
maxz = 5.048686e-05 
S-sub-bulk = 2.252207e-02
S-sub-base = 2.210411e-02
S-nh4-bulk = 3.224871e-03
S-nh4-base = 3.118799e-03

   37038     2.305069      691 3.9889168e-12 3.8219075e-05            0          491          200 
Loop time of 2.30509 on 4 procs for 1 steps with 691 atoms

100.0% CPU use with 4 MPI tasks x no OpenMP threads
fix_modify k1 demflag 1
fix_modify d1 demflag 1
fix_modify vf1 demflag 1
timestep 0.1
run 1000 pre no post no
Step CPU Atoms biomass c_myHeight c_myNtype[1] c_myNtype[2] c_myNtype[3] 
   37038            0      691 3.9889168e-12 3.8219075e-05            0          491          200 
   38038   0.14497995      691 3.9889168e-12 3.9200351e-05            0          491          200 
Loop time of 0.145003 on 4 procs for 1000 steps with 691 atoms

100.0% CPU use with 4 MPI tasks x no OpenMP threads
timestep 720
fix_modify k1 demflag 0
fix_modify d1 demflag 0
fix_modify vf1 demflag 0
Step CPU Atoms biomass c_myHeight c_myNtype[1] c_myNtype[2] c_myNtype[3] 
   38038            0      691 3.9889168e-12 3.9200351e-05            0          491          200 
number of iterations: 33028 
maxz = 5.290119e-05 
S-sub-bulk = 2.224533e-02
S-sub-base = 2.182003e-02
S-nh4-bulk = 3.196593e-03
S-nh4-base = 3.091054e-03

   38039     2.319952      716 4.1126259e-12 3.9362838e-05            0          516          200 
Loop time of 2.31997 on 4 procs for 1 steps with 716 atoms

100.0% CPU use with 4 MPI tasks x no OpenMP threads
fix_modify k1 demflag 1
fix_modify d1 demflag 1
fix_modify vf1 demflag 1
timestep 0.1
run 1000 pre no post no
Step CPU Atoms biomass c_myHeight c_myNtype[1] c_myNtype[2] c_myNtype[3] 
   38039            0      716 4.1126259e-12 3.9362838e-05            0          516          200 
   39039   0.13951302      716 4.1126259e-12 4.0742312e-05            0          516          200 
Loop time of 0.139534 on 4 procs for 1000 steps with 716 atoms

100.0% CPU use with 4 MPI tasks x no OpenMP threads
timestep 720
fix_modify k1 demflag 0
fix_modify d1 demflag 0
fix_modify vf1 demflag 0
Step CPU Atoms biomass c_myHeight c_myNtype[1] c_myNtype[2] c_myNtype[3] 
   39039            0      716 4.1126259e-12 4.0742312e-05            0          516          200 
number of iterations: 33351 
maxz = 5.413759e-05 
S-sub-bulk = 2.195948e-02
S-sub-base = 2.153261e-02
S-nh4-bulk = 3.168153e-03
S-nh4-base = 3.063434e-03

   39040    2.3220599      745 4.2404402e-12 4.0962918e-05            0          545          200 
Loop time of 2.32208 on 4 procs for 1 steps with 745 atoms

100.0% CPU use with 4 MPI tasks x no OpenMP threads
fix_modify k1 demflag 1
fix_modify d1 demflag 1
fix_modify vf1 demflag 1
timestep 0.1
run 1000 pre no post no
Step CPU Atoms biomass c_myHeight c_myNtype[1] c_myNtype[2] c_myNtype[3] 
   39040            0      745 4.2404402e-12 4.0962918e-05            0          545          200 
   40040   0.15374112      745 4.2404402e-12 4.225172e-05            0          545          200 
Loop time of 0.15376 on 4 procs for 1000 steps with 745 atoms

100.0% CPU use with 4 MPI tasks x no OpenMP threads
timestep 720
fix_modify k1 demflag 0
fix_modify d1 demflag 0
fix_modify vf1 demflag 0
Step CPU Atoms biomass c_myHeight c_myNtype[1] c_myNtype[2] c_myNtype[3] 
   40040            0      745 4.2404402e-12 4.225172e-05            0          545          200 
number of iterations: 34054 
maxz = 5.537110e-05 
S-sub-bulk = 2.166440e-02
S-sub-base = 2.123225e-02
S-nh4-bulk = 3.139568e-03
S-nh4-base = 3.035246e-03

   40041    2.3476319      776 4.3724713e-12 4.2384901e-05            0          576          200 
Loop time of 2.34765 on 4 procs for 1 steps with 776 atoms

100.0% CPU use with 4 MPI tasks x no OpenMP threads
fix_modify k1 demflag 1
fix_modify d1 demflag 1
fix_modify vf1 demflag 1
timestep 0.1
run 1000 pre no post no
Step CPU Atoms biomass c_myHeight c_myNtype[1] c_myNtype[2] c_myNtype[3] 
   40041            0      776 4.3724713e-12 4.2384901e-05            0          576          200 
   41041    0.1558938      776 4.3724713e-12 4.3355582e-05            0          576          200 
Loop time of 0.155914 on 4 procs for 1000 steps with 776 atoms

100.0% CPU use with 4 MPI tasks x no OpenMP threads
timestep 720
fix_modify k1 demflag 0
fix_modify d1 demflag 0
fix_modify vf1 demflag 0
Step CPU Atoms biomass c_myHeight c_myNtype[1] c_myNtype[2] c_myNtype[3] 
   41041            0      776 4.3724713e-12 4.3355582e-05            0          576          200 
number of iterations: 34548 
maxz = 5.675900e-05 
S-sub-bulk = 2.135993e-02
S-sub-base = 2.091927e-02
S-nh4-bulk = 3.110854e-03
S-nh4-base = 3.007148e-03

   41042    2.4499128      825 4.5088389e-12 4.3600379e-05            0          625          200 
Loop time of 2.44993 on 4 procs for 1 steps with 825 atoms

100.0% CPU use with 4 MPI tasks x no OpenMP threads
fix_modify k1 demflag 1
fix_modify d1 demflag 1
fix_modify vf1 demflag 1
timestep 0.1
run 1000 pre no post no
Step CPU Atoms biomass c_myHeight c_myNtype[1] c_myNtype[2] c_myNtype[3] 
   41042            0      825 4.5088389e-12 4.3600379e-05            0          625          200 
   42042   0.18219495      825 4.5088389e-12 4.4787808e-05            0          625          200 
Loop time of 0.182216 on 4 procs for 1000 steps with 825 atoms

100.0% CPU use with 4 MPI tasks x no OpenMP threads
timestep 720
fix_modify k1 demflag 0
fix_modify d1 demflag 0
fix_modify vf1 demflag 0
Step CPU Atoms biomass c_myHeight c_myNtype[1] c_myNtype[2] c_myNtype[3] 
   42042            0      825 4.5088389e-12 4.4787808e-05            0          625          200 
number of iterations: 51068 
maxz = 5.705694e-05 
S-sub-bulk = 2.104893e-02
S-sub-base = 2.039398e-02
S-nh4-bulk = 3.083598e-03
S-nh4-base = 2.944358e-03

   42043    4.7926412      856 4.6493227e-12 4.4962841e-05            0          656          200 
Loop time of 4.79266 on 4 procs for 1 steps with 856 atoms

100.0% CPU use with 4 MPI tasks x no OpenMP threads
fix_modify k1 demflag 1
fix_modify d1 demflag 1
fix_modify vf1 demflag 1
timestep 0.1
run 1000 pre no post no
Step CPU Atoms biomass c_myHeight c_myNtype[1] c_myNtype[2] c_myNtype[3] 
   42043            0      856 4.6493227e-12 4.4962841e-05            0          656          200 
   43043   0.19723821      856 4.6493227e-12 4.5897205e-05            0          656          200 
Loop time of 0.197259 on 4 procs for 1000 steps with 856 atoms

100.0% CPU use with 4 MPI tasks x no OpenMP threads
timestep 720
fix_modify k1 demflag 0
fix_modify d1 demflag 0
fix_modify vf1 demflag 0
Step CPU Atoms biomass c_myHeight c_myNtype[1] c_myNtype[2] c_myNtype[3] 
   43043            0      856 4.6493227e-12 4.5897205e-05            0          656          200 
number of iterations: 43494 
maxz = 5.850873e-05 
S-sub-bulk = 2.072819e-02
S-sub-base = 2.006013e-02
S-nh4-bulk = 3.056109e-03
S-nh4-base = 2.916404e-03

   43044    3.4250739      894 4.794346e-12 4.6139008e-05            0          694          200 
Loop time of 3.42509 on 4 procs for 1 steps with 894 atoms

100.0% CPU use with 4 MPI tasks x no OpenMP threads
fix_modify k1 demflag 1
fix_modify d1 demflag 1
fix_modify vf1 demflag 1
timestep 0.1
run 1000 pre no post no
Step CPU Atoms biomass c_myHeight c_myNtype[1] c_myNtype[2] c_myNtype[3] 
   43044            0      894 4.794346e-12 4.6139008e-05            0          694          200 
   44044   0.20357513      894 4.794346e-12 4.7152278e-05            0          694          200 
Loop time of 0.203597 on 4 procs for 1000 steps with 894 atoms

100.0% CPU use with 4 MPI tasks x no OpenMP threads
timestep 720
fix_modify k1 demflag 0
fix_modify d1 demflag 0
fix_modify vf1 demflag 0
Step CPU Atoms biomass c_myHeight c_myNtype[1] c_myNtype[2] c_myNtype[3] 
   44044            0      894 4.794346e-12 4.7152278e-05            0          694          200 
number of iterations: 44252 
maxz = 6.147642e-05 
S-sub-bulk = 2.039757e-02
S-sub-base = 1.971932e-02
S-nh4-bulk = 3.028359e-03
S-nh4-base = 2.889276e-03

   44045     3.506381      921 4.9440317e-12 4.735858e-05            0          721          200 
Loop time of 3.5064 on 4 procs for 1 steps with 921 atoms

99.9% CPU use with 4 MPI tasks x no OpenMP threads
fix_modify k1 demflag 1
fix_modify d1 demflag 1
fix_modify vf1 demflag 1
timestep 0.1
run 1000 pre no post no
Step CPU Atoms biomass c_myHeight c_myNtype[1] c_myNtype[2] c_myNtype[3] 
   44045            0      921 4.9440317e-12 4.735858e-05            0          721          200 
   45045   0.22060704      921 4.9440317e-12 4.8243384e-05            0          721          200 
Loop time of 0.220629 on 4 procs for 1000 steps with 921 atoms

100.0% CPU use with 4 MPI tasks x no OpenMP threads
timestep 720
fix_modify k1 demflag 0
fix_modify d1 demflag 0
fix_modify vf1 demflag 0
Step CPU Atoms biomass c_myHeight c_myNtype[1] c_myNtype[2] c_myNtype[3] 
   45045            0      921 4.9440317e-12 4.8243384e-05            0          721          200 
number of iterations: 44996 
maxz = 6.217515e-05 
S-sub-bulk = 2.005707e-02
S-sub-base = 1.936615e-02
S-nh4-bulk = 3.000357e-03
S-nh4-base = 2.862143e-03

   45046      3.64166      938 5.0984897e-12 4.8262972e-05            0          738          200 
Loop time of 3.64168 on 4 procs for 1 steps with 938 atoms

100.0% CPU use with 4 MPI tasks x no OpenMP threads
fix_modify k1 demflag 1
fix_modify d1 demflag 1
fix_modify vf1 demflag 1
timestep 0.1
run 1000 pre no post no
Step CPU Atoms biomass c_myHeight c_myNtype[1] c_myNtype[2] c_myNtype[3] 
   45046            0      938 5.0984897e-12 4.8262972e-05            0          738          200 
   46046   0.22269607      938 5.0984897e-12 4.9274533e-05            0          738          200 
Loop time of 0.222719 on 4 procs for 1000 steps with 938 atoms

100.0% CPU use with 4 MPI tasks x no OpenMP threads
timestep 720
fix_modify k1 demflag 0
fix_modify d1 demflag 0
fix_modify vf1 demflag 0
Step CPU Atoms biomass c_myHeight c_myNtype[1] c_myNtype[2] c_myNtype[3] 
   46046            0      938 5.0984897e-12 4.9274533e-05            0          738          200 
number of iterations: 45604 
maxz = 6.227407e-05 
S-sub-bulk = 1.970650e-02
S-sub-base = 1.900794e-02
S-nh4-bulk = 2.972107e-03
S-nh4-base = 2.834962e-03

   46047    3.5366738      954 5.2578475e-12 4.9383037e-05            0          754          200 
Loop time of 3.53669 on 4 procs for 1 steps with 954 atoms

100.0% CPU use with 4 MPI tasks x no OpenMP threads
fix_modify k1 demflag 1
fix_modify d1 demflag 1
fix_modify vf1 demflag 1
timestep 0.1
run 1000 pre no post no
Step CPU Atoms biomass c_myHeight c_myNtype[1] c_myNtype[2] c_myNtype[3] 
   46047            0      954 5.2578475e-12 4.9383037e-05            0          754          200 
   47047   0.22764683      954 5.2578475e-12 5.0397678e-05            0          754          200 
Loop time of 0.227668 on 4 procs for 1000 steps with 954 atoms

100.0% CPU use with 4 MPI tasks x no OpenMP threads
timestep 720
fix_modify k1 demflag 0
fix_modify d1 demflag 0
fix_modify vf1 demflag 0
Step CPU Atoms biomass c_myHeight c_myNtype[1] c_myNtype[2] c_myNtype[3] 
   47047            0      954 5.2578475e-12 5.0397678e-05            0          754          200 
number of iterations: 46401 
maxz = 6.287565e-05 
S-sub-bulk = 1.934598e-02
S-sub-base = 1.863458e-02
S-nh4-bulk = 2.943559e-03
S-nh4-base = 2.808417e-03

   47048    3.5753279      969 5.422209e-12 5.0417305e-05            0          769          200 
Loop time of 3.57534 on 4 procs for 1 steps with 969 atoms

100.0% CPU use with 4 MPI tasks x no OpenMP threads
fix_modify k1 demflag 1
fix_modify d1 demflag 1
fix_modify vf1 demflag 1
timestep 0.1
run 1000 pre no post no
Step CPU Atoms biomass c_myHeight c_myNtype[1] c_myNtype[2] c_myNtype[3] 
   47048            0      969 5.422209e-12 5.0417305e-05            0          769          200 
   48048    0.2499361      969 5.422209e-12 5.152199e-05            0          769          200 
Loop time of 0.249958 on 4 procs for 1000 steps with 969 atoms

100.0% CPU use with 4 MPI tasks x no OpenMP threads
timestep 720
fix_modify k1 demflag 0
fix_modify d1 demflag 0
fix_modify vf1 demflag 0
Step CPU Atoms biomass c_myHeight c_myNtype[1] c_myNtype[2] c_myNtype[3] 
   48048            0      969 5.422209e-12 5.152199e-05            0          769          200 
number of iterations: 47123 
maxz = 6.376121e-05 
S-sub-bulk = 1.897551e-02
S-sub-base = 1.825059e-02
S-nh4-bulk = 2.914902e-03
S-nh4-base = 2.780119e-03

   48049     3.753541      984 5.5916763e-12 5.1613614e-05            0          784          200 
Loop time of 3.75356 on 4 procs for 1 steps with 984 atoms

100.0% CPU use with 4 MPI tasks x no OpenMP threads
fix_modify k1 demflag 1
fix_modify d1 demflag 1
fix_modify vf1 demflag 1
timestep 0.1
run 1000 pre no post no
Step CPU Atoms biomass c_myHeight c_myNtype[1] c_myNtype[2] c_myNtype[3] 
   48049            0      984 5.5916763e-12 5.1613614e-05            0          784          200 
   49049   0.25303292      984 5.5916763e-12 5.2774768e-05            0          784          200 
Loop time of 0.253056 on 4 procs for 1000 steps with 984 atoms

100.0% CPU use with 4 MPI tasks x no OpenMP threads
timestep 720
fix_modify k1 demflag 0
fix_modify d1 demflag 0
fix_modify vf1 demflag 0
Step CPU Atoms biomass c_myHeight c_myNtype[1] c_myNtype[2] c_myNtype[3] 
   49049            0      984 5.5916763e-12 5.2774768e-05            0          784          200 
number of iterations: 47667 
maxz = 6.641056e-05 
S-sub-bulk = 1.859496e-02
S-sub-base = 1.786357e-02
S-nh4-bulk = 2.886119e-03
S-nh4-base = 2.751497e-03

   49050    3.8325641     1002 5.7663722e-12 5.3012775e-05            0          802          200 
Loop time of 3.83258 on 4 procs for 1 steps with 1002 atoms

100.0% CPU use with 4 MPI tasks x no OpenMP threads
fix_modify k1 demflag 1
fix_modify d1 demflag 1
fix_modify vf1 demflag 1
timestep 0.1
run 1000 pre no post no
Step CPU Atoms biomass c_myHeight c_myNtype[1] c_myNtype[2] c_myNtype[3] 
   49050            0     1002 5.7663722e-12 5.3012775e-05            0          802          200 
   50050   0.25774884     1002 5.7663722e-12 5.442942e-05            0          802          200 
Loop time of 0.25777 on 4 procs for 1000 steps with 1002 atoms

100.0% CPU use with 4 MPI tasks x no OpenMP threads
timestep 720
fix_modify k1 demflag 0
fix_modify d1 demflag 0
fix_modify vf1 demflag 0
Step CPU Atoms biomass c_myHeight c_myNtype[1] c_myNtype[2] c_myNtype[3] 
   50050            0     1002 5.7663722e-12 5.442942e-05            0          802          200 
number of iterations: 68525 
maxz = 6.738681e-05 
S-sub-bulk = 1.821095e-02
S-sub-base = 1.719421e-02
S-nh4-bulk = 2.859233e-03
S-nh4-base = 2.687062e-03

   50051    6.8155239     1018 5.9457155e-12 5.4338944e-05            0          818          200 
Loop time of 6.81554 on 4 procs for 1 steps with 1018 atoms

100.0% CPU use with 4 MPI tasks x no OpenMP threads
fix_modify k1 demflag 1
fix_modify d1 demflag 1
fix_modify vf1 demflag 1
timestep 0.1
run 1000 pre no post no
Step CPU Atoms biomass c_myHeight c_myNtype[1] c_myNtype[2] c_myNtype[3] 
   50051            0     1018 5.9457155e-12 5.4338944e-05            0          818          200 
   51051   0.26013803     1018 5.9457155e-12 5.6081769e-05            0          818          200 
Loop time of 0.260158 on 4 procs for 1000 steps with 1018 atoms

100.0% CPU use with 4 MPI tasks x no OpenMP threads
timestep 720
fix_modify k1 demflag 0
fix_modify d1 demflag 0
fix_modify vf1 demflag 0
Step CPU Atoms biomass c_myHeight c_myNtype[1] c_myNtype[2] c_myNtype[3] 
   51051            0     1018 5.9457155e-12 5.6081769e-05            0          818          200 
number of iterations: 58393 
maxz = 6.862605e-05 
S-sub-bulk = 1.781696e-02
S-sub-base = 1.678846e-02
S-nh4-bulk = 2.832004e-03
S-nh4-base = 2.660494e-03

   51052    4.9203079     1044 6.1304152e-12 5.6149546e-05            0          844          200 
Loop time of 4.92032 on 4 procs for 1 steps with 1044 atoms

100.0% CPU use with 4 MPI tasks x no OpenMP threads
fix_modify k1 demflag 1
fix_modify d1 demflag 1
fix_modify vf1 demflag 1
timestep 0.1
run 1000 pre no post no
Step CPU Atoms biomass c_myHeight c_myNtype[1] c_myNtype[2] c_myNtype[3] 
   51052            0     1044 6.1304152e-12 5.6149546e-05            0          844          200 
   52052   0.27537203     1044 6.1304152e-12 5.7542568e-05            0          844          200 
Loop time of 0.275394 on 4 procs for 1000 steps with 1044 atoms

100.0% CPU use with 4 MPI tasks x no OpenMP threads
timestep 720
fix_modify k1 demflag 0
fix_modify d1 demflag 0
fix_modify vf1 demflag 0
Step CPU Atoms biomass c_myHeight c_myNtype[1] c_myNtype[2] c_myNtype[3] 
   52052            0     1044 6.1304152e-12 5.7542568e-05            0          844          200 
number of iterations: 59350 
maxz = 7.046689e-05 
S-sub-bulk = 1.741333e-02
S-sub-base = 1.636848e-02
S-nh4-bulk = 2.804442e-03
S-nh4-base = 2.633696e-03

   52053    5.0854409     1068 6.3205498e-12 5.7562902e-05            0          868          200 
Loop time of 5.08546 on 4 procs for 1 steps with 1068 atoms

99.9% CPU use with 4 MPI tasks x no OpenMP threads
fix_modify k1 demflag 1
fix_modify d1 demflag 1
fix_modify vf1 demflag 1
timestep 0.1
run 1000 pre no post no
Step CPU Atoms biomass c_myHeight c_myNtype[1] c_myNtype[2] c_myNtype[3] 
   52053            0     1068 6.3205498e-12 5.7562902e-05            0          868          200 
   53053   0.29734492     1068 6.3205498e-12 5.8939706e-05            0          868          200 
Loop time of 0.297367 on 4 procs for 1000 steps with 1068 atoms

100.0% CPU use with 4 MPI tasks x no OpenMP threads
timestep 720
fix_modify k1 demflag 0
fix_modify d1 demflag 0
fix_modify vf1 demflag 0
Step CPU Atoms biomass c_myHeight c_myNtype[1] c_myNtype[2] c_myNtype[3] 
   53053            0     1068 6.3205498e-12 5.8939706e-05            0          868          200 
number of iterations: 60242 
maxz = 7.430744e-05 
S-sub-bulk = 1.700026e-02
S-sub-base = 1.594217e-02
S-nh4-bulk = 2.776656e-03
S-nh4-base = 2.606095e-03

   53054     5.343961     1095 6.5162016e-12 5.9090168e-05            0          895          200 
Loop time of 5.34398 on 4 procs for 1 steps with 1095 atoms

99.9% CPU use with 4 MPI tasks x no OpenMP threads
fix_modify k1 demflag 1
fix_modify d1 demflag 1
fix_modify vf1 demflag 1
timestep 0.1
run 1000 pre no post no
Step CPU Atoms biomass c_myHeight c_myNtype[1] c_myNtype[2] c_myNtype[3] 
   53054            0     1095 6.5162016e-12 5.9090168e-05            0          895          200 
   54054   0.29565716     1095 6.5162016e-12 6.0798497e-05            0          895          200 
Loop time of 0.295679 on 4 procs for 1000 steps with 1095 atoms

99.7% CPU use with 4 MPI tasks x no OpenMP threads
timestep 720
fix_modify k1 demflag 0
fix_modify d1 demflag 0
fix_modify vf1 demflag 0
Step CPU Atoms biomass c_myHeight c_myNtype[1] c_myNtype[2] c_myNtype[3] 
   54054            0     1095 6.5162016e-12 6.0798497e-05            0          895          200 
number of iterations: 60914 
maxz = 7.648525e-05 
S-sub-bulk = 1.657780e-02
S-sub-base = 1.551347e-02
S-nh4-bulk = 2.748523e-03
S-nh4-base = 2.580211e-03

   54055    5.5222571     1127 6.7174712e-12 6.0930616e-05            0          927          200 
Loop time of 5.52228 on 4 procs for 1 steps with 1127 atoms

100.0% CPU use with 4 MPI tasks x no OpenMP threads
fix_modify k1 demflag 1
fix_modify d1 demflag 1
fix_modify vf1 demflag 1
timestep 0.1
run 1000 pre no post no
Step CPU Atoms biomass c_myHeight c_myNtype[1] c_myNtype[2] c_myNtype[3] 
   54055            0     1127 6.7174712e-12 6.0930616e-05            0          927          200 
   55055   0.30822492     1127 6.7174712e-12 6.2699058e-05            0          927          200 
Loop time of 0.308247 on 4 procs for 1000 steps with 1127 atoms

100.0% CPU use with 4 MPI tasks x no OpenMP threads
timestep 720
fix_modify k1 demflag 0
fix_modify d1 demflag 0
fix_modify vf1 demflag 0
Step CPU Atoms biomass c_myHeight c_myNtype[1] c_myNtype[2] c_myNtype[3] 
   55055            0     1127 6.7174712e-12 6.2699058e-05            0          927          200 
number of iterations: 85970 
maxz = 7.853424e-05 
S-sub-bulk = 1.615737e-02
S-sub-base = 1.476358e-02
S-nh4-bulk = 2.722526e-03
S-nh4-base = 2.516261e-03

   55056    10.148767     1175 6.9233007e-12 6.2988579e-05            0          967          208 
Loop time of 10.1488 on 4 procs for 1 steps with 1175 atoms

99.9% CPU use with 4 MPI tasks x no OpenMP threads
fix_modify k1 demflag 1
fix_modify d1 demflag 1
fix_modify vf1 demflag 1
timestep 0.1
run 1000 pre no post no
Step CPU Atoms biomass c_myHeight c_myNtype[1] c_myNtype[2] c_myNtype[3] 
   55056            0     1175 6.9233007e-12 6.2988579e-05            0          967          208 
   56056   0.31600618     1175 6.9233007e-12 6.4775272e-05            0          967          208 
Loop time of 0.316028 on 4 procs for 1000 steps with 1175 atoms

100.0% CPU use with 4 MPI tasks x no OpenMP threads
timestep 720
fix_modify k1 demflag 0
fix_modify d1 demflag 0
fix_modify vf1 demflag 0
Step CPU Atoms biomass c_myHeight c_myNtype[1] c_myNtype[2] c_myNtype[3] 
   56056            0     1175 6.9233007e-12 6.4775272e-05            0          967          208 
number of iterations: 72726 
maxz = 7.985556e-05 
S-sub-bulk = 1.572849e-02
S-sub-base = 1.432178e-02
S-nh4-bulk = 2.696100e-03
S-nh4-base = 2.490815e-03

   56057     7.576751     1227 7.1347139e-12 6.4894105e-05            0         1017          210 
Loop time of 7.57677 on 4 procs for 1 steps with 1227 atoms

100.0% CPU use with 4 MPI tasks x no OpenMP threads
fix_modify k1 demflag 1
fix_modify d1 demflag 1
fix_modify vf1 demflag 1
timestep 0.1
run 1000 pre no post no
Step CPU Atoms biomass c_myHeight c_myNtype[1] c_myNtype[2] c_myNtype[3] 
   56057            0     1227 7.1347139e-12 6.4894105e-05            0         1017          210 
   57057   0.35494781     1227 7.1347139e-12 6.6753582e-05            0         1017          210 
Loop time of 0.354979 on 4 procs for 1000 steps with 1227 atoms

100.0% CPU use with 4 MPI tasks x no OpenMP threads
timestep 720
fix_modify k1 demflag 0
fix_modify d1 demflag 0
fix_modify vf1 demflag 0
Step CPU Atoms biomass c_myHeight c_myNtype[1] c_myNtype[2] c_myNtype[3] 
   57057            0     1227 7.1347139e-12 6.6753582e-05            0         1017          210 
number of iterations: 74043 
maxz = 8.186578e-05 
S-sub-bulk = 1.529204e-02
S-sub-base = 1.386691e-02
S-nh4-bulk = 2.669151e-03
S-nh4-base = 2.465978e-03

   57058    7.0687361     1278 7.3517212e-12 6.7044666e-05            0         1064          214 
Loop time of 7.06875 on 4 procs for 1 steps with 1278 atoms

99.9% CPU use with 4 MPI tasks x no OpenMP threads
fix_modify k1 demflag 1
fix_modify d1 demflag 1
fix_modify vf1 demflag 1
timestep 0.1
run 1000 pre no post no
Step CPU Atoms biomass c_myHeight c_myNtype[1] c_myNtype[2] c_myNtype[3] 
   57058            0     1278 7.3517212e-12 6.7044666e-05            0         1064          214 
   58058   0.34169984     1278 7.3517212e-12 6.8630082e-05            0         1064          214 
Loop time of 0.341721 on 4 procs for 1000 steps with 1278 atoms

100.0% CPU use with 4 MPI tasks x no OpenMP threads
timestep 720
fix_modify k1 demflag 0
fix_modify d1 demflag 0
fix_modify vf1 demflag 0
Step CPU Atoms biomass c_myHeight c_myNtype[1] c_myNtype[2] c_myNtype[3] 
   58058            0     1278 7.3517212e-12 6.8630082e-05            0         1064          214 
number of iterations: 74935 
maxz = 8.270252e-05 
S-sub-bulk = 1.484871e-02
S-sub-base = 1.341072e-02
S-nh4-bulk = 2.641859e-03
S-nh4-base = 2.439928e-03

   58059     7.259428     1332 7.5743311e-12 6.8813334e-05            0         1112          220 
Loop time of 7.25944 on 4 procs for 1 steps with 1332 atoms

99.9% CPU use with 4 MPI tasks x no OpenMP threads
fix_modify k1 demflag 1
fix_modify d1 demflag 1
fix_modify vf1 demflag 1
timestep 0.1
run 1000 pre no post no
Step CPU Atoms biomass c_myHeight c_myNtype[1] c_myNtype[2] c_myNtype[3] 
   58059            0     1332 7.5743311e-12 6.8813334e-05            0         1112          220 
   59059   0.45371914     1332 7.5743311e-12 7.047873e-05            0         1112          220 
Loop time of 0.45375 on 4 procs for 1000 steps with 1332 atoms

99.8% CPU use with 4 MPI tasks x no OpenMP threads
timestep 720
fix_modify k1 demflag 0
fix_modify d1 demflag 0
fix_modify vf1 demflag 0
Step CPU Atoms biomass c_myHeight c_myNtype[1] c_myNtype[2] c_myNtype[3] 
   59059            0     1332 7.5743311e-12 7.047873e-05            0         1112          220 
number of iterations: 75914 
maxz = 8.479069e-05 
S-sub-bulk = 1.439940e-02
S-sub-base = 1.294799e-02
S-nh4-bulk = 2.614200e-03
S-nh4-base = 2.414818e-03

   59060     7.654108     1389 7.8025298e-12 7.0580739e-05            0         1162          227 
Loop time of 7.65413 on 4 procs for 1 steps with 1389 atoms

100.0% CPU use with 4 MPI tasks x no OpenMP threads
fix_modify k1 demflag 1
fix_modify d1 demflag 1
fix_modify vf1 demflag 1
timestep 0.1
run 1000 pre no post no
Step CPU Atoms biomass c_myHeight c_myNtype[1] c_myNtype[2] c_myNtype[3] 
   59060            0     1389 7.8025298e-12 7.0580739e-05            0         1162          227 
   60060     0.438025     1389 7.8025298e-12 7.2416341e-05            0         1162          227 
Loop time of 0.438049 on 4 procs for 1000 steps with 1389 atoms

99.5% CPU use with 4 MPI tasks x no OpenMP threads
timestep 720
fix_modify k1 demflag 0
fix_modify d1 demflag 0
fix_modify vf1 demflag 0
Step CPU Atoms biomass c_myHeight c_myNtype[1] c_myNtype[2] c_myNtype[3] 
   60060            0     1389 7.8025298e-12 7.2416341e-05            0         1162          227 
number of iterations: 76835 
maxz = 8.806178e-05 
S-sub-bulk = 1.394511e-02
S-sub-base = 1.248281e-02
S-nh4-bulk = 2.586284e-03
S-nh4-base = 2.388333e-03

   60061     7.502497     1434 8.0362763e-12 7.2593956e-05            0         1200          234 
Loop time of 7.50251 on 4 procs for 1 steps with 1434 atoms

100.0% CPU use with 4 MPI tasks x no OpenMP threads
fix_modify k1 demflag 1
fix_modify d1 demflag 1
fix_modify vf1 demflag 1
timestep 0.1
run 1000 pre no post no
Step CPU Atoms biomass c_myHeight c_myNtype[1] c_myNtype[2] c_myNtype[3] 
   60061            0     1434 8.0362763e-12 7.2593956e-05            0         1200          234 
   61061   0.38767409     1434 8.0362763e-12 7.4379042e-05            0         1200          234 
Loop time of 0.387696 on 4 procs for 1000 steps with 1434 atoms

99.9% CPU use with 4 MPI tasks x no OpenMP threads
timestep 720
fix_modify k1 demflag 0
fix_modify d1 demflag 0
fix_modify vf1 demflag 0
Step CPU Atoms biomass c_myHeight c_myNtype[1] c_myNtype[2] c_myNtype[3] 
   61061            0     1434 8.0362763e-12 7.4379042e-05            0         1200          234 
number of iterations: 106991 
maxz = 8.962478e-05 
S-sub-bulk = 1.350788e-02
S-sub-base = 1.164756e-02
S-nh4-bulk = 2.561267e-03
S-nh4-base = 2.321817e-03

   61062    13.090783     1481 8.2734325e-12 7.4630569e-05            0         1245          236 
Loop time of 13.0908 on 4 procs for 1 steps with 1481 atoms

100.0% CPU use with 4 MPI tasks x no OpenMP threads
fix_modify k1 demflag 1
fix_modify d1 demflag 1
fix_modify vf1 demflag 1
timestep 0.1
run 1000 pre no post no
Step CPU Atoms biomass c_myHeight c_myNtype[1] c_myNtype[2] c_myNtype[3] 
   61062            0     1481 8.2734325e-12 7.4630569e-05            0         1245          236 
   62062   0.42228818     1481 8.2734325e-12 7.6365454e-05            0         1245          236 
Loop time of 0.42231 on 4 procs for 1000 steps with 1481 atoms

99.7% CPU use with 4 MPI tasks x no OpenMP threads
timestep 720
fix_modify k1 demflag 0
fix_modify d1 demflag 0
fix_modify vf1 demflag 0
Step CPU Atoms biomass c_myHeight c_myNtype[1] c_myNtype[2] c_myNtype[3] 
   62062            0     1481 8.2734325e-12 7.6365454e-05            0         1245          236 
number of iterations: 89067 
maxz = 9.081097e-05 
S-sub-bulk = 1.306749e-02
S-sub-base = 1.118551e-02
S-nh4-bulk = 2.535710e-03
S-nh4-base = 2.297162e-03

   62063     9.382715     1537 8.5157833e-12 7.6542804e-05            0         1293          244 
Loop time of 9.38273 on 4 procs for 1 steps with 1537 atoms

100.0% CPU use with 4 MPI tasks x no OpenMP threads
fix_modify k1 demflag 1
fix_modify d1 demflag 1
fix_modify vf1 demflag 1
timestep 0.1
run 1000 pre no post no
Step CPU Atoms biomass c_myHeight c_myNtype[1] c_myNtype[2] c_myNtype[3] 
   62063            0     1537 8.5157833e-12 7.6542804e-05            0         1293          244 
   63063   0.44612312     1537 8.5157833e-12 7.8181695e-05            0         1293          244 
Loop time of 0.446144 on 4 procs for 1000 steps with 1537 atoms

99.9% CPU use with 4 MPI tasks x no OpenMP threads
timestep 720
fix_modify k1 demflag 0
fix_modify d1 demflag 0
fix_modify vf1 demflag 0
Step CPU Atoms biomass c_myHeight c_myNtype[1] c_myNtype[2] c_myNtype[3] 
   63063            0     1537 8.5157833e-12 7.8181695e-05            0         1293          244 
number of iterations: 89585 
maxz = 9.316496e-05 
S-sub-bulk = 1.262470e-02
S-sub-base = 1.073069e-02
S-nh4-bulk = 2.509489e-03
S-nh4-base = 2.275469e-03

   63064    9.4112461     1597 8.7632852e-12 7.8420477e-05            0         1345          252 
Loop time of 9.41127 on 4 procs for 1 steps with 1597 atoms

99.9% CPU use with 4 MPI tasks x no OpenMP threads
fix_modify k1 demflag 1
fix_modify d1 demflag 1
fix_modify vf1 demflag 1
timestep 0.1
run 1000 pre no post no
Step CPU Atoms biomass c_myHeight c_myNtype[1] c_myNtype[2] c_myNtype[3] 
   63064            0     1597 8.7632852e-12 7.8420477e-05            0         1345          252 
   64064   0.60312319     1597 8.7632852e-12 7.9990531e-05            0         1345          252 
Loop time of 0.60315 on 4 procs for 1000 steps with 1597 atoms

99.8% CPU use with 4 MPI tasks x no OpenMP threads
timestep 720
fix_modify k1 demflag 0
fix_modify d1 demflag 0
fix_modify vf1 demflag 0
Step CPU Atoms biomass c_myHeight c_myNtype[1] c_myNtype[2] c_myNtype[3] 
   64064            0     1597 8.7632852e-12 7.9990531e-05            0         1345          252 
number of iterations: 90830 
maxz = 9.515647e-05 
S-sub-bulk = 1.218199e-02
S-sub-base = 1.026995e-02
S-nh4-bulk = 2.482704e-03
S-nh4-base = 2.251459e-03

   64065    9.2483401     1654 9.0157176e-12 8.0167716e-05            0         1393          261 
Loop time of 9.24836 on 4 procs for 1 steps with 1654 atoms

99.9% CPU use with 4 MPI tasks x no OpenMP threads
fix_modify k1 demflag 1
fix_modify d1 demflag 1
fix_modify vf1 demflag 1
timestep 0.1
run 1000 pre no post no
Step CPU Atoms biomass c_myHeight c_myNtype[1] c_myNtype[2] c_myNtype[3] 
   64065            0     1654 9.0157176e-12 8.0167716e-05            0         1393          261 
   65065   0.53029513     1654 9.0157176e-12 8.2286074e-05            0         1393          261 
Loop time of 0.530317 on 4 procs for 1000 steps with 1654 atoms

100.0% CPU use with 4 MPI tasks x no OpenMP threads
timestep 720
fix_modify k1 demflag 0
fix_modify d1 demflag 0
fix_modify vf1 demflag 0
Step CPU Atoms biomass c_myHeight c_myNtype[1] c_myNtype[2] c_myNtype[3] 
   65065            0     1654 9.0157176e-12 8.2286074e-05            0         1393          261 
number of iterations: 91307 
maxz = 9.653091e-05 
S-sub-bulk = 1.174039e-02
S-sub-base = 9.817221e-03
S-nh4-bulk = 2.455464e-03
S-nh4-base = 2.227273e-03

   65066     9.575202     1690 9.2729653e-12 8.2451197e-05            0         1424          266 
Loop time of 9.57522 on 4 procs for 1 steps with 1690 atoms

100.0% CPU use with 4 MPI tasks x no OpenMP threads
fix_modify k1 demflag 1
fix_modify d1 demflag 1
fix_modify vf1 demflag 1
timestep 0.1
run 1000 pre no post no
Step CPU Atoms biomass c_myHeight c_myNtype[1] c_myNtype[2] c_myNtype[3] 
   65066            0     1690 9.2729653e-12 8.2451197e-05            0         1424          266 
   66066   0.50359488     1690 9.2729653e-12 8.3948279e-05            0         1424          266 
Loop time of 0.503619 on 4 procs for 1000 steps with 1690 atoms

100.0% CPU use with 4 MPI tasks x no OpenMP threads
timestep 720
fix_modify k1 demflag 0
fix_modify d1 demflag 0
fix_modify vf1 demflag 0
Step CPU Atoms biomass c_myHeight c_myNtype[1] c_myNtype[2] c_myNtype[3] 
   66066            0     1690 9.2729653e-12 8.3948279e-05            0         1424          266 
number of iterations: 126755 
maxz = 9.907507e-05 
S-sub-bulk = 1.133876e-02
S-sub-base = 8.973066e-03
S-nh4-bulk = 2.431672e-03
S-nh4-base = 2.160178e-03

   66067    16.199775     1746 9.5312019e-12 8.4141028e-05            0         1470          276 
Loop time of 16.1998 on 4 procs for 1 steps with 1746 atoms

100.0% CPU use with 4 MPI tasks x no OpenMP threads
fix_modify k1 demflag 1
fix_modify d1 demflag 1
fix_modify vf1 demflag 1
timestep 0.1
run 1000 pre no post no
Step CPU Atoms biomass c_myHeight c_myNtype[1] c_myNtype[2] c_myNtype[3] 
   66067            0     1746 9.5312019e-12 8.4141028e-05            0         1470          276 
   67067   0.54781199     1746 9.5312019e-12 8.5853086e-05            0         1470          276 
Loop time of 0.547841 on 4 procs for 1000 steps with 1746 atoms

100.0% CPU use with 4 MPI tasks x no OpenMP threads
timestep 720
fix_modify k1 demflag 0
fix_modify d1 demflag 0
fix_modify vf1 demflag 0
Step CPU Atoms biomass c_myHeight c_myNtype[1] c_myNtype[2] c_myNtype[3] 
   67067            0     1746 9.5312019e-12 8.5853086e-05            0         1470          276 
number of iterations: 101194 
maxz = 1.023557e-04 
S-sub-bulk = 1.093917e-02
S-sub-base = 8.559274e-03
S-nh4-bulk = 2.407482e-03
S-nh4-base = 2.135126e-03

   67068    11.451013     1793 9.7936143e-12  8.58811e-05            0         1509          284 
Loop time of 11.451 on 4 procs for 1 steps with 1793 atoms

100.0% CPU use with 4 MPI tasks x no OpenMP threads
fix_modify k1 demflag 1
fix_modify d1 demflag 1
fix_modify vf1 demflag 1
timestep 0.1
run 1000 pre no post no
Step CPU Atoms biomass c_myHeight c_myNtype[1] c_myNtype[2] c_myNtype[3] 
   67068            0     1793 9.7936143e-12  8.58811e-05            0         1509          284 
   68068   0.56916785     1793 9.7936143e-12 8.7763427e-05            0         1509          284 
Loop time of 0.569191 on 4 procs for 1000 steps with 1793 atoms

100.0% CPU use with 4 MPI tasks x no OpenMP threads
timestep 720
fix_modify k1 demflag 0
fix_modify d1 demflag 0
fix_modify vf1 demflag 0
Step CPU Atoms biomass c_myHeight c_myNtype[1] c_myNtype[2] c_myNtype[3] 
   68068            0     1793 9.7936143e-12 8.7763427e-05            0         1509          284 
number of iterations: 101254 
[...]
  810810    1.3893051    12556 6.1910472e-11 0.00055431516            0        11497         1059 
Loop time of 1.38934 on 4 procs for 1000 steps with 12556 atoms

99.9% CPU use with 4 MPI tasks x no OpenMP threads
timestep 720
fix_modify k1 demflag 0
fix_modify d1 demflag 0
fix_modify vf1 demflag 0
Step CPU Atoms biomass c_myHeight c_myNtype[1] c_myNtype[2] c_myNtype[3] 
  810810            0    12556 6.1910472e-11 0.00055431516            0        11497         1059 
number of iterations: 1347 
maxz = 2.998891e-04 
S-sub-bulk = 4.782071e-03
S-sub-base = 7.243662e-06
S-nh4-bulk = 1.808662e-03
S-nh4-base = 1.489198e-04

  810811   0.52226305    12556 6.1910472e-11 0.00055432516            0        11497         1059 
Loop time of 0.522281 on 4 procs for 1 steps with 12556 atoms

100.0% CPU use with 4 MPI tasks x no OpenMP threads
fix_modify k1 demflag 1
fix_modify d1 demflag 1
fix_modify vf1 demflag 1
timestep 0.1
run 1000 pre no post no
Step CPU Atoms biomass c_myHeight c_myNtype[1] c_myNtype[2] c_myNtype[3] 
  810811            0    12556 6.1910472e-11 0.00055432516            0        11497         1059 
  811811     1.412421    12556 6.1910472e-11 0.00055432657            0        11497         1059 
Loop time of 1.41245 on 4 procs for 1000 steps with 12556 atoms

99.8% CPU use with 4 MPI tasks x no OpenMP threads
timestep 720
fix_modify k1 demflag 0
fix_modify d1 demflag 0
fix_modify vf1 demflag 0
Step CPU Atoms biomass c_myHeight c_myNtype[1] c_myNtype[2] c_myNtype[3] 
  811811            0    12556 6.1910472e-11 0.00055432657            0        11497         1059 
number of iterations: 956 
maxz = 2.999131e-04 
S-sub-bulk = 4.782704e-03
S-sub-base = 7.243944e-06
S-nh4-bulk = 1.808684e-03
S-nh4-base = 1.489177e-04

  811812   0.40176511    12556 6.1910472e-11 0.0005543177            0        11497         1059 
Loop time of 0.401783 on 4 procs for 1 steps with 12556 atoms

99.8% CPU use with 4 MPI tasks x no OpenMP threads
fix_modify k1 demflag 1
fix_modify d1 demflag 1
fix_modify vf1 demflag 1
timestep 0.1
run 1000 pre no post no
Step CPU Atoms biomass c_myHeight c_myNtype[1] c_myNtype[2] c_myNtype[3] 
  811812            0    12556 6.1910472e-11 0.0005543177            0        11497         1059 
  812812    1.3980081    12556 6.1910472e-11 0.0005543184            0        11497         1059 
Loop time of 1.39804 on 4 procs for 1000 steps with 12556 atoms

99.9% CPU use with 4 MPI tasks x no OpenMP threads
timestep 720
fix_modify k1 demflag 0
fix_modify d1 demflag 0
fix_modify vf1 demflag 0
Step CPU Atoms biomass c_myHeight c_myNtype[1] c_myNtype[2] c_myNtype[3] 
  812812            0    12556 6.1910472e-11 0.0005543184            0        11497         1059 
number of iterations: 841 
maxz = 2.998396e-04 
S-sub-bulk = 4.782826e-03
S-sub-base = 7.243768e-06
S-nh4-bulk = 1.808796e-03
S-nh4-base = 1.489364e-04

  812813   0.38655686    12556 6.1910472e-11 0.00055432656            0        11497         1059 
Loop time of 0.386575 on 4 procs for 1 steps with 12556 atoms

100.0% CPU use with 4 MPI tasks x no OpenMP threads
fix_modify k1 demflag 1
fix_modify d1 demflag 1
fix_modify vf1 demflag 1
timestep 0.1
run 1000 pre no post no
Step CPU Atoms biomass c_myHeight c_myNtype[1] c_myNtype[2] c_myNtype[3] 
  812813            0    12556 6.1910472e-11 0.00055432656            0        11497         1059 
  813813      1.40272    12556 6.1910472e-11 0.00055432656            0        11497         1059 
Loop time of 1.40275 on 4 procs for 1000 steps with 12556 atoms

100.0% CPU use with 4 MPI tasks x no OpenMP threads
timestep 720
fix_modify k1 demflag 0
fix_modify d1 demflag 0
fix_modify vf1 demflag 0
Step CPU Atoms biomass c_myHeight c_myNtype[1] c_myNtype[2] c_myNtype[3] 
  813813            0    12556 6.1910472e-11 0.00055432656            0        11497         1059 
number of iterations: 885 
maxz = 2.999162e-04 
S-sub-bulk = 4.783190e-03
S-sub-base = 7.243632e-06
S-nh4-bulk = 1.808846e-03
S-nh4-base = 1.489286e-04

  813814   0.41321993    12556 6.1910472e-11 0.0005543184            0        11497         1059 
Loop time of 0.413239 on 4 procs for 1 steps with 12556 atoms

100.0% CPU use with 4 MPI tasks x no OpenMP threads
fix_modify k1 demflag 1
fix_modify d1 demflag 1
fix_modify vf1 demflag 1
timestep 0.1
run 1000 pre no post no
Step CPU Atoms biomass c_myHeight c_myNtype[1] c_myNtype[2] c_myNtype[3] 
  813814            0    12556 6.1910472e-11 0.0005543184            0        11497         1059 
  814814    1.3619668    12556 6.1910472e-11 0.0005543184            0        11497         1059 
Loop time of 1.362 on 4 procs for 1000 steps with 12556 atoms

100.0% CPU use with 4 MPI tasks x no OpenMP threads
timestep 720
fix_modify k1 demflag 0
fix_modify d1 demflag 0
fix_modify vf1 demflag 0
Step CPU Atoms biomass c_myHeight c_myNtype[1] c_myNtype[2] c_myNtype[3] 
  814814            0    12556 6.1910472e-11 0.0005543184            0        11497         1059 
number of iterations: 926 
maxz = 2.997808e-04 
S-sub-bulk = 4.783237e-03
S-sub-base = 7.242985e-06
S-nh4-bulk = 1.808912e-03
S-nh4-base = 1.489451e-04

  814815   0.36968613    12556 6.1910472e-11 0.00055432755            0        11497         1059 
Loop time of 0.369703 on 4 procs for 1 steps with 12556 atoms

100.0% CPU use with 4 MPI tasks x no OpenMP threads
fix_modify k1 demflag 1
fix_modify d1 demflag 1
fix_modify vf1 demflag 1
timestep 0.1
run 1000 pre no post no
Step CPU Atoms biomass c_myHeight c_myNtype[1] c_myNtype[2] c_myNtype[3] 
  814815            0    12556 6.1910472e-11 0.00055432755            0        11497         1059 
  815815    1.3864009    12556 6.1910472e-11 0.00055432911            0        11497         1059 
Loop time of 1.38643 on 4 procs for 1000 steps with 12556 atoms

99.9% CPU use with 4 MPI tasks x no OpenMP threads
timestep 720
fix_modify k1 demflag 0
fix_modify d1 demflag 0
fix_modify vf1 demflag 0
Step CPU Atoms biomass c_myHeight c_myNtype[1] c_myNtype[2] c_myNtype[3] 
  815815            0    12556 6.1910472e-11 0.00055432911            0        11497         1059 
number of iterations: 1185 
maxz = 2.999831e-04 
S-sub-bulk = 4.783035e-03
S-sub-base = 7.243191e-06
S-nh4-bulk = 1.808982e-03
S-nh4-base = 1.489406e-04

  815816   0.43643713    12556 6.1910472e-11 0.0005543209            0        11497         1059 
Loop time of 0.436454 on 4 procs for 1 steps with 12556 atoms

100.0% CPU use with 4 MPI tasks x no OpenMP threads
fix_modify k1 demflag 1
fix_modify d1 demflag 1
fix_modify vf1 demflag 1
timestep 0.1
run 1000 pre no post no
Step CPU Atoms biomass c_myHeight c_myNtype[1] c_myNtype[2] c_myNtype[3] 
  815816            0    12556 6.1910472e-11 0.0005543209            0        11497         1059 
  816816     1.364146    12556 6.1910472e-11 0.00055432847            0        11497         1059 
Loop time of 1.36418 on 4 procs for 1000 steps with 12556 atoms

99.9% CPU use with 4 MPI tasks x no OpenMP threads
timestep 720
fix_modify k1 demflag 0
fix_modify d1 demflag 0
fix_modify vf1 demflag 0
Step CPU Atoms biomass c_myHeight c_myNtype[1] c_myNtype[2] c_myNtype[3] 
  816816            0    12556 6.1910472e-11 0.00055432847            0        11497         1059 
number of iterations: 1129 
maxz = 2.999861e-04 
S-sub-bulk = 4.782586e-03
S-sub-base = 7.242753e-06
S-nh4-bulk = 1.808919e-03
S-nh4-base = 1.489564e-04

  816817   0.41848707    12556 6.1910472e-11 0.00055433408            0        11497         1059 
Loop time of 0.418505 on 4 procs for 1 steps with 12556 atoms

100.0% CPU use with 4 MPI tasks x no OpenMP threads
fix_modify k1 demflag 1
fix_modify d1 demflag 1
fix_modify vf1 demflag 1
timestep 0.1
run 1000 pre no post no
Step CPU Atoms biomass c_myHeight c_myNtype[1] c_myNtype[2] c_myNtype[3] 
  816817            0    12556 6.1910472e-11 0.00055433408            0        11497         1059 
  817817     1.413758    12556 6.1910472e-11 0.00055434081            0        11497         1059 
Loop time of 1.41379 on 4 procs for 1000 steps with 12556 atoms

100.0% CPU use with 4 MPI tasks x no OpenMP threads
timestep 720
fix_modify k1 demflag 0
fix_modify d1 demflag 0
fix_modify vf1 demflag 0
Step CPU Atoms biomass c_myHeight c_myNtype[1] c_myNtype[2] c_myNtype[3] 
  817817            0    12556 6.1910472e-11 0.00055434081            0        11497         1059 
number of iterations: 1383 
maxz = 2.999423e-04 
S-sub-bulk = 4.782099e-03
S-sub-base = 7.242830e-06
S-nh4-bulk = 1.808831e-03
S-nh4-base = 1.489524e-04

  817818   0.54055405    12556 6.1910472e-11 0.00055433528            0        11497         1059 
Loop time of 0.540572 on 4 procs for 1 steps with 12556 atoms

100.0% CPU use with 4 MPI tasks x no OpenMP threads
fix_modify k1 demflag 1
fix_modify d1 demflag 1
fix_modify vf1 demflag 1
timestep 0.1
run 1000 pre no post no
Step CPU Atoms biomass c_myHeight c_myNtype[1] c_myNtype[2] c_myNtype[3] 
  817818            0    12556 6.1910472e-11 0.00055433528            0        11497         1059 
  818818     1.366658    12556 6.1910472e-11 0.00055433597            0        11497         1059 
Loop time of 1.36669 on 4 procs for 1000 steps with 12556 atoms

100.0% CPU use with 4 MPI tasks x no OpenMP threads
timestep 720
fix_modify k1 demflag 0
fix_modify d1 demflag 0
fix_modify vf1 demflag 0
Step CPU Atoms biomass c_myHeight c_myNtype[1] c_myNtype[2] c_myNtype[3] 
  818818            0    12556 6.1910472e-11 0.00055433597            0        11497         1059 
number of iterations: 1687 
maxz = 2.999917e-04 
S-sub-bulk = 4.781939e-03
S-sub-base = 7.242478e-06
S-nh4-bulk = 1.808717e-03
S-nh4-base = 1.489538e-04

  818819   0.55385709    12556 6.1910472e-11 0.00055434358            0        11497         1059 
Loop time of 0.553875 on 4 procs for 1 steps with 12556 atoms

100.0% CPU use with 4 MPI tasks x no OpenMP threads
fix_modify k1 demflag 1
fix_modify d1 demflag 1
fix_modify vf1 demflag 1
timestep 0.1
run 1000 pre no post no
Step CPU Atoms biomass c_myHeight c_myNtype[1] c_myNtype[2] c_myNtype[3] 
  818819            0    12556 6.1910472e-11 0.00055434358            0        11497         1059 
  819819    1.3380949    12556 6.1910472e-11 0.00055434376            0        11497         1059 
Loop time of 1.33813 on 4 procs for 1000 steps with 12556 atoms

100.0% CPU use with 4 MPI tasks x no OpenMP threads
timestep 720
fix_modify k1 demflag 0
fix_modify d1 demflag 0
fix_modify vf1 demflag 0
Step CPU Atoms biomass c_myHeight c_myNtype[1] c_myNtype[2] c_myNtype[3] 
  819819            0    12556 6.1910472e-11 0.00055434376            0        11497         1059 
number of iterations: 1011 
maxz = 2.999167e-04 
S-sub-bulk = 4.781700e-03
S-sub-base = 7.242713e-06
S-nh4-bulk = 1.808735e-03
S-nh4-base = 1.489733e-04

  819820   0.41621113    12556 6.1910472e-11 0.00055433619            0        11497         1059 
Loop time of 0.416228 on 4 procs for 1 steps with 12556 atoms

100.0% CPU use with 4 MPI tasks x no OpenMP threads
fix_modify k1 demflag 1
fix_modify d1 demflag 1
fix_modify vf1 demflag 1
timestep 0.1
run 1000 pre no post no
Step CPU Atoms biomass c_myHeight c_myNtype[1] c_myNtype[2] c_myNtype[3] 
  819820            0    12556 6.1910472e-11 0.00055433619            0        11497         1059 
  820820     1.348809    12556 6.1910472e-11 0.00055434025            0        11497         1059 
Loop time of 1.34884 on 4 procs for 1000 steps with 12556 atoms

100.0% CPU use with 4 MPI tasks x no OpenMP threads
timestep 720
fix_modify k1 demflag 0
fix_modify d1 demflag 0
fix_modify vf1 demflag 0
Step CPU Atoms biomass c_myHeight c_myNtype[1] c_myNtype[2] c_myNtype[3] 
  820820            0    12556 6.1910472e-11 0.00055434025            0        11497         1059 
number of iterations: 1244 
maxz = 2.998647e-04 
S-sub-bulk = 4.781990e-03
S-sub-base = 7.242759e-06
S-nh4-bulk = 1.808739e-03
S-nh4-base = 1.489806e-04

  820821   0.46704817    12556 6.1910472e-11 0.00055434908            0        11497         1059 
Loop time of 0.467066 on 4 procs for 1 steps with 12556 atoms

100.0% CPU use with 4 MPI tasks x no OpenMP threads
fix_modify k1 demflag 1
fix_modify d1 demflag 1
fix_modify vf1 demflag 1
timestep 0.1
run 1000 pre no post no
Step CPU Atoms biomass c_myHeight c_myNtype[1] c_myNtype[2] c_myNtype[3] 
  820821            0    12556 6.1910472e-11 0.00055434908            0        11497         1059 
  821821    1.3194489    12556 6.1910472e-11 0.00055434952            0        11497         1059 
Loop time of 1.31948 on 4 procs for 1000 steps with 12556 atoms

100.0% CPU use with 4 MPI tasks x no OpenMP threads
timestep 720
fix_modify k1 demflag 0
fix_modify d1 demflag 0
fix_modify vf1 demflag 0
Step CPU Atoms biomass c_myHeight c_myNtype[1] c_myNtype[2] c_myNtype[3] 
  821821            0    12556 6.1910472e-11 0.00055434952            0        11497         1059 
number of iterations: 1102 
maxz = 2.999317e-04 
S-sub-bulk = 4.782275e-03
S-sub-base = 7.242711e-06
S-nh4-bulk = 1.808795e-03
S-nh4-base = 1.489852e-04

  821822   0.41322494    12556 6.1910472e-11 0.0005543432            0        11497         1059 
Loop time of 0.413243 on 4 procs for 1 steps with 12556 atoms

100.0% CPU use with 4 MPI tasks x no OpenMP threads
fix_modify k1 demflag 1
fix_modify d1 demflag 1
fix_modify vf1 demflag 1
timestep 0.1
run 1000 pre no post no
Step CPU Atoms biomass c_myHeight c_myNtype[1] c_myNtype[2] c_myNtype[3] 
  821822            0    12556 6.1910472e-11 0.0005543432            0        11497         1059 
  822822     1.390589    12556 6.1910472e-11 0.00055434902            0        11497         1059 
Loop time of 1.39062 on 4 procs for 1000 steps with 12556 atoms

100.0% CPU use with 4 MPI tasks x no OpenMP threads
timestep 720
fix_modify k1 demflag 0
fix_modify d1 demflag 0
fix_modify vf1 demflag 0
Step CPU Atoms biomass c_myHeight c_myNtype[1] c_myNtype[2] c_myNtype[3] 
  822822            0    12556 6.1910472e-11 0.00055434902            0        11497         1059 
number of iterations: 957 
maxz = 2.999529e-04 
S-sub-bulk = 4.782106e-03
S-sub-base = 7.242803e-06
S-nh4-bulk = 1.808892e-03
S-nh4-base = 1.489765e-04

  822823   0.41990995    12556 6.1910472e-11 0.00055435561            0        11497         1059 
Loop time of 0.419929 on 4 procs for 1 steps with 12556 atoms

99.8% CPU use with 4 MPI tasks x no OpenMP threads
fix_modify k1 demflag 1
fix_modify d1 demflag 1
fix_modify vf1 demflag 1
timestep 0.1
run 1000 pre no post no
Step CPU Atoms biomass c_myHeight c_myNtype[1] c_myNtype[2] c_myNtype[3] 
  822823            0    12556 6.1910472e-11 0.00055435561            0        11497         1059 
  823823     1.440695    12556 6.1910472e-11 0.00055440613            0        11497         1059 
Loop time of 1.44073 on 4 procs for 1000 steps with 12556 atoms

99.9% CPU use with 4 MPI tasks x no OpenMP threads
timestep 720
fix_modify k1 demflag 0
fix_modify d1 demflag 0
fix_modify vf1 demflag 0
Step CPU Atoms biomass c_myHeight c_myNtype[1] c_myNtype[2] c_myNtype[3] 
  823823            0    12556 6.1910472e-11 0.00055440613            0        11497         1059 
number of iterations: 1301 
maxz = 2.999403e-04 
S-sub-bulk = 4.782421e-03
S-sub-base = 7.243022e-06
S-nh4-bulk = 1.808907e-03
S-nh4-base = 1.489723e-04

  823824   0.53918695    12556 6.1910472e-11 0.00055436837            0        11497         1059 
Loop time of 0.539206 on 4 procs for 1 steps with 12556 atoms

100.0% CPU use with 4 MPI tasks x no OpenMP threads
fix_modify k1 demflag 1
fix_modify d1 demflag 1
fix_modify vf1 demflag 1
timestep 0.1
run 1000 pre no post no
Step CPU Atoms biomass c_myHeight c_myNtype[1] c_myNtype[2] c_myNtype[3] 
  823824            0    12556 6.1910472e-11 0.00055436837            0        11497         1059 
  824824     1.435632    12556 6.1910472e-11 0.00055437099            0        11497         1059 
Loop time of 1.43567 on 4 procs for 1000 steps with 12556 atoms

100.0% CPU use with 4 MPI tasks x no OpenMP threads
timestep 720
fix_modify k1 demflag 0
fix_modify d1 demflag 0
fix_modify vf1 demflag 0
Step CPU Atoms biomass c_myHeight c_myNtype[1] c_myNtype[2] c_myNtype[3] 
  824824            0    12556 6.1910472e-11 0.00055437099            0        11497         1059 
number of iterations: 948 
maxz = 2.999804e-04 
S-sub-bulk = 4.782247e-03
S-sub-base = 7.243150e-06
S-nh4-bulk = 1.808911e-03
S-nh4-base = 1.489768e-04

  824825   0.39089394    12556 6.1910472e-11 0.00055440951            0        11497         1059 
Loop time of 0.390913 on 4 procs for 1 steps with 12556 atoms

100.0% CPU use with 4 MPI tasks x no OpenMP threads
fix_modify k1 demflag 1
fix_modify d1 demflag 1
fix_modify vf1 demflag 1
timestep 0.1
run 1000 pre no post no
Step CPU Atoms biomass c_myHeight c_myNtype[1] c_myNtype[2] c_myNtype[3] 
  824825            0    12556 6.1910472e-11 0.00055440951            0        11497         1059 
  825825    1.3456681    12556 6.1910472e-11 0.00055440943            0        11497         1059 
Loop time of 1.3457 on 4 procs for 1000 steps with 12556 atoms

99.9% CPU use with 4 MPI tasks x no OpenMP threads
timestep 720
fix_modify k1 demflag 0
fix_modify d1 demflag 0
fix_modify vf1 demflag 0
Step CPU Atoms biomass c_myHeight c_myNtype[1] c_myNtype[2] c_myNtype[3] 
  825825            0    12556 6.1910472e-11 0.00055440943            0        11497         1059 
number of iterations: 957 
maxz = 2.999498e-04 
S-sub-bulk = 4.782646e-03
S-sub-base = 7.242693e-06
S-nh4-bulk = 1.808952e-03
S-nh4-base = 1.489822e-04

  825826   0.45240211    12556 6.1910472e-11 0.00055437245            0        11497         1059 
Loop time of 0.45242 on 4 procs for 1 steps with 12556 atoms

100.0% CPU use with 4 MPI tasks x no OpenMP threads
fix_modify k1 demflag 1
fix_modify d1 demflag 1
fix_modify vf1 demflag 1
timestep 0.1
run 1000 pre no post no
Step CPU Atoms biomass c_myHeight c_myNtype[1] c_myNtype[2] c_myNtype[3] 
  825826            0    12556 6.1910472e-11 0.00055437245            0        11497         1059 
  826826    1.5586371    12556 6.1910472e-11 0.00055437317            0        11497         1059 
Loop time of 1.55867 on 4 procs for 1000 steps with 12556 atoms

100.0% CPU use with 4 MPI tasks x no OpenMP threads
timestep 720
fix_modify k1 demflag 0
fix_modify d1 demflag 0
fix_modify vf1 demflag 0
Step CPU Atoms biomass c_myHeight c_myNtype[1] c_myNtype[2] c_myNtype[3] 
  826826            0    12556 6.1910472e-11 0.00055437317            0        11497         1059 
number of iterations: 1196 
maxz = 2.999221e-04 
S-sub-bulk = 4.782727e-03
S-sub-base = 7.242530e-06
S-nh4-bulk = 1.808916e-03
S-nh4-base = 1.489869e-04

  826827   0.51107883    12556 6.1910472e-11 0.00055440931            0        11497         1059 
Loop time of 0.511097 on 4 procs for 1 steps with 12556 atoms

99.8% CPU use with 4 MPI tasks x no OpenMP threads
fix_modify k1 demflag 1
fix_modify d1 demflag 1
fix_modify vf1 demflag 1
timestep 0.1
run 1000 pre no post no
Step CPU Atoms biomass c_myHeight c_myNtype[1] c_myNtype[2] c_myNtype[3] 
  826827            0    12556 6.1910472e-11 0.00055440931            0        11497         1059 
  827827    1.5404429    12556 6.1910472e-11 0.00055438512            0        11497         1059 
Loop time of 1.54047 on 4 procs for 1000 steps with 12556 atoms

100.0% CPU use with 4 MPI tasks x no OpenMP threads
timestep 720
fix_modify k1 demflag 0
fix_modify d1 demflag 0
fix_modify vf1 demflag 0
Step CPU Atoms biomass c_myHeight c_myNtype[1] c_myNtype[2] c_myNtype[3] 
  827827            0    12556 6.1910472e-11 0.00055438512            0        11497         1059 
number of iterations: 1032 
maxz = 2.999544e-04 
S-sub-bulk = 4.782693e-03
S-sub-base = 7.242516e-06
S-nh4-bulk = 1.808972e-03
S-nh4-base = 1.489890e-04

  827828   0.45583701    12556 6.1910472e-11 0.00055434979            0        11497         1059 
Loop time of 0.455855 on 4 procs for 1 steps with 12556 atoms

100.0% CPU use with 4 MPI tasks x no OpenMP threads
