LAMMPS (5 Nov 2016)
# NUFEB simulation

units si
atom_style      bio
atom_modify     map array sort 1000 5.0e-6
boundary        pp pp ff
newton          off
processors 2 1 2

comm_modify     vel yes

read_data_bio atom.in
  orthogonal box = (0 0 0) to (0.0004 3e-05 0.0006)
  2 by 1 by 2 MPI processor grid
  reading atoms ...
  0 atoms
  5 nutrients

group HET type 1
0 atoms in group HET
group AOB type 2
0 atoms in group AOB

variable  x equal 40
variable  y equal 3
variable  z equal 2

lattice sc 2e-5 origin 0.75 0.5 0.5
Lattice spacing in x,y,z = 2e-05 2e-05 2e-05
region reg block 0 $x 0 $y 0 $z
region reg block 0 40 0 $y 0 $z
region reg block 0 40 0 3 0 $z
region reg block 0 40 0 3 0 2
create_atoms 1 random 100 5345 reg
Created 100 atoms

#lattice sc 2e-5 origin 0.25 0.5 0.5
region reg2 block 0 $x 0 $y 0 $z
region reg2 block 0 40 0 $y 0 $z
region reg2 block 0 40 0 3 0 $z
region reg2 block 0 40 0 3 0 2
create_atoms 2 random 100 42342 reg
Created 100 atoms

neighbor        5e-7 bin

set type 1 diameter 9.5e-6
  100 settings made for diameter
set type 1 density 14.8
  100 settings made for density
set type 2 diameter 9.5e-6
  100 settings made for diameter
set type 2 density 14.8
  100 settings made for density

neigh_modify    delay 0 one 2000

##############Define DEM Variables&Commands##############

pair_style  gran/hooke/history 1.e-4 NULL 1.e-5 NULL 0.0 1
pair_coeff  * *

timestep 720

variable kanc equal 50

fix 1 all nve/limit 1e-7
fix fv all viscous 1e-5

fix zw all wall/gran hooke/history 2000 NULL 500.0 NULL 1.5 0 zplane  0.0  6e-04

fix zwa all walladh v_kanc zplane  0.0   6e-04

variable ke equal 5e+10
fix j1 all epsadh 1 v_ke 1

##############Define IBm Variables##############

#EPS density, ratio variables and division diameter
variable EPSdens equal 30
variable EPSratio equal 1.25
variable divDia equal 1e-5

#kinetics variables
variable etaHET equal 0.0
variable diffT equal 1e-4
variable tol equal 1e-6
variable layer equal 0

##############Define IBm Commands##############

fix k1 all kinetics 1 40 3 60 v_diffT v_layer niter -1 demflag 0
fix kgm all kinetics/growth/monod v_EPSdens v_etaHET
fix g1 all kinetics/diffusion v_tol pp pp nd kg bulk 2.31e-7 1.25e-3 0.1
fix d1 all divide 1 v_EPSdens v_divDia 31231 demflag 0
fix vf1 all verify 1 bm3 demflag 0

##############Simulation Output##############

compute myHeight all avg_height
compute myMass all biomass
compute myNtype all ntypes

dump du0 all bio 5010 biomass ntypes bulk
dump		id all custom 120100 snapshot.bubblemd id type diameter x y z
thermo_style    custom step cpu atoms biomass c_myHeight c_myNtype[*]
thermo          1001
thermo_modify   lost warn

##############Two-loops Run##############

run 3600 pre no post no every 1 "fix_modify k1 demflag 1" "fix_modify d1 demflag 1" "fix_modify vf1 demflag 1" "timestep 0.1" "run 1000 pre no post no" "timestep 720" "fix_modify k1 demflag 0" "fix_modify d1 demflag 0" "fix_modify vf1 demflag 0"
WARNING: EPS is not defined in fix_kinetics/kinetics/monod (../fix_bio_kinetics_monod.cpp:253)
ae = 4.530000e+02, top = 4.464078e-05, base = 4.918342e-06, ave_h = 1.996319e-05 
Neighbor list info ...
  3 neighbor list requests
  update every 1 steps, delay 0 steps, check yes
  max neighbors/atom: 2000, page size: 100000
  master list distance cutoff = 1e-05
  ghost atom cutoff = 1e-05
  binsize = 5e-06 -> bins = 80 6 120
Memory usage per processor = 8.72881 Mbytes
Step CPU Atoms biomass c_myHeight c_myNtype[1] c_myNtype[2] c_myNtype[3] 
       0            0      200 1.3288047e-12 2.1217731e-05            0          100          100 
number of iterations: 9241 
maxz = 4.479554e-05 
       1   0.79451203      200 1.3644801e-12 2.1355035e-05            0          100          100 
Loop time of 0.794529 on 4 procs for 1 steps with 200 atoms

99.9% CPU use with 4 MPI tasks x no OpenMP threads
fix_modify k1 demflag 1
fix_modify d1 demflag 1
fix_modify vf1 demflag 1
timestep 0.1
run 1000 pre no post no
Step CPU Atoms biomass c_myHeight c_myNtype[1] c_myNtype[2] c_myNtype[3] 
       1            0      200 1.3644801e-12 2.1355035e-05            0          100          100 
    1001  0.020250082      200 1.3644801e-12 2.3415694e-05            0          100          100 
Loop time of 0.0202672 on 4 procs for 1000 steps with 200 atoms

100.0% CPU use with 4 MPI tasks x no OpenMP threads
timestep 720
fix_modify k1 demflag 0
fix_modify d1 demflag 0
fix_modify vf1 demflag 0
Step CPU Atoms biomass c_myHeight c_myNtype[1] c_myNtype[2] c_myNtype[3] 
    1001            0      200 1.3644801e-12 2.3415694e-05            0          100          100 
number of iterations: 13228 
maxz = 4.790473e-05 
    1002   0.57651496      200 1.401245e-12  2.33632e-05            0          100          100 
Loop time of 0.576528 on 4 procs for 1 steps with 200 atoms

100.0% CPU use with 4 MPI tasks x no OpenMP threads
fix_modify k1 demflag 1
fix_modify d1 demflag 1
fix_modify vf1 demflag 1
timestep 0.1
run 1000 pre no post no
Step CPU Atoms biomass c_myHeight c_myNtype[1] c_myNtype[2] c_myNtype[3] 
    1002            0      200 1.401245e-12  2.33632e-05            0          100          100 
    2002  0.017149925      200 1.401245e-12 2.3864498e-05            0          100          100 
Loop time of 0.0171666 on 4 procs for 1000 steps with 200 atoms

99.9% CPU use with 4 MPI tasks x no OpenMP threads
timestep 720
fix_modify k1 demflag 0
fix_modify d1 demflag 0
fix_modify vf1 demflag 0
Step CPU Atoms biomass c_myHeight c_myNtype[1] c_myNtype[2] c_myNtype[3] 
    2002            0      200 1.401245e-12 2.3864498e-05            0          100          100 
number of iterations: 12849 
maxz = 4.806100e-05 
    2003   0.56962299      200 1.4391353e-12 2.3484208e-05            0          100          100 
Loop time of 0.569638 on 4 procs for 1 steps with 200 atoms

99.8% CPU use with 4 MPI tasks x no OpenMP threads
fix_modify k1 demflag 1
fix_modify d1 demflag 1
fix_modify vf1 demflag 1
timestep 0.1
run 1000 pre no post no
Step CPU Atoms biomass c_myHeight c_myNtype[1] c_myNtype[2] c_myNtype[3] 
    2003            0      200 1.4391353e-12 2.3484208e-05            0          100          100 
    3003  0.016364098      200 1.4391353e-12 2.3813219e-05            0          100          100 
Loop time of 0.0163794 on 4 procs for 1000 steps with 200 atoms

99.9% CPU use with 4 MPI tasks x no OpenMP threads
timestep 720
fix_modify k1 demflag 0
fix_modify d1 demflag 0
fix_modify vf1 demflag 0
Step CPU Atoms biomass c_myHeight c_myNtype[1] c_myNtype[2] c_myNtype[3] 
    3003            0      200 1.4391353e-12 2.3813219e-05            0          100          100 
number of iterations: 12408 
maxz = 4.821805e-05 
    3004   0.55909801      200 1.4781953e-12 2.3937202e-05            0          100          100 
Loop time of 0.559112 on 4 procs for 1 steps with 200 atoms

99.9% CPU use with 4 MPI tasks x no OpenMP threads
fix_modify k1 demflag 1
fix_modify d1 demflag 1
fix_modify vf1 demflag 1
timestep 0.1
run 1000 pre no post no
Step CPU Atoms biomass c_myHeight c_myNtype[1] c_myNtype[2] c_myNtype[3] 
    3004            0      200 1.4781953e-12 2.3937202e-05            0          100          100 
    4004  0.016210079      200 1.4781953e-12 2.3949946e-05            0          100          100 
Loop time of 0.0162256 on 4 procs for 1000 steps with 200 atoms

99.9% CPU use with 4 MPI tasks x no OpenMP threads
timestep 720
fix_modify k1 demflag 0
fix_modify d1 demflag 0
fix_modify vf1 demflag 0
Step CPU Atoms biomass c_myHeight c_myNtype[1] c_myNtype[2] c_myNtype[3] 
    4004            0      200 1.4781953e-12 2.3949946e-05            0          100          100 
number of iterations: 11962 
maxz = 4.999431e-05 
    4005   0.54678988      300 1.518473e-12 2.8091571e-05            0          200          100 
Loop time of 0.546808 on 4 procs for 1 steps with 300 atoms

99.8% CPU use with 4 MPI tasks x no OpenMP threads
fix_modify k1 demflag 1
fix_modify d1 demflag 1
fix_modify vf1 demflag 1
timestep 0.1
run 1000 pre no post no
Step CPU Atoms biomass c_myHeight c_myNtype[1] c_myNtype[2] c_myNtype[3] 
    4005            0      300 1.518473e-12 2.8091571e-05            0          200          100 
    5005  0.028595924      300 1.518473e-12 2.8705024e-05            0          200          100 
Loop time of 0.028615 on 4 procs for 1000 steps with 300 atoms

100.0% CPU use with 4 MPI tasks x no OpenMP threads
timestep 720
fix_modify k1 demflag 0
fix_modify d1 demflag 0
fix_modify vf1 demflag 0
Step CPU Atoms biomass c_myHeight c_myNtype[1] c_myNtype[2] c_myNtype[3] 
    5005            0      300 1.518473e-12 2.8705024e-05            0          200          100 
number of iterations: 11510 
maxz = 5.011860e-05 
    5006   0.53657889      300 1.560017e-12 2.8752633e-05            0          200          100 
Loop time of 0.536595 on 4 procs for 1 steps with 300 atoms

99.9% CPU use with 4 MPI tasks x no OpenMP threads
fix_modify k1 demflag 1
fix_modify d1 demflag 1
fix_modify vf1 demflag 1
timestep 0.1
run 1000 pre no post no
Step CPU Atoms biomass c_myHeight c_myNtype[1] c_myNtype[2] c_myNtype[3] 
    5006            0      300 1.560017e-12 2.8752633e-05            0          200          100 
    6006  0.027261019      300 1.560017e-12 2.8838126e-05            0          200          100 
Loop time of 0.0272818 on 4 procs for 1000 steps with 300 atoms

100.0% CPU use with 4 MPI tasks x no OpenMP threads
timestep 720
fix_modify k1 demflag 0
fix_modify d1 demflag 0
fix_modify vf1 demflag 0
Step CPU Atoms biomass c_myHeight c_myNtype[1] c_myNtype[2] c_myNtype[3] 
    6006            0      300 1.560017e-12 2.8838126e-05            0          200          100 
number of iterations: 14349 
maxz = 5.009859e-05 
    6007   0.83481288      300 1.6028682e-12 2.878837e-05            0          200          100 
Loop time of 0.834828 on 4 procs for 1 steps with 300 atoms

99.8% CPU use with 4 MPI tasks x no OpenMP threads
fix_modify k1 demflag 1
fix_modify d1 demflag 1
fix_modify vf1 demflag 1
timestep 0.1
run 1000 pre no post no
Step CPU Atoms biomass c_myHeight c_myNtype[1] c_myNtype[2] c_myNtype[3] 
    6007            0      300 1.6028682e-12 2.878837e-05            0          200          100 
    7007  0.026499033      300 1.6028682e-12 2.8864004e-05            0          200          100 
Loop time of 0.0265182 on 4 procs for 1000 steps with 300 atoms

100.0% CPU use with 4 MPI tasks x no OpenMP threads
timestep 720
fix_modify k1 demflag 0
fix_modify d1 demflag 0
fix_modify vf1 demflag 0
Step CPU Atoms biomass c_myHeight c_myNtype[1] c_myNtype[2] c_myNtype[3] 
    7007            0      300 1.6028682e-12 2.8864004e-05            0          200          100 
number of iterations: 13001 
maxz = 5.022067e-05 
    7008   0.65626502      300 1.6470862e-12 2.8893694e-05            0          200          100 
Loop time of 0.656278 on 4 procs for 1 steps with 300 atoms

100.0% CPU use with 4 MPI tasks x no OpenMP threads
fix_modify k1 demflag 1
fix_modify d1 demflag 1
fix_modify vf1 demflag 1
timestep 0.1
run 1000 pre no post no
Step CPU Atoms biomass c_myHeight c_myNtype[1] c_myNtype[2] c_myNtype[3] 
    7008            0      300 1.6470862e-12 2.8893694e-05            0          200          100 
    8008  0.026302099      300 1.6470862e-12 2.891342e-05            0          200          100 
Loop time of 0.0263203 on 4 procs for 1000 steps with 300 atoms

100.0% CPU use with 4 MPI tasks x no OpenMP threads
timestep 720
fix_modify k1 demflag 0
fix_modify d1 demflag 0
fix_modify vf1 demflag 0
Step CPU Atoms biomass c_myHeight c_myNtype[1] c_myNtype[2] c_myNtype[3] 
    8008            0      300 1.6470862e-12 2.891342e-05            0          200          100 
number of iterations: 12431 
maxz = 5.034314e-05 
    8009   0.61586308      300 1.6927255e-12 2.894732e-05            0          200          100 
Loop time of 0.61588 on 4 procs for 1 steps with 300 atoms

100.0% CPU use with 4 MPI tasks x no OpenMP threads
fix_modify k1 demflag 1
fix_modify d1 demflag 1
fix_modify vf1 demflag 1
timestep 0.1
run 1000 pre no post no
Step CPU Atoms biomass c_myHeight c_myNtype[1] c_myNtype[2] c_myNtype[3] 
    8009            0      300 1.6927255e-12 2.894732e-05            0          200          100 
    9009  0.027336836      300 1.6927255e-12 2.9024352e-05            0          200          100 
Loop time of 0.0273566 on 4 procs for 1000 steps with 300 atoms

100.0% CPU use with 4 MPI tasks x no OpenMP threads
timestep 720
fix_modify k1 demflag 0
fix_modify d1 demflag 0
fix_modify vf1 demflag 0
Step CPU Atoms biomass c_myHeight c_myNtype[1] c_myNtype[2] c_myNtype[3] 
    9009            0      300 1.6927255e-12 2.9024352e-05            0          200          100 
number of iterations: 11876 
maxz = 5.046627e-05 
    9010   0.60540795      300 1.7398408e-12 2.9054557e-05            0          200          100 
Loop time of 0.605422 on 4 procs for 1 steps with 300 atoms

99.8% CPU use with 4 MPI tasks x no OpenMP threads
fix_modify k1 demflag 1
fix_modify d1 demflag 1
fix_modify vf1 demflag 1
timestep 0.1
run 1000 pre no post no
Step CPU Atoms biomass c_myHeight c_myNtype[1] c_myNtype[2] c_myNtype[3] 
    9010            0      300 1.7398408e-12 2.9054557e-05            0          200          100 
   10010  0.026215076      300 1.7398408e-12 2.8902551e-05            0          200          100 
Loop time of 0.0262327 on 4 procs for 1000 steps with 300 atoms

100.0% CPU use with 4 MPI tasks x no OpenMP threads
timestep 720
fix_modify k1 demflag 0
fix_modify d1 demflag 0
fix_modify vf1 demflag 0
Step CPU Atoms biomass c_myHeight c_myNtype[1] c_myNtype[2] c_myNtype[3] 
   10010            0      300 1.7398408e-12 2.8902551e-05            0          200          100 
number of iterations: 11340 
maxz = 5.045260e-05 
   10011   0.56619191      300 1.7884888e-12 2.9269806e-05            0          200          100 
Loop time of 0.56621 on 4 procs for 1 steps with 300 atoms

99.8% CPU use with 4 MPI tasks x no OpenMP threads
fix_modify k1 demflag 1
fix_modify d1 demflag 1
fix_modify vf1 demflag 1
timestep 0.1
run 1000 pre no post no
Step CPU Atoms biomass c_myHeight c_myNtype[1] c_myNtype[2] c_myNtype[3] 
   10011            0      300 1.7884888e-12 2.9269806e-05            0          200          100 
   11011  0.027654886      300 1.7884888e-12 2.9449553e-05            0          200          100 
Loop time of 0.0276742 on 4 procs for 1000 steps with 300 atoms

100.0% CPU use with 4 MPI tasks x no OpenMP threads
timestep 720
fix_modify k1 demflag 0
fix_modify d1 demflag 0
fix_modify vf1 demflag 0
Step CPU Atoms biomass c_myHeight c_myNtype[1] c_myNtype[2] c_myNtype[3] 
   11011            0      300 1.7884888e-12 2.9449553e-05            0          200          100 
number of iterations: 10833 
maxz = 5.057706e-05 
   11012   0.55186415      300 1.8387277e-12 2.9428291e-05            0          200          100 
Loop time of 0.551878 on 4 procs for 1 steps with 300 atoms

100.0% CPU use with 4 MPI tasks x no OpenMP threads
fix_modify k1 demflag 1
fix_modify d1 demflag 1
fix_modify vf1 demflag 1
timestep 0.1
run 1000 pre no post no
Step CPU Atoms biomass c_myHeight c_myNtype[1] c_myNtype[2] c_myNtype[3] 
   11012            0      300 1.8387277e-12 2.9428291e-05            0          200          100 
   12012   0.02731514      300 1.8387277e-12 2.9451869e-05            0          200          100 
Loop time of 0.027338 on 4 procs for 1000 steps with 300 atoms

100.0% CPU use with 4 MPI tasks x no OpenMP threads
timestep 720
fix_modify k1 demflag 0
fix_modify d1 demflag 0
fix_modify vf1 demflag 0
Step CPU Atoms biomass c_myHeight c_myNtype[1] c_myNtype[2] c_myNtype[3] 
   12012            0      300 1.8387277e-12 2.9451869e-05            0          200          100 
number of iterations: 10409 
maxz = 5.070093e-05 
   12013   0.57448697      400 1.8906172e-12 3.1990838e-05            0          200          200 
Loop time of 0.574501 on 4 procs for 1 steps with 400 atoms

99.8% CPU use with 4 MPI tasks x no OpenMP threads
fix_modify k1 demflag 1
fix_modify d1 demflag 1
fix_modify vf1 demflag 1
timestep 0.1
run 1000 pre no post no
Step CPU Atoms biomass c_myHeight c_myNtype[1] c_myNtype[2] c_myNtype[3] 
   12013            0      400 1.8906172e-12 3.1990838e-05            0          200          200 
   13013   0.03839612      400 1.8906172e-12 3.2704745e-05            0          200          200 
Loop time of 0.0384157 on 4 procs for 1000 steps with 400 atoms

100.0% CPU use with 4 MPI tasks x no OpenMP threads
timestep 720
fix_modify k1 demflag 0
fix_modify d1 demflag 0
fix_modify vf1 demflag 0
Step CPU Atoms biomass c_myHeight c_myNtype[1] c_myNtype[2] c_myNtype[3] 
   13013            0      400 1.8906172e-12 3.2704745e-05            0          200          200 
number of iterations: 9868 
maxz = 5.123541e-05 
   13014   0.53110409      400 1.9442197e-12 3.2763417e-05            0          200          200 
Loop time of 0.531119 on 4 procs for 1 steps with 400 atoms

100.0% CPU use with 4 MPI tasks x no OpenMP threads
fix_modify k1 demflag 1
fix_modify d1 demflag 1
fix_modify vf1 demflag 1
timestep 0.1
run 1000 pre no post no
Step CPU Atoms biomass c_myHeight c_myNtype[1] c_myNtype[2] c_myNtype[3] 
   13014            0      400 1.9442197e-12 3.2763417e-05            0          200          200 
   14014   0.03529501      400 1.9442197e-12 3.2961677e-05            0          200          200 
Loop time of 0.0353136 on 4 procs for 1000 steps with 400 atoms

100.0% CPU use with 4 MPI tasks x no OpenMP threads
timestep 720
fix_modify k1 demflag 0
fix_modify d1 demflag 0
fix_modify vf1 demflag 0
Step CPU Atoms biomass c_myHeight c_myNtype[1] c_myNtype[2] c_myNtype[3] 
   14014            0      400 1.9442197e-12 3.2961677e-05            0          200          200 
number of iterations: 9519 
maxz = 5.139431e-05 
   14015   0.50361705      400 1.9995987e-12 3.3107639e-05            0          200          200 
Loop time of 0.503633 on 4 procs for 1 steps with 400 atoms

100.0% CPU use with 4 MPI tasks x no OpenMP threads
fix_modify k1 demflag 1
fix_modify d1 demflag 1
fix_modify vf1 demflag 1
timestep 0.1
run 1000 pre no post no
Step CPU Atoms biomass c_myHeight c_myNtype[1] c_myNtype[2] c_myNtype[3] 
   14015            0      400 1.9995987e-12 3.3107639e-05            0          200          200 
   15015  0.036463976      400 1.9995987e-12 3.3150944e-05            0          200          200 
Loop time of 0.0364816 on 4 procs for 1000 steps with 400 atoms

100.0% CPU use with 4 MPI tasks x no OpenMP threads
timestep 720
fix_modify k1 demflag 0
fix_modify d1 demflag 0
fix_modify vf1 demflag 0
Step CPU Atoms biomass c_myHeight c_myNtype[1] c_myNtype[2] c_myNtype[3] 
   15015            0      400 1.9995987e-12 3.3150944e-05            0          200          200 
number of iterations: 9162 
maxz = 5.155385e-05 
   15016   0.50758505      400 2.0568182e-12 3.3186044e-05            0          200          200 
Loop time of 0.507601 on 4 procs for 1 steps with 400 atoms

100.0% CPU use with 4 MPI tasks x no OpenMP threads
fix_modify k1 demflag 1
fix_modify d1 demflag 1
fix_modify vf1 demflag 1
timestep 0.1
run 1000 pre no post no
Step CPU Atoms biomass c_myHeight c_myNtype[1] c_myNtype[2] c_myNtype[3] 
   15016            0      400 2.0568182e-12 3.3186044e-05            0          200          200 
   16016  0.038094997      400 2.0568182e-12 3.3363174e-05            0          200          200 
Loop time of 0.0381122 on 4 procs for 1000 steps with 400 atoms

100.0% CPU use with 4 MPI tasks x no OpenMP threads
timestep 720
fix_modify k1 demflag 0
fix_modify d1 demflag 0
fix_modify vf1 demflag 0
Step CPU Atoms biomass c_myHeight c_myNtype[1] c_myNtype[2] c_myNtype[3] 
   16016            0      400 2.0568182e-12 3.3363174e-05            0          200          200 
number of iterations: 8763 
maxz = 5.171353e-05 
   16017   0.47934914      400 2.1159472e-12 3.3442084e-05            0          200          200 
Loop time of 0.479362 on 4 procs for 1 steps with 400 atoms

100.0% CPU use with 4 MPI tasks x no OpenMP threads
fix_modify k1 demflag 1
fix_modify d1 demflag 1
fix_modify vf1 demflag 1
timestep 0.1
run 1000 pre no post no
Step CPU Atoms biomass c_myHeight c_myNtype[1] c_myNtype[2] c_myNtype[3] 
   16017            0      400 2.1159472e-12 3.3442084e-05            0          200          200 
   17017  0.039203882      400 2.1159472e-12 3.3535585e-05            0          200          200 
Loop time of 0.0392203 on 4 procs for 1000 steps with 400 atoms

100.0% CPU use with 4 MPI tasks x no OpenMP threads
timestep 720
fix_modify k1 demflag 0
fix_modify d1 demflag 0
fix_modify vf1 demflag 0
Step CPU Atoms biomass c_myHeight c_myNtype[1] c_myNtype[2] c_myNtype[3] 
   17017            0      400 2.1159472e-12 3.3535585e-05            0          200          200 
number of iterations: 8509 
maxz = 5.187394e-05 
   17018   0.48377299      400 2.1770541e-12 3.3575155e-05            0          200          200 
Loop time of 0.483786 on 4 procs for 1 steps with 400 atoms

100.0% CPU use with 4 MPI tasks x no OpenMP threads
fix_modify k1 demflag 1
fix_modify d1 demflag 1
fix_modify vf1 demflag 1
timestep 0.1
run 1000 pre no post no
Step CPU Atoms biomass c_myHeight c_myNtype[1] c_myNtype[2] c_myNtype[3] 
   17018            0      400 2.1770541e-12 3.3575155e-05            0          200          200 
   18018  0.040269136      400 2.1770541e-12 3.3492346e-05            0          200          200 
Loop time of 0.0402863 on 4 procs for 1000 steps with 400 atoms

100.0% CPU use with 4 MPI tasks x no OpenMP threads
timestep 720
fix_modify k1 demflag 0
fix_modify d1 demflag 0
fix_modify vf1 demflag 0
Step CPU Atoms biomass c_myHeight c_myNtype[1] c_myNtype[2] c_myNtype[3] 
   18018            0      400 2.1770541e-12 3.3492346e-05            0          200          200 
number of iterations: 8174 
maxz = 5.456339e-05 
   18019   0.46295786      425 2.2402114e-12 3.3915488e-05            0          225          200 
Loop time of 0.462974 on 4 procs for 1 steps with 425 atoms

100.0% CPU use with 4 MPI tasks x no OpenMP threads
fix_modify k1 demflag 1
fix_modify d1 demflag 1
fix_modify vf1 demflag 1
timestep 0.1
run 1000 pre no post no
Step CPU Atoms biomass c_myHeight c_myNtype[1] c_myNtype[2] c_myNtype[3] 
   18019            0      425 2.2402114e-12 3.3915488e-05            0          225          200 
   19019  0.045238018      425 2.2402114e-12 3.3974223e-05            0          225          200 
Loop time of 0.0452555 on 4 procs for 1000 steps with 425 atoms

100.0% CPU use with 4 MPI tasks x no OpenMP threads
timestep 720
fix_modify k1 demflag 0
fix_modify d1 demflag 0
fix_modify vf1 demflag 0
Step CPU Atoms biomass c_myHeight c_myNtype[1] c_myNtype[2] c_myNtype[3] 
   19019            0      425 2.2402114e-12 3.3974223e-05            0          225          200 
number of iterations: 8001 
maxz = 5.591070e-05 
   19020   0.48396897      441 2.3054907e-12 3.4280448e-05            0          241          200 
Loop time of 0.483983 on 4 procs for 1 steps with 441 atoms

100.0% CPU use with 4 MPI tasks x no OpenMP threads
fix_modify k1 demflag 1
fix_modify d1 demflag 1
fix_modify vf1 demflag 1
timestep 0.1
run 1000 pre no post no
Step CPU Atoms biomass c_myHeight c_myNtype[1] c_myNtype[2] c_myNtype[3] 
   19020            0      441 2.3054907e-12 3.4280448e-05            0          241          200 
   20020  0.047527075      441 2.3054907e-12 3.4300153e-05            0          241          200 
Loop time of 0.047545 on 4 procs for 1000 steps with 441 atoms

100.0% CPU use with 4 MPI tasks x no OpenMP threads
timestep 720
fix_modify k1 demflag 0
fix_modify d1 demflag 0
fix_modify vf1 demflag 0
Step CPU Atoms biomass c_myHeight c_myNtype[1] c_myNtype[2] c_myNtype[3] 
   20020            0      441 2.3054907e-12 3.4300153e-05            0          241          200 
number of iterations: 7818 
maxz = 5.605795e-05 
   20021   0.49229908      464 2.3729699e-12 3.4801422e-05            0          264          200 
Loop time of 0.492312 on 4 procs for 1 steps with 464 atoms

99.8% CPU use with 4 MPI tasks x no OpenMP threads
fix_modify k1 demflag 1
fix_modify d1 demflag 1
fix_modify vf1 demflag 1
timestep 0.1
run 1000 pre no post no
Step CPU Atoms biomass c_myHeight c_myNtype[1] c_myNtype[2] c_myNtype[3] 
   20021            0      464 2.3729699e-12 3.4801422e-05            0          264          200 
   21021  0.053095102      464 2.3729699e-12 3.5198993e-05            0          264          200 
Loop time of 0.0531125 on 4 procs for 1000 steps with 464 atoms

100.0% CPU use with 4 MPI tasks x no OpenMP threads
timestep 720
fix_modify k1 demflag 0
fix_modify d1 demflag 0
fix_modify vf1 demflag 0
Step CPU Atoms biomass c_myHeight c_myNtype[1] c_myNtype[2] c_myNtype[3] 
   21021            0      464 2.3729699e-12 3.5198993e-05            0          264          200 
number of iterations: 7594 
maxz = 5.601158e-05 
   21022   0.47033405      490 2.4427255e-12 3.5606522e-05            0          290          200 
Loop time of 0.470346 on 4 procs for 1 steps with 490 atoms

100.0% CPU use with 4 MPI tasks x no OpenMP threads
fix_modify k1 demflag 1
fix_modify d1 demflag 1
fix_modify vf1 demflag 1
timestep 0.1
run 1000 pre no post no
Step CPU Atoms biomass c_myHeight c_myNtype[1] c_myNtype[2] c_myNtype[3] 
   21022            0      490 2.4427255e-12 3.5606522e-05            0          290          200 
   22022  0.055068016      490 2.4427255e-12 3.5895917e-05            0          290          200 
Loop time of 0.0550834 on 4 procs for 1000 steps with 490 atoms

100.0% CPU use with 4 MPI tasks x no OpenMP threads
timestep 720
fix_modify k1 demflag 0
fix_modify d1 demflag 0
fix_modify vf1 demflag 0
Step CPU Atoms biomass c_myHeight c_myNtype[1] c_myNtype[2] c_myNtype[3] 
   22022            0      490 2.4427255e-12 3.5895917e-05            0          290          200 
number of iterations: 7513 
maxz = 5.654594e-05 
   22023   0.47504902      500 2.5148368e-12 3.589651e-05            0          300          200 
Loop time of 0.475065 on 4 procs for 1 steps with 500 atoms

100.0% CPU use with 4 MPI tasks x no OpenMP threads
fix_modify k1 demflag 1
fix_modify d1 demflag 1
fix_modify vf1 demflag 1
timestep 0.1
run 1000 pre no post no
Step CPU Atoms biomass c_myHeight c_myNtype[1] c_myNtype[2] c_myNtype[3] 
   22023            0      500 2.5148368e-12 3.589651e-05            0          300          200 
   23023  0.061522961      500 2.5148368e-12 3.6274383e-05            0          300          200 
Loop time of 0.0615442 on 4 procs for 1000 steps with 500 atoms

100.0% CPU use with 4 MPI tasks x no OpenMP threads
timestep 720
fix_modify k1 demflag 0
fix_modify d1 demflag 0
fix_modify vf1 demflag 0
Step CPU Atoms biomass c_myHeight c_myNtype[1] c_myNtype[2] c_myNtype[3] 
   23023            0      500 2.5148368e-12 3.6274383e-05            0          300          200 
number of iterations: 7319 
maxz = 5.650161e-05 
   23024    0.4862349      520 2.5893857e-12 3.6350598e-05            0          320          200 
Loop time of 0.486251 on 4 procs for 1 steps with 520 atoms

100.0% CPU use with 4 MPI tasks x no OpenMP threads
fix_modify k1 demflag 1
fix_modify d1 demflag 1
fix_modify vf1 demflag 1
timestep 0.1
run 1000 pre no post no
Step CPU Atoms biomass c_myHeight c_myNtype[1] c_myNtype[2] c_myNtype[3] 
   23024            0      520 2.5893857e-12 3.6350598e-05            0          320          200 
   24024  0.062706947      520 2.5893857e-12 3.6868331e-05            0          320          200 
Loop time of 0.0627286 on 4 procs for 1000 steps with 520 atoms

99.8% CPU use with 4 MPI tasks x no OpenMP threads
timestep 720
fix_modify k1 demflag 0
fix_modify d1 demflag 0
fix_modify vf1 demflag 0
Step CPU Atoms biomass c_myHeight c_myNtype[1] c_myNtype[2] c_myNtype[3] 
   24024            0      520 2.5893857e-12 3.6868331e-05            0          320          200 
number of iterations: 7242 
maxz = 5.664972e-05 
   24025   0.46341991      539 2.6664574e-12 3.7171238e-05            0          339          200 
Loop time of 0.463436 on 4 procs for 1 steps with 539 atoms

100.0% CPU use with 4 MPI tasks x no OpenMP threads
fix_modify k1 demflag 1
fix_modify d1 demflag 1
fix_modify vf1 demflag 1
timestep 0.1
run 1000 pre no post no
Step CPU Atoms biomass c_myHeight c_myNtype[1] c_myNtype[2] c_myNtype[3] 
   24025            0      539 2.6664574e-12 3.7171238e-05            0          339          200 
   25025  0.063728809      539 2.6664574e-12 3.7233175e-05            0          339          200 
Loop time of 0.063751 on 4 procs for 1000 steps with 539 atoms

100.0% CPU use with 4 MPI tasks x no OpenMP threads
timestep 720
fix_modify k1 demflag 0
fix_modify d1 demflag 0
fix_modify vf1 demflag 0
Step CPU Atoms biomass c_myHeight c_myNtype[1] c_myNtype[2] c_myNtype[3] 
   25025            0      539 2.6664574e-12 3.7233175e-05            0          339          200 
number of iterations: 7224 
maxz = 5.679814e-05 
   25026   0.48861217      559 2.7461372e-12 3.7251935e-05            0          359          200 
Loop time of 0.48863 on 4 procs for 1 steps with 559 atoms

100.0% CPU use with 4 MPI tasks x no OpenMP threads
fix_modify k1 demflag 1
fix_modify d1 demflag 1
fix_modify vf1 demflag 1
timestep 0.1
run 1000 pre no post no
Step CPU Atoms biomass c_myHeight c_myNtype[1] c_myNtype[2] c_myNtype[3] 
   25026            0      559 2.7461372e-12 3.7251935e-05            0          359          200 
   26026  0.075608969      559 2.7461372e-12 3.7758846e-05            0          359          200 
Loop time of 0.075628 on 4 procs for 1000 steps with 559 atoms

100.0% CPU use with 4 MPI tasks x no OpenMP threads
timestep 720
fix_modify k1 demflag 0
fix_modify d1 demflag 0
fix_modify vf1 demflag 0
Step CPU Atoms biomass c_myHeight c_myNtype[1] c_myNtype[2] c_myNtype[3] 
   26026            0      559 2.7461372e-12 3.7758846e-05            0          359          200 
number of iterations: 7372 
maxz = 5.694684e-05 
   26027   0.49142909      568 2.828516e-12 3.7759385e-05            0          368          200 
Loop time of 0.491444 on 4 procs for 1 steps with 568 atoms

100.0% CPU use with 4 MPI tasks x no OpenMP threads
fix_modify k1 demflag 1
fix_modify d1 demflag 1
fix_modify vf1 demflag 1
timestep 0.1
run 1000 pre no post no
Step CPU Atoms biomass c_myHeight c_myNtype[1] c_myNtype[2] c_myNtype[3] 
   26027            0      568 2.828516e-12 3.7759385e-05            0          368          200 
   27027  0.080542088      568 2.828516e-12 3.796818e-05            0          368          200 
Loop time of 0.0805628 on 4 procs for 1000 steps with 568 atoms

100.0% CPU use with 4 MPI tasks x no OpenMP threads
timestep 720
fix_modify k1 demflag 0
fix_modify d1 demflag 0
fix_modify vf1 demflag 0
Step CPU Atoms biomass c_myHeight c_myNtype[1] c_myNtype[2] c_myNtype[3] 
   27027            0      568 2.828516e-12 3.796818e-05            0          368          200 
number of iterations: 7613 
maxz = 5.709350e-05 
   27028     0.498137      591 2.9136845e-12 3.8187023e-05            0          391          200 
Loop time of 0.498156 on 4 procs for 1 steps with 591 atoms

100.0% CPU use with 4 MPI tasks x no OpenMP threads
fix_modify k1 demflag 1
fix_modify d1 demflag 1
fix_modify vf1 demflag 1
timestep 0.1
run 1000 pre no post no
Step CPU Atoms biomass c_myHeight c_myNtype[1] c_myNtype[2] c_myNtype[3] 
   27028            0      591 2.9136845e-12 3.8187023e-05            0          391          200 
   28028  0.079656124      591 2.9136845e-12 3.839766e-05            0          391          200 
Loop time of 0.0796742 on 4 procs for 1000 steps with 591 atoms

100.0% CPU use with 4 MPI tasks x no OpenMP threads
timestep 720
fix_modify k1 demflag 0
fix_modify d1 demflag 0
fix_modify vf1 demflag 0
Step CPU Atoms biomass c_myHeight c_myNtype[1] c_myNtype[2] c_myNtype[3] 
   28028            0      591 2.9136845e-12 3.839766e-05            0          391          200 
number of iterations: 7826 
maxz = 5.705641e-05 
   28029    0.5006249      600 3.0017377e-12 3.8445674e-05            0          400          200 
Loop time of 0.50064 on 4 procs for 1 steps with 600 atoms

100.0% CPU use with 4 MPI tasks x no OpenMP threads
fix_modify k1 demflag 1
fix_modify d1 demflag 1
fix_modify vf1 demflag 1
timestep 0.1
run 1000 pre no post no
Step CPU Atoms biomass c_myHeight c_myNtype[1] c_myNtype[2] c_myNtype[3] 
   28029            0      600 3.0017377e-12 3.8445674e-05            0          400          200 
   29029  0.091420174      600 3.0017377e-12 3.8883538e-05            0          400          200 
Loop time of 0.0914447 on 4 procs for 1000 steps with 600 atoms

100.0% CPU use with 4 MPI tasks x no OpenMP threads
timestep 720
fix_modify k1 demflag 0
fix_modify d1 demflag 0
fix_modify vf1 demflag 0
Step CPU Atoms biomass c_myHeight c_myNtype[1] c_myNtype[2] c_myNtype[3] 
   29029            0      600 3.0017377e-12 3.8883538e-05            0          400          200 
number of iterations: 8049 
maxz = 5.756383e-05 
   29030   0.50771689      600 3.0927721e-12 3.8795745e-05            0          400          200 
Loop time of 0.507736 on 4 procs for 1 steps with 600 atoms

100.0% CPU use with 4 MPI tasks x no OpenMP threads
fix_modify k1 demflag 1
fix_modify d1 demflag 1
fix_modify vf1 demflag 1
timestep 0.1
run 1000 pre no post no
Step CPU Atoms biomass c_myHeight c_myNtype[1] c_myNtype[2] c_myNtype[3] 
   29030            0      600 3.0927721e-12 3.8795745e-05            0          400          200 
   30030  0.078997135      600 3.0927721e-12 3.8940989e-05            0          400          200 
Loop time of 0.0790172 on 4 procs for 1000 steps with 600 atoms

100.0% CPU use with 4 MPI tasks x no OpenMP threads
timestep 720
fix_modify k1 demflag 0
fix_modify d1 demflag 0
fix_modify vf1 demflag 0
Step CPU Atoms biomass c_myHeight c_myNtype[1] c_myNtype[2] c_myNtype[3] 
   30030            0      600 3.0927721e-12 3.8940989e-05            0          400          200 
number of iterations: 8365 
maxz = 5.753192e-05 
   30031   0.50890899      600 3.1868859e-12 3.8971939e-05            0          400          200 
Loop time of 0.508928 on 4 procs for 1 steps with 600 atoms

100.0% CPU use with 4 MPI tasks x no OpenMP threads
fix_modify k1 demflag 1
fix_modify d1 demflag 1
fix_modify vf1 demflag 1
timestep 0.1
run 1000 pre no post no
Step CPU Atoms biomass c_myHeight c_myNtype[1] c_myNtype[2] c_myNtype[3] 
   30031            0      600 3.1868859e-12 3.8971939e-05            0          400          200 
   31031  0.090071917      600 3.1868859e-12 3.9078098e-05            0          400          200 
Loop time of 0.0900912 on 4 procs for 1000 steps with 600 atoms

99.9% CPU use with 4 MPI tasks x no OpenMP threads
timestep 720
fix_modify k1 demflag 0
fix_modify d1 demflag 0
fix_modify vf1 demflag 0
Step CPU Atoms biomass c_myHeight c_myNtype[1] c_myNtype[2] c_myNtype[3] 
   31031            0      600 3.1868859e-12 3.9078098e-05            0          400          200 
number of iterations: 8694 
maxz = 5.767441e-05 
   31032   0.53329301      601 3.284178e-12 3.9238994e-05            0          401          200 
Loop time of 0.533308 on 4 procs for 1 steps with 601 atoms

100.0% CPU use with 4 MPI tasks x no OpenMP threads
fix_modify k1 demflag 1
fix_modify d1 demflag 1
fix_modify vf1 demflag 1
timestep 0.1
run 1000 pre no post no
Step CPU Atoms biomass c_myHeight c_myNtype[1] c_myNtype[2] c_myNtype[3] 
   31032            0      601 3.284178e-12 3.9238994e-05            0          401          200 
   32032   0.08554101      601 3.284178e-12 3.9412652e-05            0          401          200 
Loop time of 0.0855622 on 4 procs for 1000 steps with 601 atoms

100.0% CPU use with 4 MPI tasks x no OpenMP threads
timestep 720
fix_modify k1 demflag 0
fix_modify d1 demflag 0
fix_modify vf1 demflag 0
Step CPU Atoms biomass c_myHeight c_myNtype[1] c_myNtype[2] c_myNtype[3] 
   32032            0      601 3.284178e-12 3.9412652e-05            0          401          200 
number of iterations: 8814 
maxz = 5.764662e-05 
   32033   0.54316688      607 3.3847541e-12 3.9477956e-05            0          407          200 
Loop time of 0.543181 on 4 procs for 1 steps with 607 atoms

100.0% CPU use with 4 MPI tasks x no OpenMP threads
fix_modify k1 demflag 1
fix_modify d1 demflag 1
fix_modify vf1 demflag 1
timestep 0.1
run 1000 pre no post no
Step CPU Atoms biomass c_myHeight c_myNtype[1] c_myNtype[2] c_myNtype[3] 
   32033            0      607 3.3847541e-12 3.9477956e-05            0          407          200 
   33033  0.095808983      607 3.3847541e-12 3.9783462e-05            0          407          200 
Loop time of 0.0958285 on 4 procs for 1000 steps with 607 atoms

100.0% CPU use with 4 MPI tasks x no OpenMP threads
timestep 720
fix_modify k1 demflag 0
fix_modify d1 demflag 0
fix_modify vf1 demflag 0
Step CPU Atoms biomass c_myHeight c_myNtype[1] c_myNtype[2] c_myNtype[3] 
   33033            0      607 3.3847541e-12 3.9783462e-05            0          407          200 
number of iterations: 9093 
maxz = 5.939300e-05 
   33034   0.55498695      616 3.4887199e-12 3.9850209e-05            0          416          200 
Loop time of 0.555001 on 4 procs for 1 steps with 616 atoms

100.0% CPU use with 4 MPI tasks x no OpenMP threads
fix_modify k1 demflag 1
fix_modify d1 demflag 1
fix_modify vf1 demflag 1
timestep 0.1
run 1000 pre no post no
Step CPU Atoms biomass c_myHeight c_myNtype[1] c_myNtype[2] c_myNtype[3] 
   33034            0      616 3.4887199e-12 3.9850209e-05            0          416          200 
   34034    0.1032021      616 3.4887199e-12 4.0147201e-05            0          416          200 
Loop time of 0.103221 on 4 procs for 1000 steps with 616 atoms

100.0% CPU use with 4 MPI tasks x no OpenMP threads
timestep 720
fix_modify k1 demflag 0
fix_modify d1 demflag 0
fix_modify vf1 demflag 0
Step CPU Atoms biomass c_myHeight c_myNtype[1] c_myNtype[2] c_myNtype[3] 
   34034            0      616 3.4887199e-12 4.0147201e-05            0          416          200 
number of iterations: 9324 
maxz = 5.955196e-05 
   34035   0.55637908      627 3.596187e-12 4.0531721e-05            0          427          200 
Loop time of 0.556394 on 4 procs for 1 steps with 627 atoms

100.0% CPU use with 4 MPI tasks x no OpenMP threads
fix_modify k1 demflag 1
fix_modify d1 demflag 1
fix_modify vf1 demflag 1
timestep 0.1
run 1000 pre no post no
Step CPU Atoms biomass c_myHeight c_myNtype[1] c_myNtype[2] c_myNtype[3] 
   34035            0      627 3.596187e-12 4.0531721e-05            0          427          200 
   35035   0.10271716      627 3.596187e-12 4.0887591e-05            0          427          200 
Loop time of 0.102738 on 4 procs for 1000 steps with 627 atoms

100.0% CPU use with 4 MPI tasks x no OpenMP threads
timestep 720
fix_modify k1 demflag 0
fix_modify d1 demflag 0
fix_modify vf1 demflag 0
Step CPU Atoms biomass c_myHeight c_myNtype[1] c_myNtype[2] c_myNtype[3] 
   35035            0      627 3.596187e-12 4.0887591e-05            0          427          200 
number of iterations: 9684 
maxz = 5.971150e-05 
   35036   0.58543205      643 3.7072617e-12 4.0961433e-05            0          443          200 
Loop time of 0.585446 on 4 procs for 1 steps with 643 atoms

100.0% CPU use with 4 MPI tasks x no OpenMP threads
fix_modify k1 demflag 1
fix_modify d1 demflag 1
fix_modify vf1 demflag 1
timestep 0.1
run 1000 pre no post no
Step CPU Atoms biomass c_myHeight c_myNtype[1] c_myNtype[2] c_myNtype[3] 
   35036            0      643 3.7072617e-12 4.0961433e-05            0          443          200 
   36036   0.12233615      643 3.7072617e-12 4.1423383e-05            0          443          200 
Loop time of 0.122364 on 4 procs for 1000 steps with 643 atoms

100.0% CPU use with 4 MPI tasks x no OpenMP threads
timestep 720
fix_modify k1 demflag 0
fix_modify d1 demflag 0
fix_modify vf1 demflag 0
Step CPU Atoms biomass c_myHeight c_myNtype[1] c_myNtype[2] c_myNtype[3] 
   36036            0      643 3.7072617e-12 4.1423383e-05            0          443          200 
number of iterations: 9844 
maxz = 5.967187e-05 
   36037   0.58509088      664 3.8220594e-12 4.1595511e-05            0          464          200 
Loop time of 0.585106 on 4 procs for 1 steps with 664 atoms

100.0% CPU use with 4 MPI tasks x no OpenMP threads
fix_modify k1 demflag 1
fix_modify d1 demflag 1
fix_modify vf1 demflag 1
timestep 0.1
run 1000 pre no post no
Step CPU Atoms biomass c_myHeight c_myNtype[1] c_myNtype[2] c_myNtype[3] 
   36037            0      664 3.8220594e-12 4.1595511e-05            0          464          200 
   37037     0.125844      664 3.8220594e-12 4.224231e-05            0          464          200 
Loop time of 0.125864 on 4 procs for 1000 steps with 664 atoms

99.9% CPU use with 4 MPI tasks x no OpenMP threads
timestep 720
fix_modify k1 demflag 0
fix_modify d1 demflag 0
fix_modify vf1 demflag 0
Step CPU Atoms biomass c_myHeight c_myNtype[1] c_myNtype[2] c_myNtype[3] 
   37037            0      664 3.8220594e-12 4.224231e-05            0          464          200 
number of iterations: 10087 
maxz = 5.983269e-05 
   37038   0.59822083      695 3.9406989e-12 4.2568405e-05            0          495          200 
Loop time of 0.598239 on 4 procs for 1 steps with 695 atoms

100.0% CPU use with 4 MPI tasks x no OpenMP threads
fix_modify k1 demflag 1
fix_modify d1 demflag 1
fix_modify vf1 demflag 1
timestep 0.1
run 1000 pre no post no
Step CPU Atoms biomass c_myHeight c_myNtype[1] c_myNtype[2] c_myNtype[3] 
   37038            0      695 3.9406989e-12 4.2568405e-05            0          495          200 
   38038   0.13315988      695 3.9406989e-12 4.3236322e-05            0          495          200 
Loop time of 0.133181 on 4 procs for 1000 steps with 695 atoms

100.0% CPU use with 4 MPI tasks x no OpenMP threads
timestep 720
fix_modify k1 demflag 0
fix_modify d1 demflag 0
fix_modify vf1 demflag 0
Step CPU Atoms biomass c_myHeight c_myNtype[1] c_myNtype[2] c_myNtype[3] 
   38038            0      695 3.9406989e-12 4.3236322e-05            0          495          200 
number of iterations: 10497 
maxz = 5.979439e-05 
   38039   0.63524103      721 4.063291e-12 4.3481966e-05            0          521          200 
Loop time of 0.635256 on 4 procs for 1 steps with 721 atoms

99.8% CPU use with 4 MPI tasks x no OpenMP threads
fix_modify k1 demflag 1
fix_modify d1 demflag 1
fix_modify vf1 demflag 1
timestep 0.1
run 1000 pre no post no
Step CPU Atoms biomass c_myHeight c_myNtype[1] c_myNtype[2] c_myNtype[3] 
   38039            0      721 4.063291e-12 4.3481966e-05            0          521          200 
   39039    0.1462121      721 4.063291e-12 4.4108978e-05            0          521          200 
Loop time of 0.146231 on 4 procs for 1000 steps with 721 atoms

100.0% CPU use with 4 MPI tasks x no OpenMP threads
timestep 720
fix_modify k1 demflag 0
fix_modify d1 demflag 0
fix_modify vf1 demflag 0
Step CPU Atoms biomass c_myHeight c_myNtype[1] c_myNtype[2] c_myNtype[3] 
   39039            0      721 4.063291e-12 4.4108978e-05            0          521          200 
number of iterations: 10811 
maxz = 5.995623e-05 
   39040   0.64544415      753 4.1899535e-12 4.4538141e-05            0          553          200 
Loop time of 0.645459 on 4 procs for 1 steps with 753 atoms

100.0% CPU use with 4 MPI tasks x no OpenMP threads
fix_modify k1 demflag 1
fix_modify d1 demflag 1
fix_modify vf1 demflag 1
timestep 0.1
run 1000 pre no post no
Step CPU Atoms biomass c_myHeight c_myNtype[1] c_myNtype[2] c_myNtype[3] 
   39040            0      753 4.1899535e-12 4.4538141e-05            0          553          200 
   40040     0.151618      753 4.1899535e-12 4.5323473e-05            0          553          200 
Loop time of 0.15164 on 4 procs for 1000 steps with 753 atoms

100.0% CPU use with 4 MPI tasks x no OpenMP threads
timestep 720
fix_modify k1 demflag 0
fix_modify d1 demflag 0
fix_modify vf1 demflag 0
Step CPU Atoms biomass c_myHeight c_myNtype[1] c_myNtype[2] c_myNtype[3] 
   40040            0      753 4.1899535e-12 4.5323473e-05            0          553          200 
number of iterations: 11006 
maxz = 6.027720e-05 
   40041    0.6550498      783 4.3208144e-12 4.5527249e-05            0          583          200 
Loop time of 0.655065 on 4 procs for 1 steps with 783 atoms

100.0% CPU use with 4 MPI tasks x no OpenMP threads
fix_modify k1 demflag 1
fix_modify d1 demflag 1
fix_modify vf1 demflag 1
timestep 0.1
run 1000 pre no post no
Step CPU Atoms biomass c_myHeight c_myNtype[1] c_myNtype[2] c_myNtype[3] 
   40041            0      783 4.3208144e-12 4.5527249e-05            0          583          200 
   41041   0.15628815      783 4.3208144e-12 4.6148291e-05            0          583          200 
Loop time of 0.156307 on 4 procs for 1000 steps with 783 atoms

100.0% CPU use with 4 MPI tasks x no OpenMP threads
timestep 720
fix_modify k1 demflag 0
fix_modify d1 demflag 0
fix_modify vf1 demflag 0
Step CPU Atoms biomass c_myHeight c_myNtype[1] c_myNtype[2] c_myNtype[3] 
   41041            0      783 4.3208144e-12 4.6148291e-05            0          583          200 
number of iterations: 16910 
maxz = 6.048492e-05 
   41042    1.4280031      826 4.4557586e-12 4.6390363e-05            0          626          200 
Loop time of 1.42802 on 4 procs for 1 steps with 826 atoms

100.0% CPU use with 4 MPI tasks x no OpenMP threads
fix_modify k1 demflag 1
fix_modify d1 demflag 1
fix_modify vf1 demflag 1
timestep 0.1
run 1000 pre no post no
Step CPU Atoms biomass c_myHeight c_myNtype[1] c_myNtype[2] c_myNtype[3] 
   41042            0      826 4.4557586e-12 4.6390363e-05            0          626          200 
   42042   0.17471409      826 4.4557586e-12 4.7518228e-05            0          626          200 
Loop time of 0.174735 on 4 procs for 1000 steps with 826 atoms

100.0% CPU use with 4 MPI tasks x no OpenMP threads
timestep 720
fix_modify k1 demflag 0
fix_modify d1 demflag 0
fix_modify vf1 demflag 0
Step CPU Atoms biomass c_myHeight c_myNtype[1] c_myNtype[2] c_myNtype[3] 
   42042            0      826 4.4557586e-12 4.7518228e-05            0          626          200 
number of iterations: 12995 
maxz = 6.420391e-05 
   42043    0.8562839      850 4.5951221e-12 4.7708004e-05            0          650          200 
Loop time of 0.856302 on 4 procs for 1 steps with 850 atoms

100.0% CPU use with 4 MPI tasks x no OpenMP threads
fix_modify k1 demflag 1
fix_modify d1 demflag 1
fix_modify vf1 demflag 1
timestep 0.1
run 1000 pre no post no
Step CPU Atoms biomass c_myHeight c_myNtype[1] c_myNtype[2] c_myNtype[3] 
   42043            0      850 4.5951221e-12 4.7708004e-05            0          650          200 
   43043   0.18506289      850 4.5951221e-12 4.8407889e-05            0          650          200 
Loop time of 0.185083 on 4 procs for 1000 steps with 850 atoms

100.0% CPU use with 4 MPI tasks x no OpenMP threads
timestep 720
fix_modify k1 demflag 0
fix_modify d1 demflag 0
fix_modify vf1 demflag 0
Step CPU Atoms biomass c_myHeight c_myNtype[1] c_myNtype[2] c_myNtype[3] 
   43043            0      850 4.5951221e-12 4.8407889e-05            0          650          200 
number of iterations: 13655 
maxz = 6.623114e-05 
   43044   0.86808205      878 4.7390127e-12 4.8418047e-05            0          678          200 
Loop time of 0.868101 on 4 procs for 1 steps with 878 atoms

99.9% CPU use with 4 MPI tasks x no OpenMP threads
fix_modify k1 demflag 1
fix_modify d1 demflag 1
fix_modify vf1 demflag 1
timestep 0.1
run 1000 pre no post no
Step CPU Atoms biomass c_myHeight c_myNtype[1] c_myNtype[2] c_myNtype[3] 
   43044            0      878 4.7390127e-12 4.8418047e-05            0          678          200 
   44044   0.19032097      878 4.7390127e-12 4.9035864e-05            0          678          200 
Loop time of 0.190343 on 4 procs for 1000 steps with 878 atoms

100.0% CPU use with 4 MPI tasks x no OpenMP threads
timestep 720
fix_modify k1 demflag 0
fix_modify d1 demflag 0
fix_modify vf1 demflag 0
Step CPU Atoms biomass c_myHeight c_myNtype[1] c_myNtype[2] c_myNtype[3] 
   44044            0      878 4.7390127e-12 4.9035864e-05            0          678          200 
number of iterations: 14144 
maxz = 6.671559e-05 
   44045     0.911443      912 4.8875427e-12 4.9370877e-05            0          712          200 
Loop time of 0.911458 on 4 procs for 1 steps with 912 atoms

100.0% CPU use with 4 MPI tasks x no OpenMP threads
fix_modify k1 demflag 1
fix_modify d1 demflag 1
fix_modify vf1 demflag 1
timestep 0.1
run 1000 pre no post no
Step CPU Atoms biomass c_myHeight c_myNtype[1] c_myNtype[2] c_myNtype[3] 
   44045            0      912 4.8875427e-12 4.9370877e-05            0          712          200 
   45045   0.20344806      912 4.8875427e-12 5.0587596e-05            0          712          200 
Loop time of 0.203468 on 4 procs for 1000 steps with 912 atoms

99.5% CPU use with 4 MPI tasks x no OpenMP threads
timestep 720
fix_modify k1 demflag 0
fix_modify d1 demflag 0
fix_modify vf1 demflag 0
Step CPU Atoms biomass c_myHeight c_myNtype[1] c_myNtype[2] c_myNtype[3] 
   45045            0      912 4.8875427e-12 5.0587596e-05            0          712          200 
number of iterations: 14368 
maxz = 6.689924e-05 
   45046   0.91732383      936 5.0408457e-12 5.0595334e-05            0          736          200 
Loop time of 0.917338 on 4 procs for 1 steps with 936 atoms

100.0% CPU use with 4 MPI tasks x no OpenMP threads
fix_modify k1 demflag 1
fix_modify d1 demflag 1
fix_modify vf1 demflag 1
timestep 0.1
run 1000 pre no post no
Step CPU Atoms biomass c_myHeight c_myNtype[1] c_myNtype[2] c_myNtype[3] 
   45046            0      936 5.0408457e-12 5.0595334e-05            0          736          200 
   46046   0.22065401      936 5.0408457e-12 5.1352644e-05            0          736          200 
Loop time of 0.220673 on 4 procs for 1000 steps with 936 atoms

100.0% CPU use with 4 MPI tasks x no OpenMP threads
timestep 720
fix_modify k1 demflag 0
fix_modify d1 demflag 0
fix_modify vf1 demflag 0
Step CPU Atoms biomass c_myHeight c_myNtype[1] c_myNtype[2] c_myNtype[3] 
   46046            0      936 5.0408457e-12 5.1352644e-05            0          736          200 
number of iterations: 14885 
maxz = 6.816649e-05 
   46047   0.96362996      955 5.1990354e-12 5.1472477e-05            0          755          200 
Loop time of 0.963649 on 4 procs for 1 steps with 955 atoms

100.0% CPU use with 4 MPI tasks x no OpenMP threads
fix_modify k1 demflag 1
fix_modify d1 demflag 1
fix_modify vf1 demflag 1
timestep 0.1
run 1000 pre no post no
Step CPU Atoms biomass c_myHeight c_myNtype[1] c_myNtype[2] c_myNtype[3] 
   46047            0      955 5.1990354e-12 5.1472477e-05            0          755          200 
   47047   0.22406697      955 5.1990354e-12  5.26219e-05            0          755          200 
Loop time of 0.224086 on 4 procs for 1000 steps with 955 atoms

100.0% CPU use with 4 MPI tasks x no OpenMP threads
timestep 720
fix_modify k1 demflag 0
fix_modify d1 demflag 0
fix_modify vf1 demflag 0
Step CPU Atoms biomass c_myHeight c_myNtype[1] c_myNtype[2] c_myNtype[3] 
   47047            0      955 5.1990354e-12  5.26219e-05            0          755          200 
number of iterations: 15373 
maxz = 7.056647e-05 
   47048   0.95936489      980 5.3622231e-12 5.2792949e-05            0          780          200 
Loop time of 0.959384 on 4 procs for 1 steps with 980 atoms

100.0% CPU use with 4 MPI tasks x no OpenMP threads
fix_modify k1 demflag 1
fix_modify d1 demflag 1
fix_modify vf1 demflag 1
timestep 0.1
run 1000 pre no post no
Step CPU Atoms biomass c_myHeight c_myNtype[1] c_myNtype[2] c_myNtype[3] 
   47048            0      980 5.3622231e-12 5.2792949e-05            0          780          200 
   48048     0.235569      980 5.3622231e-12 5.3999675e-05            0          780          200 
Loop time of 0.23559 on 4 procs for 1000 steps with 980 atoms

100.0% CPU use with 4 MPI tasks x no OpenMP threads
timestep 720
fix_modify k1 demflag 0
fix_modify d1 demflag 0
fix_modify vf1 demflag 0
Step CPU Atoms biomass c_myHeight c_myNtype[1] c_myNtype[2] c_myNtype[3] 
   48048            0      980 5.3622231e-12 5.3999675e-05            0          780          200 
number of iterations: 23391 
maxz = 7.174967e-05 
   48049     2.064254     1000 5.5301007e-12 5.4047437e-05            0          800          200 
Loop time of 2.06427 on 4 procs for 1 steps with 1000 atoms

100.0% CPU use with 4 MPI tasks x no OpenMP threads
fix_modify k1 demflag 1
fix_modify d1 demflag 1
fix_modify vf1 demflag 1
timestep 0.1
run 1000 pre no post no
Step CPU Atoms biomass c_myHeight c_myNtype[1] c_myNtype[2] c_myNtype[3] 
   48049            0     1000 5.5301007e-12 5.4047437e-05            0          800          200 
   49049   0.24314189     1000 5.5301007e-12  5.49361e-05            0          800          200 
Loop time of 0.243164 on 4 procs for 1000 steps with 1000 atoms

100.0% CPU use with 4 MPI tasks x no OpenMP threads
timestep 720
fix_modify k1 demflag 0
fix_modify d1 demflag 0
fix_modify vf1 demflag 0
Step CPU Atoms biomass c_myHeight c_myNtype[1] c_myNtype[2] c_myNtype[3] 
   49049            0     1000 5.5301007e-12  5.49361e-05            0          800          200 
number of iterations: 18111 
maxz = 7.210719e-05 
   49050     1.237716     1012 5.7031532e-12 5.5001808e-05            0          812          200 
Loop time of 1.23773 on 4 procs for 1 steps with 1012 atoms

99.9% CPU use with 4 MPI tasks x no OpenMP threads
fix_modify k1 demflag 1
fix_modify d1 demflag 1
fix_modify vf1 demflag 1
timestep 0.1
run 1000 pre no post no
Step CPU Atoms biomass c_myHeight c_myNtype[1] c_myNtype[2] c_myNtype[3] 
   49050            0     1012 5.7031532e-12 5.5001808e-05            0          812          200 
   50050   0.24724293     1012 5.7031532e-12 5.6069561e-05            0          812          200 
Loop time of 0.247263 on 4 procs for 1000 steps with 1012 atoms

100.0% CPU use with 4 MPI tasks x no OpenMP threads
timestep 720
fix_modify k1 demflag 0
fix_modify d1 demflag 0
fix_modify vf1 demflag 0
Step CPU Atoms biomass c_myHeight c_myNtype[1] c_myNtype[2] c_myNtype[3] 
   50050            0     1012 5.7031532e-12 5.6069561e-05            0          812          200 
number of iterations: 18744 
maxz = 7.330346e-05 
   50051    1.2454541     1028 5.8814781e-12 5.6367593e-05            0          828          200 
Loop time of 1.24548 on 4 procs for 1 steps with 1028 atoms

100.0% CPU use with 4 MPI tasks x no OpenMP threads
fix_modify k1 demflag 1
fix_modify d1 demflag 1
fix_modify vf1 demflag 1
timestep 0.1
run 1000 pre no post no
Step CPU Atoms biomass c_myHeight c_myNtype[1] c_myNtype[2] c_myNtype[3] 
   50051            0     1028 5.8814781e-12 5.6367593e-05            0          828          200 
   51051   0.26321793     1028 5.8814781e-12 5.7645026e-05            0          828          200 
Loop time of 0.263242 on 4 procs for 1000 steps with 1028 atoms

100.0% CPU use with 4 MPI tasks x no OpenMP threads
timestep 720
fix_modify k1 demflag 0
fix_modify d1 demflag 0
fix_modify vf1 demflag 0
Step CPU Atoms biomass c_myHeight c_myNtype[1] c_myNtype[2] c_myNtype[3] 
   51051            0     1028 5.8814781e-12 5.7645026e-05            0          828          200 
number of iterations: 19182 
maxz = 7.527421e-05 
   51052    1.3584819     1040 6.0651704e-12 5.7701951e-05            0          840          200 
Loop time of 1.3585 on 4 procs for 1 steps with 1040 atoms

100.0% CPU use with 4 MPI tasks x no OpenMP threads
fix_modify k1 demflag 1
fix_modify d1 demflag 1
fix_modify vf1 demflag 1
timestep 0.1
run 1000 pre no post no
Step CPU Atoms biomass c_myHeight c_myNtype[1] c_myNtype[2] c_myNtype[3] 
   51052            0     1040 6.0651704e-12 5.7701951e-05            0          840          200 
   52052   0.27023292     1040 6.0651704e-12 5.8664546e-05            0          840          200 
Loop time of 0.270253 on 4 procs for 1000 steps with 1040 atoms

99.9% CPU use with 4 MPI tasks x no OpenMP threads
timestep 720
fix_modify k1 demflag 0
fix_modify d1 demflag 0
fix_modify vf1 demflag 0
Step CPU Atoms biomass c_myHeight c_myNtype[1] c_myNtype[2] c_myNtype[3] 
   52052            0     1040 6.0651704e-12 5.8664546e-05            0          840          200 
number of iterations: 19915 
maxz = 7.793131e-05 
   52053    1.3411171     1072 6.2543123e-12 5.8738564e-05            0          872          200 
Loop time of 1.34114 on 4 procs for 1 steps with 1072 atoms

100.0% CPU use with 4 MPI tasks x no OpenMP threads
fix_modify k1 demflag 1
fix_modify d1 demflag 1
fix_modify vf1 demflag 1
timestep 0.1
run 1000 pre no post no
Step CPU Atoms biomass c_myHeight c_myNtype[1] c_myNtype[2] c_myNtype[3] 
   52053            0     1072 6.2543123e-12 5.8738564e-05            0          872          200 
   53053   0.29499698     1072 6.2543123e-12 6.0174118e-05            0          872          200 
Loop time of 0.295018 on 4 procs for 1000 steps with 1072 atoms

100.0% CPU use with 4 MPI tasks x no OpenMP threads
timestep 720
fix_modify k1 demflag 0
fix_modify d1 demflag 0
fix_modify vf1 demflag 0
Step CPU Atoms biomass c_myHeight c_myNtype[1] c_myNtype[2] c_myNtype[3] 
   53053            0     1072 6.2543123e-12 6.0174118e-05            0          872          200 
number of iterations: 20455 
maxz = 7.917554e-05 
   53054     1.352643     1102 6.4489962e-12 6.0301211e-05            0          902          200 
Loop time of 1.35266 on 4 procs for 1 steps with 1102 atoms

100.0% CPU use with 4 MPI tasks x no OpenMP threads
fix_modify k1 demflag 1
fix_modify d1 demflag 1
fix_modify vf1 demflag 1
timestep 0.1
run 1000 pre no post no
Step CPU Atoms biomass c_myHeight c_myNtype[1] c_myNtype[2] c_myNtype[3] 
   53054            0     1102 6.4489962e-12 6.0301211e-05            0          902          200 
   54054   0.30260301     1102 6.4489962e-12 6.2320172e-05            0          902          200 
Loop time of 0.302626 on 4 procs for 1000 steps with 1102 atoms

100.0% CPU use with 4 MPI tasks x no OpenMP threads
timestep 720
fix_modify k1 demflag 0
fix_modify d1 demflag 0
fix_modify vf1 demflag 0
Step CPU Atoms biomass c_myHeight c_myNtype[1] c_myNtype[2] c_myNtype[3] 
   54054            0     1102 6.4489962e-12 6.2320172e-05            0          902          200 
number of iterations: 20971 
maxz = 8.015704e-05 
   54055    1.4188561     1137 6.6493019e-12 6.2609146e-05            0          936          201 
Loop time of 1.41887 on 4 procs for 1 steps with 1137 atoms

100.0% CPU use with 4 MPI tasks x no OpenMP threads
fix_modify k1 demflag 1
fix_modify d1 demflag 1
fix_modify vf1 demflag 1
timestep 0.1
run 1000 pre no post no
Step CPU Atoms biomass c_myHeight c_myNtype[1] c_myNtype[2] c_myNtype[3] 
   54055            0     1137 6.6493019e-12 6.2609146e-05            0          936          201 
   55055   0.31193399     1137 6.6493019e-12 6.4002889e-05            0          936          201 
Loop time of 0.311956 on 4 procs for 1000 steps with 1137 atoms

100.0% CPU use with 4 MPI tasks x no OpenMP threads
timestep 720
fix_modify k1 demflag 0
fix_modify d1 demflag 0
fix_modify vf1 demflag 0
Step CPU Atoms biomass c_myHeight c_myNtype[1] c_myNtype[2] c_myNtype[3] 
   55055            0     1137 6.6493019e-12 6.4002889e-05            0          936          201 
number of iterations: 32331 
maxz = 8.212015e-05 
   55056     2.915338     1172 6.8544235e-12 6.4094281e-05            0          965          207 
Loop time of 2.91536 on 4 procs for 1 steps with 1172 atoms

99.2% CPU use with 4 MPI tasks x no OpenMP threads
fix_modify k1 demflag 1
fix_modify d1 demflag 1
fix_modify vf1 demflag 1
timestep 0.1
run 1000 pre no post no
Step CPU Atoms biomass c_myHeight c_myNtype[1] c_myNtype[2] c_myNtype[3] 
   55056            0     1172 6.8544235e-12 6.4094281e-05            0          965          207 
   56056   0.31986308     1172 6.8544235e-12 6.5966502e-05            0          965          207 
Loop time of 0.319886 on 4 procs for 1000 steps with 1172 atoms

99.9% CPU use with 4 MPI tasks x no OpenMP threads
timestep 720
fix_modify k1 demflag 0
fix_modify d1 demflag 0
fix_modify vf1 demflag 0
Step CPU Atoms biomass c_myHeight c_myNtype[1] c_myNtype[2] c_myNtype[3] 
   56056            0     1172 6.8544235e-12 6.5966502e-05            0          965          207 
number of iterations: 24511 
maxz = 8.374448e-05 
   56057    1.8553412     1220 7.0651612e-12 6.6124863e-05            0         1008          212 
Loop time of 1.85536 on 4 procs for 1 steps with 1220 atoms

100.0% CPU use with 4 MPI tasks x no OpenMP threads
fix_modify k1 demflag 1
fix_modify d1 demflag 1
fix_modify vf1 demflag 1
timestep 0.1
run 1000 pre no post no
Step CPU Atoms biomass c_myHeight c_myNtype[1] c_myNtype[2] c_myNtype[3] 
   56057            0     1220 7.0651612e-12 6.6124863e-05            0         1008          212 
   57057   0.33418894     1220 7.0651612e-12 6.7402353e-05            0         1008          212 
Loop time of 0.33421 on 4 procs for 1000 steps with 1220 atoms

99.9% CPU use with 4 MPI tasks x no OpenMP threads
timestep 720
fix_modify k1 demflag 0
fix_modify d1 demflag 0
fix_modify vf1 demflag 0
Step CPU Atoms biomass c_myHeight c_myNtype[1] c_myNtype[2] c_myNtype[3] 
   57057            0     1220 7.0651612e-12 6.7402353e-05            0         1008          212 
number of iterations: 25215 
maxz = 8.565106e-05 
   57058    1.8016908     1266 7.2815635e-12 6.7552816e-05            0         1050          216 
Loop time of 1.80171 on 4 procs for 1 steps with 1266 atoms

100.0% CPU use with 4 MPI tasks x no OpenMP threads
fix_modify k1 demflag 1
fix_modify d1 demflag 1
fix_modify vf1 demflag 1
timestep 0.1
run 1000 pre no post no
Step CPU Atoms biomass c_myHeight c_myNtype[1] c_myNtype[2] c_myNtype[3] 
   57058            0     1266 7.2815635e-12 6.7552816e-05            0         1050          216 
   58058   0.35643411     1266 7.2815635e-12 6.9265205e-05            0         1050          216 
Loop time of 0.356455 on 4 procs for 1000 steps with 1266 atoms

99.9% CPU use with 4 MPI tasks x no OpenMP threads
timestep 720
fix_modify k1 demflag 0
fix_modify d1 demflag 0
fix_modify vf1 demflag 0
Step CPU Atoms biomass c_myHeight c_myNtype[1] c_myNtype[2] c_myNtype[3] 
   58058            0     1266 7.2815635e-12 6.9265205e-05            0         1050          216 
number of iterations: 26010 
maxz = 8.789601e-05 
   58059     1.917146     1320 7.5036264e-12 6.9427607e-05            0         1098          222 
Loop time of 1.91717 on 4 procs for 1 steps with 1320 atoms

100.0% CPU use with 4 MPI tasks x no OpenMP threads
fix_modify k1 demflag 1
fix_modify d1 demflag 1
fix_modify vf1 demflag 1
timestep 0.1
run 1000 pre no post no
Step CPU Atoms biomass c_myHeight c_myNtype[1] c_myNtype[2] c_myNtype[3] 
   58059            0     1320 7.5036264e-12 6.9427607e-05            0         1098          222 
   59059   0.37895584     1320 7.5036264e-12 7.098699e-05            0         1098          222 
Loop time of 0.378978 on 4 procs for 1000 steps with 1320 atoms

99.4% CPU use with 4 MPI tasks x no OpenMP threads
timestep 720
fix_modify k1 demflag 0
fix_modify d1 demflag 0
fix_modify vf1 demflag 0
Step CPU Atoms biomass c_myHeight c_myNtype[1] c_myNtype[2] c_myNtype[3] 
   59059            0     1320 7.5036264e-12 7.098699e-05            0         1098          222 
number of iterations: 26726 
maxz = 8.970104e-05 
   59060     1.938381     1380 7.7313478e-12 7.117828e-05            0         1152          228 
Loop time of 1.9384 on 4 procs for 1 steps with 1380 atoms

99.9% CPU use with 4 MPI tasks x no OpenMP threads
fix_modify k1 demflag 1
fix_modify d1 demflag 1
fix_modify vf1 demflag 1
timestep 0.1
run 1000 pre no post no
Step CPU Atoms biomass c_myHeight c_myNtype[1] c_myNtype[2] c_myNtype[3] 
   59060            0     1380 7.7313478e-12 7.117828e-05            0         1152          228 
   60060   0.39886808     1380 7.7313478e-12 7.3081409e-05            0         1152          228 
Loop time of 0.398888 on 4 procs for 1000 steps with 1380 atoms

99.9% CPU use with 4 MPI tasks x no OpenMP threads
timestep 720
fix_modify k1 demflag 0
fix_modify d1 demflag 0
fix_modify vf1 demflag 0
Step CPU Atoms biomass c_myHeight c_myNtype[1] c_myNtype[2] c_myNtype[3] 
   60060            0     1380 7.7313478e-12 7.3081409e-05            0         1152          228 
number of iterations: 27773 
maxz = 9.270709e-05 
   60061     1.985981     1442 7.9646775e-12 7.3123651e-05            0         1206          236 
Loop time of 1.986 on 4 procs for 1 steps with 1442 atoms

100.0% CPU use with 4 MPI tasks x no OpenMP threads
fix_modify k1 demflag 1
fix_modify d1 demflag 1
fix_modify vf1 demflag 1
timestep 0.1
run 1000 pre no post no
Step CPU Atoms biomass c_myHeight c_myNtype[1] c_myNtype[2] c_myNtype[3] 
   60061            0     1442 7.9646775e-12 7.3123651e-05            0         1206          236 
   61061   0.41259003     1442 7.9646775e-12 7.4766306e-05            0         1206          236 
Loop time of 0.41261 on 4 procs for 1000 steps with 1442 atoms

99.9% CPU use with 4 MPI tasks x no OpenMP threads
timestep 720
fix_modify k1 demflag 0
fix_modify d1 demflag 0
fix_modify vf1 demflag 0
Step CPU Atoms biomass c_myHeight c_myNtype[1] c_myNtype[2] c_myNtype[3] 
   61061            0     1442 7.9646775e-12 7.4766306e-05            0         1206          236 
number of iterations: 43059 
maxz = 9.644974e-05 
   61062     4.041615     1505 8.2018791e-12 7.5036381e-05            0         1267          238 
Loop time of 4.04163 on 4 procs for 1 steps with 1505 atoms

100.0% CPU use with 4 MPI tasks x no OpenMP threads
fix_modify k1 demflag 1
fix_modify d1 demflag 1
fix_modify vf1 demflag 1
timestep 0.1
run 1000 pre no post no
Step CPU Atoms biomass c_myHeight c_myNtype[1] c_myNtype[2] c_myNtype[3] 
   61062            0     1505 8.2018791e-12 7.5036381e-05            0         1267          238 
   62062   0.43323803     1505 8.2018791e-12  7.65418e-05            0         1267          238 
Loop time of 0.433259 on 4 procs for 1000 steps with 1505 atoms

99.7% CPU use with 4 MPI tasks x no OpenMP threads
timestep 720
fix_modify k1 demflag 0
fix_modify d1 demflag 0
fix_modify vf1 demflag 0
Step CPU Atoms biomass c_myHeight c_myNtype[1] c_myNtype[2] c_myNtype[3] 
   62062            0     1505 8.2018791e-12  7.65418e-05            0         1267          238 
number of iterations: 31054 
maxz = 9.874147e-05 
   62063    2.3833501     1562 8.4445019e-12 7.6828911e-05            0         1316          246 
Loop time of 2.38337 on 4 procs for 1 steps with 1562 atoms

100.0% CPU use with 4 MPI tasks x no OpenMP threads
fix_modify k1 demflag 1
fix_modify d1 demflag 1
fix_modify vf1 demflag 1
timestep 0.1
run 1000 pre no post no
Step CPU Atoms biomass c_myHeight c_myNtype[1] c_myNtype[2] c_myNtype[3] 
   62063            0     1562 8.4445019e-12 7.6828911e-05            0         1316          246 
   63063    0.4763689     1562 8.4445019e-12 7.8899127e-05            0         1316          246 
Loop time of 0.47639 on 4 procs for 1000 steps with 1562 atoms

99.9% CPU use with 4 MPI tasks x no OpenMP threads
timestep 720
fix_modify k1 demflag 0
fix_modify d1 demflag 0
fix_modify vf1 demflag 0
Step CPU Atoms biomass c_myHeight c_myNtype[1] c_myNtype[2] c_myNtype[3] 
   63063            0     1562 8.4445019e-12 7.8899127e-05            0         1316          246 
number of iterations: 32548 
maxz = 1.004327e-04 
   63064     2.576493     1608 8.6923174e-12 7.8993318e-05            0         1355          253 
Loop time of 2.57651 on 4 procs for 1 steps with 1608 atoms

99.9% CPU use with 4 MPI tasks x no OpenMP threads
fix_modify k1 demflag 1
fix_modify d1 demflag 1
fix_modify vf1 demflag 1
timestep 0.1
run 1000 pre no post no
Step CPU Atoms biomass c_myHeight c_myNtype[1] c_myNtype[2] c_myNtype[3] 
   63064            0     1608 8.6923174e-12 7.8993318e-05            0         1355          253 
   64064   0.49595308     1608 8.6923174e-12 8.0669481e-05            0         1355          253 
Loop time of 0.495976 on 4 procs for 1000 steps with 1608 atoms

99.8% CPU use with 4 MPI tasks x no OpenMP threads
timestep 720
fix_modify k1 demflag 0
fix_modify d1 demflag 0
fix_modify vf1 demflag 0
Step CPU Atoms biomass c_myHeight c_myNtype[1] c_myNtype[2] c_myNtype[3] 
   64064            0     1608 8.6923174e-12 8.0669481e-05            0         1355          253 
number of iterations: 51576 
maxz = 1.034765e-04 
   64065     5.117296     1667 8.9426783e-12 8.0837988e-05            0         1404          263 
Loop time of 5.11731 on 4 procs for 1 steps with 1667 atoms

100.0% CPU use with 4 MPI tasks x no OpenMP threads
fix_modify k1 demflag 1
fix_modify d1 demflag 1
fix_modify vf1 demflag 1
timestep 0.1
run 1000 pre no post no
Step CPU Atoms biomass c_myHeight c_myNtype[1] c_myNtype[2] c_myNtype[3] 
   64065            0     1667 8.9426783e-12 8.0837988e-05            0         1404          263 
   65065   0.50853395     1667 8.9426783e-12 8.2589182e-05            0         1404          263 
Loop time of 0.508555 on 4 procs for 1000 steps with 1667 atoms

99.9% CPU use with 4 MPI tasks x no OpenMP threads
timestep 720
fix_modify k1 demflag 0
fix_modify d1 demflag 0
fix_modify vf1 demflag 0
Step CPU Atoms biomass c_myHeight c_myNtype[1] c_myNtype[2] c_myNtype[3] 
   65065            0     1667 8.9426783e-12 8.2589182e-05            0         1404          263 
number of iterations: 36570 
maxz = 1.041885e-04 
   65066    2.9029469     1710 9.1977278e-12 8.2950037e-05            0         1444          266 
Loop time of 2.90297 on 4 procs for 1 steps with 1710 atoms

100.0% CPU use with 4 MPI tasks x no OpenMP threads
fix_modify k1 demflag 1
fix_modify d1 demflag 1
fix_modify vf1 demflag 1
timestep 0.1
run 1000 pre no post no
Step CPU Atoms biomass c_myHeight c_myNtype[1] c_myNtype[2] c_myNtype[3] 
   65066            0     1710 9.1977278e-12 8.2950037e-05            0         1444          266 
   66066    0.5229032     1710 9.1977278e-12 8.4402841e-05            0         1444          266 
Loop time of 0.522925 on 4 procs for 1000 steps with 1710 atoms

99.9% CPU use with 4 MPI tasks x no OpenMP threads
timestep 720
fix_modify k1 demflag 0
fix_modify d1 demflag 0
fix_modify vf1 demflag 0
Step CPU Atoms biomass c_myHeight c_myNtype[1] c_myNtype[2] c_myNtype[3] 
   66066            0     1710 9.1977278e-12 8.4402841e-05            0         1444          266 
number of iterations: 37509 
maxz = 1.053189e-04 
   66067     3.100909     1755 9.4572433e-12 8.4398852e-05            0         1482          273 
Loop time of 3.10093 on 4 procs for 1 steps with 1755 atoms

99.9% CPU use with 4 MPI tasks x no OpenMP threads
fix_modify k1 demflag 1
fix_modify d1 demflag 1
fix_modify vf1 demflag 1
timestep 0.1
run 1000 pre no post no
Step CPU Atoms biomass c_myHeight c_myNtype[1] c_myNtype[2] c_myNtype[3] 
   66067            0     1755 9.4572433e-12 8.4398852e-05            0         1482          273 
   67067   0.54529595     1755 9.4572433e-12 8.5775484e-05            0         1482          273 
Loop time of 0.545317 on 4 procs for 1000 steps with 1755 atoms

99.8% CPU use with 4 MPI tasks x no OpenMP threads
timestep 720
fix_modify k1 demflag 0
fix_modify d1 demflag 0
fix_modify vf1 demflag 0
Step CPU Atoms biomass c_myHeight c_myNtype[1] c_myNtype[2] c_myNtype[3] 
   67067            0     1755 9.4572433e-12 8.5775484e-05            0         1482          273 
number of iterations: 38742 
maxz = 1.065982e-04 
   67068    3.1209891     1797 9.7209039e-12 8.5887191e-05            0         1513          284 
Loop time of 3.121 on 4 procs for 1 steps with 1797 atoms

100.0% CPU use with 4 MPI tasks x no OpenMP threads
fix_modify k1 demflag 1
fix_modify d1 demflag 1
fix_modify vf1 demflag 1
timestep 0.1
run 1000 pre no post no
Step CPU Atoms biomass c_myHeight c_myNtype[1] c_myNtype[2] c_myNtype[3] 
   67068            0     1797 9.7209039e-12 8.5887191e-05            0         1513          284 
   68068   0.57744789     1797 9.7209039e-12 8.8179973e-05            0         1513          284 
Loop time of 0.577471 on 4 procs for 1000 steps with 1797 atoms

100.0% CPU use with 4 MPI tasks x no OpenMP threads
timestep 720
fix_modify k1 demflag 0
fix_modify d1 demflag 0
fix_modify vf1 demflag 0
Step CPU Atoms biomass c_myHeight c_myNtype[1] c_myNtype[2] c_myNtype[3] 
   68068            0     1797 9.7209039e-12 8.8179973e-05            0         1513          284 
number of iterations: 38064 
maxz = 1.105377e-04 
   68069    3.1246941     1844 9.988743e-12 8.8370106e-05            0         1558          286 
Loop time of 3.12471 on 4 procs for 1 steps with 1844 atoms

100.0% CPU use with 4 MPI tasks x no OpenMP threads
fix_modify k1 demflag 1
fix_modify d1 demflag 1
fix_modify vf1 demflag 1
timestep 0.1
run 1000 pre no post no
Step CPU Atoms biomass c_myHeight c_myNtype[1] c_myNtype[2] c_myNtype[3] 
   68069            0     1844 9.988743e-12 8.8370106e-05            0         1558          286 
   69069   0.58656907     1844 9.988743e-12 8.9940146e-05            0         1558          286 
Loop time of 0.586592 on 4 procs for 1000 steps with 1844 atoms

100.0% CPU use with 4 MPI tasks x no OpenMP threads
timestep 720
fix_modify k1 demflag 0
fix_modify d1 demflag 0
fix_modify vf1 demflag 0
Step CPU Atoms biomass c_myHeight c_myNtype[1] c_myNtype[2] c_myNtype[3] 
   69069            0     1844 9.988743e-12 8.9940146e-05            0         1558          286 
number of iterations: 63324 
maxz = 1.129783e-04 
   69070    6.5420811     1898 1.0255902e-11 9.0209039e-05            0         1605          293 
Loop time of 6.5421 on 4 procs for 1 steps with 1898 atoms

100.0% CPU use with 4 MPI tasks x no OpenMP threads
fix_modify k1 demflag 1
fix_modify d1 demflag 1
fix_modify vf1 demflag 1
timestep 0.1
run 1000 pre no post no
Step CPU Atoms biomass c_myHeight c_myNtype[1] c_myNtype[2] c_myNtype[3] 
   69070            0     1898 1.0255902e-11 9.0209039e-05            0         1605          293 
   70070   0.60757709     1898 1.0255902e-11 9.1549747e-05            0         1605          293 
Loop time of 0.6076 on 4 procs for 1000 steps with 1898 atoms

99.9% CPU use with 4 MPI tasks x no OpenMP threads
timestep 720
fix_modify k1 demflag 0
fix_modify d1 demflag 0
fix_modify vf1 demflag 0
Step CPU Atoms biomass c_myHeight c_myNtype[1] c_myNtype[2] c_myNtype[3] 
   70070            0     1898 1.0255902e-11 9.1549747e-05            0         1605          293 
number of iterations: 41453 
maxz = 1.144909e-04 
   70071    3.5618279     1938 1.0526299e-11 9.1864547e-05            0         1639          299 
Loop time of 3.56185 on 4 procs for 1 steps with 1938 atoms

100.0% CPU use with 4 MPI tasks x no OpenMP threads
fix_modify k1 demflag 1
fix_modify d1 demflag 1
fix_modify vf1 demflag 1
timestep 0.1
run 1000 pre no post no
Step CPU Atoms biomass c_myHeight c_myNtype[1] c_myNtype[2] c_myNtype[3] 
   70071            0     1938 1.0526299e-11 9.1864547e-05            0         1639          299 
   71071   0.63301611     1938 1.0526299e-11 9.3790951e-05            0         1639          299 
Loop time of 0.633041 on 4 procs for 1000 steps with 1938 atoms

99.9% CPU use with 4 MPI tasks x no OpenMP threads
timestep 720
fix_modify k1 demflag 0
fix_modify d1 demflag 0
fix_modify vf1 demflag 0
Step CPU Atoms biomass c_myHeight c_myNtype[1] c_myNtype[2] c_myNtype[3] 
   71071            0     1938 1.0526299e-11 9.3790951e-05            0         1639          299 
number of iterations: 41256 
maxz = 1.159794e-04 
   71072     3.521745     1974 1.0799821e-11 9.3871933e-05            0         1672          302 
Loop time of 3.52176 on 4 procs for 1 steps with 1974 atoms

99.9% CPU use with 4 MPI tasks x no OpenMP threads
fix_modify k1 demflag 1
fix_modify d1 demflag 1
fix_modify vf1 demflag 1
timestep 0.1
run 1000 pre no post no
Step CPU Atoms biomass c_myHeight c_myNtype[1] c_myNtype[2] c_myNtype[3] 
   71072            0     1974 1.0799821e-11 9.3871933e-05            0         1672          302 
   72072   0.66957593     1974 1.0799821e-11 9.5712145e-05            0         1672          302 
Loop time of 0.669598 on 4 procs for 1000 steps with 1974 atoms

100.0% CPU use with 4 MPI tasks x no OpenMP threads
timestep 720
fix_modify k1 demflag 0
fix_modify d1 demflag 0
fix_modify vf1 demflag 0
Step CPU Atoms biomass c_myHeight c_myNtype[1] c_myNtype[2] c_myNtype[3] 
   72072            0     1974 1.0799821e-11 9.5712145e-05            0         1672          302 
number of iterations: 41831 
maxz = 1.199590e-04 
   72073     3.636173     2013 1.1076201e-11 9.5751601e-05            0         1707          306 
Loop time of 3.63619 on 4 procs for 1 steps with 2013 atoms

100.0% CPU use with 4 MPI tasks x no OpenMP threads
fix_modify k1 demflag 1
fix_modify d1 demflag 1
fix_modify vf1 demflag 1
timestep 0.1
run 1000 pre no post no
Step CPU Atoms biomass c_myHeight c_myNtype[1] c_myNtype[2] c_myNtype[3] 
   72073            0     2013 1.1076201e-11 9.5751601e-05            0         1707          306 
   73073   0.66501498     2013 1.1076201e-11 9.7569039e-05            0         1707          306 
Loop time of 0.665037 on 4 procs for 1000 steps with 2013 atoms

99.8% CPU use with 4 MPI tasks x no OpenMP threads
timestep 720
fix_modify k1 demflag 0
fix_modify d1 demflag 0
fix_modify vf1 demflag 0
Step CPU Atoms biomass c_myHeight c_myNtype[1] c_myNtype[2] c_myNtype[3] 
   73073            0     2013 1.1076201e-11 9.7569039e-05            0         1707          306 
number of iterations: 42370 
maxz = 1.204992e-04 
   73074     3.725106     2057 1.135508e-11 9.7656387e-05            0         1745          312 
Loop time of 3.72512 on 4 procs for 1 steps with 2057 atoms

99.9% CPU use with 4 MPI tasks x no OpenMP threads
fix_modify k1 demflag 1
fix_modify d1 demflag 1
fix_modify vf1 demflag 1
timestep 0.1
run 1000 pre no post no
Step CPU Atoms biomass c_myHeight c_myNtype[1] c_myNtype[2] c_myNtype[3] 
   73074            0     2057 1.135508e-11 9.7656387e-05            0         1745          312 
   74074   0.69434309     2057 1.135508e-11 9.9751439e-05            0         1745          312 
Loop time of 0.694367 on 4 procs for 1000 steps with 2057 atoms

99.8% CPU use with 4 MPI tasks x no OpenMP threads
timestep 720
fix_modify k1 demflag 0
fix_modify d1 demflag 0
fix_modify vf1 demflag 0
Step CPU Atoms biomass c_myHeight c_myNtype[1] c_myNtype[2] c_myNtype[3] 
   74074            0     2057 1.135508e-11 9.9751439e-05            0         1745          312 
number of iterations: 72636 
maxz = 1.208395e-04 
   74075    7.8721559     2109 1.1629261e-11 9.9870088e-05            0         1791          318 
Loop time of 7.87218 on 4 procs for 1 steps with 2109 atoms

100.0% CPU use with 4 MPI tasks x no OpenMP threads
fix_modify k1 demflag 1
fix_modify d1 demflag 1
fix_modify vf1 demflag 1
timestep 0.1
run 1000 pre no post no
Step CPU Atoms biomass c_myHeight c_myNtype[1] c_myNtype[2] c_myNtype[3] 
   74075            0     2109 1.1629261e-11 9.9870088e-05            0         1791          318 
   75075   0.72112799     2109 1.1629261e-11 0.0001012792            0         1791          318 
Loop time of 0.721151 on 4 procs for 1000 steps with 2109 atoms

100.0% CPU use with 4 MPI tasks x no OpenMP threads
timestep 720
fix_modify k1 demflag 0
fix_modify d1 demflag 0
fix_modify vf1 demflag 0
Step CPU Atoms biomass c_myHeight c_myNtype[1] c_myNtype[2] c_myNtype[3] 
   75075            0     2109 1.1629261e-11 0.0001012792            0         1791          318 
number of iterations: 39430 
maxz = 1.229711e-04 
[...]
S-nh4-bulk = 1.652970e-03
S-nh4-base = 1.650821e-04

number of iterations: 58 
S-sub-bulk = 5.199225e-03
S-sub-base = 8.761051e-06
S-nh4-bulk = 1.653080e-03
S-nh4-base = 1.650781e-04

number of iterations: 59 
S-sub-bulk = 5.198940e-03
S-sub-base = 8.761086e-06
S-nh4-bulk = 1.653193e-03
S-nh4-base = 1.650740e-04

number of iterations: 61 
S-sub-bulk = 5.198655e-03
S-sub-base = 8.761121e-06
S-nh4-bulk = 1.653308e-03
S-nh4-base = 1.650698e-04

number of iterations: 62 
S-sub-bulk = 5.198372e-03
S-sub-base = 8.761156e-06
S-nh4-bulk = 1.653427e-03
S-nh4-base = 1.650655e-04

number of iterations: 64 
S-sub-bulk = 5.198089e-03
S-sub-base = 8.761191e-06
S-nh4-bulk = 1.653549e-03
S-nh4-base = 1.650611e-04

number of iterations: 65 
S-sub-bulk = 5.197807e-03
S-sub-base = 8.761226e-06
S-nh4-bulk = 1.653674e-03
S-nh4-base = 1.650566e-04

number of iterations: 66 
S-sub-bulk = 5.197526e-03
S-sub-base = 8.761261e-06
S-nh4-bulk = 1.653801e-03
S-nh4-base = 1.650521e-04

number of iterations: 68 
S-sub-bulk = 5.197246e-03
S-sub-base = 8.761296e-06
S-nh4-bulk = 1.653932e-03
S-nh4-base = 1.650473e-04

number of iterations: 69 
S-sub-bulk = 5.196966e-03
S-sub-base = 8.761332e-06
S-nh4-bulk = 1.654065e-03
S-nh4-base = 1.650426e-04

number of iterations: 70 
S-sub-bulk = 5.196688e-03
S-sub-base = 8.761367e-06
S-nh4-bulk = 1.654202e-03
S-nh4-base = 1.650377e-04

number of iterations: 72 
S-sub-bulk = 5.196410e-03
S-sub-base = 8.761402e-06
S-nh4-bulk = 1.654341e-03
S-nh4-base = 1.650327e-04

number of iterations: 73 
S-sub-bulk = 5.196133e-03
S-sub-base = 8.761438e-06
S-nh4-bulk = 1.654483e-03
S-nh4-base = 1.650276e-04

number of iterations: 74 
S-sub-bulk = 5.195856e-03
S-sub-base = 8.761473e-06
S-nh4-bulk = 1.654628e-03
S-nh4-base = 1.650224e-04

number of iterations: 76 
S-sub-bulk = 5.195581e-03
S-sub-base = 8.761509e-06
S-nh4-bulk = 1.654776e-03
S-nh4-base = 1.650171e-04

number of iterations: 77 
S-sub-bulk = 5.195306e-03
S-sub-base = 8.761545e-06
S-nh4-bulk = 1.654927e-03
S-nh4-base = 1.650117e-04

number of iterations: 78 
S-sub-bulk = 5.195032e-03
S-sub-base = 8.761580e-06
S-nh4-bulk = 1.655080e-03
S-nh4-base = 1.650063e-04

number of iterations: 79 
S-sub-bulk = 5.194759e-03
S-sub-base = 8.761616e-06
S-nh4-bulk = 1.655236e-03
S-nh4-base = 1.650007e-04

number of iterations: 81 
S-sub-bulk = 5.194488e-03
S-sub-base = 8.761650e-06
S-nh4-bulk = 1.655395e-03
S-nh4-base = 1.649951e-04

number of iterations: 82 
S-sub-bulk = 5.194216e-03
S-sub-base = 8.761688e-06
S-nh4-bulk = 1.655557e-03
S-nh4-base = 1.649893e-04

number of iterations: 83 
S-sub-bulk = 5.193945e-03
S-sub-base = 8.761723e-06
S-nh4-bulk = 1.655721e-03
S-nh4-base = 1.649834e-04

number of iterations: 84 
S-sub-bulk = 5.193675e-03
S-sub-base = 8.761759e-06
S-nh4-bulk = 1.655888e-03
S-nh4-base = 1.649775e-04

number of iterations: 85 
S-sub-bulk = 5.193405e-03
S-sub-base = 8.761795e-06
S-nh4-bulk = 1.656058e-03
S-nh4-base = 1.649715e-04

number of iterations: 87 
S-sub-bulk = 5.193136e-03
S-sub-base = 8.761831e-06
S-nh4-bulk = 1.656230e-03
S-nh4-base = 1.649654e-04

number of iterations: 87 
S-sub-bulk = 5.192868e-03
S-sub-base = 8.761868e-06
S-nh4-bulk = 1.656405e-03
S-nh4-base = 1.649592e-04

number of iterations: 89 
S-sub-bulk = 5.192600e-03
S-sub-base = 8.761904e-06
S-nh4-bulk = 1.656582e-03
S-nh4-base = 1.649529e-04

number of iterations: 90 
S-sub-bulk = 5.192334e-03
S-sub-base = 8.761940e-06
S-nh4-bulk = 1.656762e-03
S-nh4-base = 1.649465e-04

number of iterations: 91 
S-sub-bulk = 5.192068e-03
S-sub-base = 8.761976e-06
S-nh4-bulk = 1.656944e-03
S-nh4-base = 1.649400e-04

number of iterations: 92 
S-sub-bulk = 5.191802e-03
S-sub-base = 8.762013e-06
S-nh4-bulk = 1.657129e-03
S-nh4-base = 1.649335e-04

number of iterations: 93 
S-sub-bulk = 5.191538e-03
S-sub-base = 8.762049e-06
S-nh4-bulk = 1.657316e-03
S-nh4-base = 1.649268e-04

number of iterations: 94 
S-sub-bulk = 5.191274e-03
S-sub-base = 8.762085e-06
S-nh4-bulk = 1.657505e-03
S-nh4-base = 1.649201e-04

number of iterations: 95 
S-sub-bulk = 5.191011e-03
S-sub-base = 8.762122e-06
S-nh4-bulk = 1.657697e-03
S-nh4-base = 1.649133e-04

number of iterations: 96 
S-sub-bulk = 5.190748e-03
S-sub-base = 8.762158e-06
S-nh4-bulk = 1.657891e-03
S-nh4-base = 1.649064e-04

number of iterations: 97 
S-sub-bulk = 5.190487e-03
S-sub-base = 8.762195e-06
S-nh4-bulk = 1.658088e-03
S-nh4-base = 1.648995e-04

number of iterations: 98 
S-sub-bulk = 5.190225e-03
S-sub-base = 8.762232e-06
S-nh4-bulk = 1.658286e-03
S-nh4-base = 1.648924e-04

number of iterations: 99 
S-sub-bulk = 5.189963e-03
S-sub-base = 8.762270e-06
S-nh4-bulk = 1.658487e-03
S-nh4-base = 1.648853e-04

number of iterations: 100 
S-sub-bulk = 5.189702e-03
S-sub-base = 8.762307e-06
S-nh4-bulk = 1.658690e-03
S-nh4-base = 1.648781e-04

number of iterations: 101 
S-sub-bulk = 5.189442e-03
S-sub-base = 8.762344e-06
S-nh4-bulk = 1.658896e-03
S-nh4-base = 1.648707e-04

number of iterations: 102 
S-sub-bulk = 5.189181e-03
S-sub-base = 8.762383e-06
S-nh4-bulk = 1.659104e-03
S-nh4-base = 1.648634e-04

number of iterations: 103 
S-sub-bulk = 5.188915e-03
S-sub-base = 8.762425e-06
S-nh4-bulk = 1.659313e-03
S-nh4-base = 1.648559e-04

number of iterations: 104 
S-sub-bulk = 5.188648e-03
S-sub-base = 8.762466e-06
S-nh4-bulk = 1.659525e-03
S-nh4-base = 1.648483e-04

number of iterations: 105 
S-sub-bulk = 5.188378e-03
S-sub-base = 8.762508e-06
S-nh4-bulk = 1.659740e-03
S-nh4-base = 1.648407e-04

number of iterations: 106 
S-sub-bulk = 5.188105e-03
S-sub-base = 8.762551e-06
S-nh4-bulk = 1.659956e-03
S-nh4-base = 1.648329e-04

number of iterations: 106 
S-sub-bulk = 5.187829e-03
S-sub-base = 8.762594e-06
S-nh4-bulk = 1.660175e-03
S-nh4-base = 1.648252e-04

number of iterations: 108 
S-sub-bulk = 5.187550e-03
S-sub-base = 8.762638e-06
S-nh4-bulk = 1.660395e-03
S-nh4-base = 1.648173e-04

number of iterations: 108 
S-sub-bulk = 5.187270e-03
S-sub-base = 8.762681e-06
S-nh4-bulk = 1.660618e-03
S-nh4-base = 1.648094e-04

number of iterations: 109 
S-sub-bulk = 5.186987e-03
S-sub-base = 8.762726e-06
S-nh4-bulk = 1.660842e-03
S-nh4-base = 1.648014e-04

number of iterations: 110 
S-sub-bulk = 5.186702e-03
S-sub-base = 8.762771e-06
S-nh4-bulk = 1.661069e-03
S-nh4-base = 1.647933e-04

number of iterations: 111 
S-sub-bulk = 5.186413e-03
S-sub-base = 8.762818e-06
S-nh4-bulk = 1.661297e-03
S-nh4-base = 1.647851e-04

number of iterations: 112 
S-sub-bulk = 5.186121e-03
S-sub-base = 8.762865e-06
S-nh4-bulk = 1.661528e-03
S-nh4-base = 1.647768e-04

number of iterations: 112 
S-sub-bulk = 5.185827e-03
S-sub-base = 8.762912e-06
S-nh4-bulk = 1.661760e-03
S-nh4-base = 1.647685e-04

number of iterations: 113 
S-sub-bulk = 5.185530e-03
S-sub-base = 8.762959e-06
S-nh4-bulk = 1.661994e-03
S-nh4-base = 1.647601e-04

number of iterations: 114 
S-sub-bulk = 5.185232e-03
S-sub-base = 8.763006e-06
S-nh4-bulk = 1.662230e-03
S-nh4-base = 1.647516e-04

number of iterations: 115 
S-sub-bulk = 5.184931e-03
S-sub-base = 8.763056e-06
S-nh4-bulk = 1.662468e-03
S-nh4-base = 1.647431e-04

number of iterations: 115 
S-sub-bulk = 5.184628e-03
S-sub-base = 8.763105e-06
S-nh4-bulk = 1.662708e-03
S-nh4-base = 1.647345e-04

number of iterations: 116 
S-sub-bulk = 5.184320e-03
S-sub-base = 8.763156e-06
S-nh4-bulk = 1.662949e-03
S-nh4-base = 1.647258e-04

number of iterations: 117 
S-sub-bulk = 5.184010e-03
S-sub-base = 8.763207e-06
S-nh4-bulk = 1.663193e-03
S-nh4-base = 1.647171e-04

number of iterations: 118 
S-sub-bulk = 5.183697e-03
S-sub-base = 8.763259e-06
S-nh4-bulk = 1.663438e-03
S-nh4-base = 1.647082e-04

number of iterations: 118 
S-sub-bulk = 5.183380e-03
S-sub-base = 8.763312e-06
S-nh4-bulk = 1.663684e-03
S-nh4-base = 1.646993e-04

number of iterations: 119 
S-sub-bulk = 5.183060e-03
S-sub-base = 8.763366e-06
S-nh4-bulk = 1.663933e-03
S-nh4-base = 1.646904e-04

number of iterations: 120 
S-sub-bulk = 5.182737e-03
S-sub-base = 8.763420e-06
S-nh4-bulk = 1.664183e-03
S-nh4-base = 1.646813e-04

number of iterations: 120 
S-sub-bulk = 5.182411e-03
S-sub-base = 8.763475e-06
S-nh4-bulk = 1.664435e-03
S-nh4-base = 1.646722e-04

number of iterations: 121 
S-sub-bulk = 5.182081e-03
S-sub-base = 8.763531e-06
S-nh4-bulk = 1.664688e-03
S-nh4-base = 1.646631e-04

number of iterations: 122 
S-sub-bulk = 5.181747e-03
S-sub-base = 8.763589e-06
S-nh4-bulk = 1.664943e-03
S-nh4-base = 1.646538e-04

number of iterations: 123 
S-sub-bulk = 5.181410e-03
S-sub-base = 8.763647e-06
S-nh4-bulk = 1.665200e-03
S-nh4-base = 1.646444e-04

number of iterations: 123 
S-sub-bulk = 5.181068e-03
S-sub-base = 8.763707e-06
S-nh4-bulk = 1.665458e-03
S-nh4-base = 1.646351e-04

number of iterations: 124 
S-sub-bulk = 5.180722e-03
S-sub-base = 8.763767e-06
S-nh4-bulk = 1.665718e-03
S-nh4-base = 1.646256e-04

number of iterations: 124 
S-sub-bulk = 5.180372e-03
S-sub-base = 8.763829e-06
S-nh4-bulk = 1.665980e-03
S-nh4-base = 1.646161e-04

number of iterations: 125 
S-sub-bulk = 5.180017e-03
S-sub-base = 8.763892e-06
S-nh4-bulk = 1.666243e-03
S-nh4-base = 1.646065e-04

number of iterations: 126 
S-sub-bulk = 5.179657e-03
S-sub-base = 8.763956e-06
S-nh4-bulk = 1.666508e-03
S-nh4-base = 1.645968e-04

number of iterations: 126 
S-sub-bulk = 5.179292e-03
S-sub-base = 8.764023e-06
S-nh4-bulk = 1.666774e-03
S-nh4-base = 1.645871e-04

number of iterations: 127 
S-sub-bulk = 5.178922e-03
S-sub-base = 8.764090e-06
S-nh4-bulk = 1.667041e-03
S-nh4-base = 1.645773e-04

number of iterations: 127 
S-sub-bulk = 5.178547e-03
S-sub-base = 8.764158e-06
S-nh4-bulk = 1.667310e-03
S-nh4-base = 1.645675e-04

number of iterations: 128 
S-sub-bulk = 5.178166e-03
S-sub-base = 8.764227e-06
S-nh4-bulk = 1.667581e-03
S-nh4-base = 1.645576e-04

number of iterations: 129 
S-sub-bulk = 5.177779e-03
S-sub-base = 8.764301e-06
S-nh4-bulk = 1.667853e-03
S-nh4-base = 1.645476e-04

number of iterations: 129 
S-sub-bulk = 5.177386e-03
S-sub-base = 8.764374e-06
S-nh4-bulk = 1.668126e-03
S-nh4-base = 1.645375e-04

number of iterations: 130 
S-sub-bulk = 5.176986e-03
S-sub-base = 8.764449e-06
S-nh4-bulk = 1.668401e-03
S-nh4-base = 1.645274e-04

number of iterations: 130 
S-sub-bulk = 5.176579e-03
S-sub-base = 8.764527e-06
S-nh4-bulk = 1.668677e-03
S-nh4-base = 1.645172e-04

number of iterations: 131 
S-sub-bulk = 5.176165e-03
S-sub-base = 8.764607e-06
S-nh4-bulk = 1.668954e-03
S-nh4-base = 1.645070e-04

number of iterations: 131 
S-sub-bulk = 5.175744e-03
S-sub-base = 8.764689e-06
S-nh4-bulk = 1.669233e-03
S-nh4-base = 1.644967e-04

number of iterations: 132 
S-sub-bulk = 5.175314e-03
S-sub-base = 8.764773e-06
S-nh4-bulk = 1.669513e-03
S-nh4-base = 1.644863e-04

number of iterations: 132 
S-sub-bulk = 5.174875e-03
S-sub-base = 8.764860e-06
S-nh4-bulk = 1.669795e-03
S-nh4-base = 1.644759e-04

number of iterations: 133 
S-sub-bulk = 5.174429e-03
S-sub-base = 8.764948e-06
S-nh4-bulk = 1.670077e-03
S-nh4-base = 1.644654e-04

number of iterations: 133 
S-sub-bulk = 5.173972e-03
S-sub-base = 8.765041e-06
S-nh4-bulk = 1.670361e-03
S-nh4-base = 1.644549e-04

number of iterations: 134 
S-sub-bulk = 5.173505e-03
S-sub-base = 8.765137e-06
S-nh4-bulk = 1.670646e-03
S-nh4-base = 1.644443e-04

number of iterations: 134 
S-sub-bulk = 5.173028e-03
S-sub-base = 8.765234e-06
S-nh4-bulk = 1.670933e-03
S-nh4-base = 1.644336e-04

number of iterations: 135 
S-sub-bulk = 5.172540e-03
S-sub-base = 8.765336e-06
S-nh4-bulk = 1.671220e-03
S-nh4-base = 1.644229e-04

number of iterations: 135 
S-sub-bulk = 5.172040e-03
S-sub-base = 8.765443e-06
S-nh4-bulk = 1.671509e-03
S-nh4-base = 1.644121e-04

number of iterations: 136 
S-sub-bulk = 5.171527e-03
S-sub-base = 8.765552e-06
S-nh4-bulk = 1.671799e-03
S-nh4-base = 1.644012e-04

number of iterations: 136 
S-sub-bulk = 5.171002e-03
S-sub-base = 8.765665e-06
S-nh4-bulk = 1.672091e-03
S-nh4-base = 1.643903e-04

number of iterations: 137 
S-sub-bulk = 5.170462e-03
S-sub-base = 8.765783e-06
S-nh4-bulk = 1.672383e-03
S-nh4-base = 1.643793e-04

number of iterations: 137 
S-sub-bulk = 5.169907e-03
S-sub-base = 8.765908e-06
S-nh4-bulk = 1.672677e-03
S-nh4-base = 1.643683e-04

number of iterations: 138 
S-sub-bulk = 5.169337e-03
S-sub-base = 8.766035e-06
S-nh4-bulk = 1.672971e-03
S-nh4-base = 1.643572e-04

number of iterations: 138 
S-sub-bulk = 5.168748e-03
S-sub-base = 8.766171e-06
S-nh4-bulk = 1.673267e-03
S-nh4-base = 1.643460e-04

number of iterations: 139 
S-sub-bulk = 5.168143e-03
S-sub-base = 8.766309e-06
S-nh4-bulk = 1.673565e-03
S-nh4-base = 1.643348e-04

number of iterations: 139 
S-sub-bulk = 5.167518e-03
S-sub-base = 8.766457e-06
S-nh4-bulk = 1.673863e-03
S-nh4-base = 1.643235e-04

number of iterations: 139 
S-sub-bulk = 5.166873e-03
S-sub-base = 8.766611e-06
S-nh4-bulk = 1.674162e-03
S-nh4-base = 1.643122e-04

number of iterations: 140 
S-sub-bulk = 5.166205e-03
S-sub-base = 8.766773e-06
S-nh4-bulk = 1.674463e-03
S-nh4-base = 1.643008e-04

number of iterations: 140 
S-sub-bulk = 5.165516e-03
S-sub-base = 8.766942e-06
S-nh4-bulk = 1.674764e-03
S-nh4-base = 1.642894e-04

number of iterations: 141 
S-sub-bulk = 5.164802e-03
S-sub-base = 8.767120e-06
S-nh4-bulk = 1.675067e-03
S-nh4-base = 1.642778e-04

number of iterations: 141 
S-sub-bulk = 5.164061e-03
S-sub-base = 8.767310e-06
S-nh4-bulk = 1.675371e-03
S-nh4-base = 1.642663e-04

number of iterations: 141 
S-sub-bulk = 5.163294e-03
S-sub-base = 8.767507e-06
S-nh4-bulk = 1.675675e-03
S-nh4-base = 1.642547e-04

number of iterations: 142 
S-sub-bulk = 5.162498e-03
S-sub-base = 8.767716e-06
S-nh4-bulk = 1.675981e-03
S-nh4-base = 1.642430e-04

number of iterations: 142 
S-sub-bulk = 5.161671e-03
S-sub-base = 8.767938e-06
S-nh4-bulk = 1.676287e-03
S-nh4-base = 1.642313e-04

number of iterations: 143 
S-sub-bulk = 5.160812e-03
S-sub-base = 8.768171e-06
S-nh4-bulk = 1.676595e-03
S-nh4-base = 1.642194e-04

number of iterations: 143 
S-sub-bulk = 5.159920e-03
S-sub-base = 8.768417e-06
S-nh4-bulk = 1.676904e-03
S-nh4-base = 1.642076e-04

number of iterations: 143 
S-sub-bulk = 5.158993e-03
S-sub-base = 8.768678e-06
S-nh4-bulk = 1.677213e-03
S-nh4-base = 1.641957e-04

number of iterations: 146 
S-sub-bulk = 5.158030e-03
S-sub-base = 8.768955e-06
S-nh4-bulk = 1.677524e-03
S-nh4-base = 1.641836e-04

number of iterations: 148 
S-sub-bulk = 5.157028e-03
S-sub-base = 8.769246e-06
S-nh4-bulk = 1.677837e-03
S-nh4-base = 1.641712e-04

number of iterations: 148 
S-sub-bulk = 5.155987e-03
S-sub-base = 8.769556e-06
S-nh4-bulk = 1.678152e-03
S-nh4-base = 1.641588e-04

number of iterations: 150 
S-sub-bulk = 5.154907e-03
S-sub-base = 8.769882e-06
S-nh4-bulk = 1.678469e-03
S-nh4-base = 1.641463e-04

number of iterations: 151 
S-sub-bulk = 5.153784e-03
S-sub-base = 8.770229e-06
S-nh4-bulk = 1.678788e-03
S-nh4-base = 1.641336e-04

number of iterations: 156 
S-sub-bulk = 5.152621e-03
S-sub-base = 8.770592e-06
S-nh4-bulk = 1.679109e-03
S-nh4-base = 1.641208e-04

number of iterations: 164 
S-sub-bulk = 5.151414e-03
S-sub-base = 8.770977e-06
S-nh4-bulk = 1.679432e-03
S-nh4-base = 1.641079e-04

number of iterations: 171 
S-sub-bulk = 5.150166e-03
S-sub-base = 8.771383e-06
S-nh4-bulk = 1.679758e-03
S-nh4-base = 1.640947e-04

number of iterations: 179 
S-sub-bulk = 5.148876e-03
S-sub-base = 8.771810e-06
S-nh4-bulk = 1.680086e-03
S-nh4-base = 1.640816e-04

number of iterations: 186 
S-sub-bulk = 5.147544e-03
S-sub-base = 8.772259e-06
S-nh4-bulk = 1.680417e-03
S-nh4-base = 1.640681e-04

number of iterations: 193 
S-sub-bulk = 5.146173e-03
S-sub-base = 8.772729e-06
S-nh4-bulk = 1.680750e-03
S-nh4-base = 1.640546e-04

number of iterations: 201 
S-sub-bulk = 5.144763e-03
S-sub-base = 8.773223e-06
S-nh4-bulk = 1.681086e-03
S-nh4-base = 1.640409e-04

number of iterations: 207 
S-sub-bulk = 5.143316e-03
S-sub-base = 8.773737e-06
S-nh4-bulk = 1.681424e-03
S-nh4-base = 1.640271e-04

number of iterations: 215 
S-sub-bulk = 5.141835e-03
S-sub-base = 8.774276e-06
S-nh4-bulk = 1.681766e-03
S-nh4-base = 1.640130e-04

number of iterations: 221 
S-sub-bulk = 5.140322e-03
S-sub-base = 8.774835e-06
S-nh4-bulk = 1.682111e-03
S-nh4-base = 1.639989e-04

number of iterations: 227 
S-sub-bulk = 5.138781e-03
S-sub-base = 8.775416e-06
S-nh4-bulk = 1.682458e-03
S-nh4-base = 1.639845e-04

number of iterations: 232 
S-sub-bulk = 5.137216e-03
S-sub-base = 8.776016e-06
S-nh4-bulk = 1.682809e-03
S-nh4-base = 1.639699e-04

number of iterations: 238 
S-sub-bulk = 5.135630e-03
S-sub-base = 8.776638e-06
S-nh4-bulk = 1.683162e-03
S-nh4-base = 1.639553e-04

number of iterations: 242 
S-sub-bulk = 5.134028e-03
S-sub-base = 8.777277e-06
S-nh4-bulk = 1.683519e-03
S-nh4-base = 1.639403e-04

number of iterations: 246 
S-sub-bulk = 5.132414e-03
S-sub-base = 8.777933e-06
S-nh4-bulk = 1.683880e-03
S-nh4-base = 1.639252e-04

number of iterations: 249 
S-sub-bulk = 5.130793e-03
S-sub-base = 8.778605e-06
S-nh4-bulk = 1.684243e-03
S-nh4-base = 1.639100e-04

number of iterations: 251 
S-sub-bulk = 5.129172e-03
S-sub-base = 8.779289e-06
S-nh4-bulk = 1.684611e-03
S-nh4-base = 1.638944e-04

number of iterations: 253 
S-sub-bulk = 5.127554e-03
S-sub-base = 8.779986e-06
S-nh4-bulk = 1.684981e-03
S-nh4-base = 1.638788e-04

number of iterations: 253 
S-sub-bulk = 5.125945e-03
S-sub-base = 8.780690e-06
S-nh4-bulk = 1.685356e-03
S-nh4-base = 1.638628e-04

number of iterations: 254 
S-sub-bulk = 5.124349e-03
S-sub-base = 8.781404e-06
S-nh4-bulk = 1.685734e-03
S-nh4-base = 1.638468e-04

number of iterations: 252 
S-sub-bulk = 5.122773e-03
S-sub-base = 8.782120e-06
S-nh4-bulk = 1.686115e-03
S-nh4-base = 1.638305e-04

number of iterations: 251 
S-sub-bulk = 5.121220e-03
S-sub-base = 8.782841e-06
S-nh4-bulk = 1.686501e-03
S-nh4-base = 1.638140e-04

number of iterations: 248 
S-sub-bulk = 5.119696e-03
S-sub-base = 8.783559e-06
S-nh4-bulk = 1.686890e-03
S-nh4-base = 1.637972e-04

number of iterations: 245 
S-sub-bulk = 5.118204e-03
S-sub-base = 8.784276e-06
S-nh4-bulk = 1.687284e-03
S-nh4-base = 1.637802e-04

number of iterations: 240 
S-sub-bulk = 5.116750e-03
S-sub-base = 8.784985e-06
S-nh4-bulk = 1.687681e-03
S-nh4-base = 1.637631e-04

number of iterations: 236 
S-sub-bulk = 5.115335e-03
S-sub-base = 8.785688e-06
S-nh4-bulk = 1.688082e-03
S-nh4-base = 1.637457e-04

number of iterations: 230 
S-sub-bulk = 5.113964e-03
S-sub-base = 8.786379e-06
S-nh4-bulk = 1.688488e-03
S-nh4-base = 1.637280e-04

number of iterations: 225 
S-sub-bulk = 5.112638e-03
S-sub-base = 8.787061e-06
S-nh4-bulk = 1.688898e-03
S-nh4-base = 1.637101e-04

number of iterations: 217 
S-sub-bulk = 5.111361e-03
S-sub-base = 8.787724e-06
S-nh4-bulk = 1.689312e-03
S-nh4-base = 1.636920e-04

number of iterations: 212 
S-sub-bulk = 5.110133e-03
S-sub-base = 8.788377e-06
S-nh4-bulk = 1.689730e-03
S-nh4-base = 1.636736e-04

number of iterations: 206 
S-sub-bulk = 5.108957e-03
S-sub-base = 8.789007e-06
S-nh4-bulk = 1.690153e-03
S-nh4-base = 1.636549e-04

number of iterations: 207 
S-sub-bulk = 5.107833e-03
S-sub-base = 8.789619e-06
S-nh4-bulk = 1.690580e-03
S-nh4-base = 1.636361e-04

number of iterations: 210 
S-sub-bulk = 5.106760e-03
S-sub-base = 8.790214e-06
S-nh4-bulk = 1.691011e-03
S-nh4-base = 1.636170e-04

number of iterations: 212 
S-sub-bulk = 5.105740e-03
S-sub-base = 8.790787e-06
S-nh4-bulk = 1.691447e-03
S-nh4-base = 1.635976e-04

number of iterations: 215 
S-sub-bulk = 5.104772e-03
S-sub-base = 8.791338e-06
S-nh4-bulk = 1.691888e-03
S-nh4-base = 1.635779e-04

number of iterations: 216 
S-sub-bulk = 5.103855e-03
S-sub-base = 8.791866e-06
S-nh4-bulk = 1.692333e-03
S-nh4-base = 1.635580e-04

number of iterations: 220 
S-sub-bulk = 5.102988e-03
S-sub-base = 8.792372e-06
S-nh4-bulk = 1.692784e-03
S-nh4-base = 1.635377e-04

number of iterations: 221 
S-sub-bulk = 5.102171e-03
S-sub-base = 8.792858e-06
S-nh4-bulk = 1.693238e-03
S-nh4-base = 1.635173e-04

number of iterations: 224 
S-sub-bulk = 5.101401e-03
S-sub-base = 8.793323e-06
S-nh4-bulk = 1.693698e-03
S-nh4-base = 1.634965e-04

number of iterations: 226 
S-sub-bulk = 5.100677e-03
S-sub-base = 8.793764e-06
S-nh4-bulk = 1.694162e-03
S-nh4-base = 1.634755e-04

ERROR: Stop here (../fix_bio_verify.cpp:288)
