LAMMPS (5 Nov 2016)
# NUFEB simulation

atom_style	bio
atom_modify	map array sort 1000 5.0e-7
boundary	ff ff ff
newton		off
#processors  2 1 1

comm_modify	vel yes
read_data_bio atom.in
  orthogonal box = (0 0 0) to (0.0001 0.0001 0.0001)
  1 by 1 by 1 MPI processor grid
  reading atoms ...
  3 atoms
  10 nutrients

group AOB type 1
1 atoms in group AOB
group NOB type 2
1 atoms in group NOB
group COMM type 3
1 atoms in group COMM

neighbor	5.0e-7 bin
neigh_modify	delay 0 one 5000

#pair_style none
pair_style  gran/hooke/history 0.000200 NULL 0.000050 NULL 0.0 1

pair_coeff  * *
timestep 36

fix 1 all nve/limit 1e-8

#fix	 2 all gravity 1.47 vector 0 0 -1 # spherical 90.0 -180.0
#fix     3 all fdrag
fix 10 all viscous 0.1


fix xw all wall/gran hooke/history 2000 NULL 500.0 NULL 1.5 0 xplane  0.0   1.0e-04
fix yw all wall/gran hooke/history 2000 NULL 500.0 NULL 1.5 0 yplane  0.0   1.0e-04
fix zw all wall/gran hooke/history 2000 NULL 500.0 NULL 1.5 0 zplane  0.0   1.0e-04

variable kanc equal 50

fix xwa all walladh v_kanc xplane  0.0   1.0e-04
fix ywa all walladh v_kanc yplane  0.0   1.0e-04
fix zwa all walladh v_kanc zplane  0.0   1.0e-04

##############Ibm Variable Definitions##############

#Defining EPS density and ratio variables
variable EPSdens equal 30
variable EPSratio equal 1.25

variable ke equal 5e+10

#Defining kinetics variables
variable temp equal 298.15
variable gasTran equal 0.08205746
variable gvol equal 8e-14
variable rth equal 0.0083144
variable pressure equal 1
variable ph equal 7.0

#Defining diffusion variables
variable diffT equal 1e-6
variable tol equal 1e-11

##############Ibm functions##############

fix k1 all kinetics 25 25 25 v_temp v_rth v_gvol v_gasTran v_ph
fix g1 all diffusion exp v_diffT v_tol pp pp nd
#fix ki3 all kinetics/ph 1
fix ki2 all kinetics/thermo 1 fix open v_pressure
fix ki1 all kinetics/monod 1 v_EPSdens
fix d1 all divide 1 v_EPSdens 1 31231

#fix j1 all epsadh 1 v_ke 1
#fix e1 HET eps_extract 16 v_EPSratio v_EPSdens 1242242

##############Ibm compute##############

compute myMass all biomass
compute myNtypes all ntypes

##############Simulation outputs##############

#dump		id all custom 250 snapshot.bubblemd id type diameter x y z
dump            d0 all bio 500 biomass
thermo_style    custom step cpu atoms biomass c_myNtypes[*] c_myMass[2]
thermo		5
thermo_modify	lost ignore

run  5000
Neighbor list info ...
  2 neighbor list requests
  update every 1 steps, delay 0 steps, check yes
  max neighbors/atom: 5000, page size: 100000
  master list distance cutoff = 1.466e-06
  ghost atom cutoff = 1.466e-06
  binsize = 7.33e-07 -> bins = 137 137 137
Memory usage per processor = 18.9946 Mbytes
Step CPU Atoms biomass c_myNtypes[1] c_myNtypes[2] c_myNtypes[3] c_myMass[2] 
       0            0        3 4.1062866e-16            1            1            1 1.3687622e-16 
       5    4111.6558        3 4.1160779e-16            1            1            1 1.368998e-16 
      10    4155.8268        3 4.1256478e-16            1            1            1 1.3689792e-16 
      15    4204.1878        3 4.1351364e-16            1            1            1 1.3688454e-16 
      20    4266.3888        3 4.1449944e-16            1            1            1 1.3690475e-16 
      25    4314.4402        3 4.1546162e-16            1            1            1 1.3689797e-16 
      30    4372.9788        3 4.1646071e-16            1            1            1 1.3692471e-16 
      35    4419.0011        3 4.1743287e-16            1            1            1 1.3692113e-16 
      40    4474.5915        3 4.1844273e-16            1            1            1 1.3695184e-16 
      45    4519.4125        3  4.19424e-16            1            1            1 1.3695055e-16 
      50    4572.2904        3 4.2044376e-16            1            1            1 1.3698431e-16 
      55    4616.0792        3 4.2143376e-16            1            1            1 1.3698487e-16 
      60    4668.1851        3 4.2246303e-16            1            1            1 1.3702124e-16 
      65    4711.3717        3 4.2346158e-16            1            1            1 1.3702342e-16 
      70    4762.2412        3 4.2450012e-16            1            1            1 1.3706212e-16 
      75    4804.9457        3 4.2550711e-16            1            1            1 1.3706577e-16 
      80    4854.9855        3 4.2655477e-16            1            1            1 1.3710659e-16 
      85    4897.1344        3 4.2757014e-16            1            1            1 1.3711161e-16 
      90    4945.8705        3 4.2862683e-16            1            1            1 1.3715441e-16 
      95    4987.4088        3 4.2965054e-16            1            1            1 1.371607e-16 
     100    5035.1338        3 4.307162e-16            1            1            1 1.3720539e-16 
     105    5076.1215        3 4.3174825e-16            1            1            1 1.3721289e-16 
     110     5122.911        3 4.3282283e-16            1            1            1 1.3725935e-16 
     115    5163.5903        3 4.338632e-16            1            1            1  1.37268e-16 
     120    5209.7204        3 4.3494669e-16            1            1            1 1.3731618e-16 
     125    5250.0818        3 4.3599538e-16            1            1            1 1.3732594e-16 
     130    5295.4318        3 4.3708777e-16            1            1            1 1.3737577e-16 
     135    5335.7651        3 4.3814481e-16            1            1            1 1.3738661e-16 
     140    5380.7463        3 4.3924609e-16            1            1            1 1.3743803e-16 
     145    5420.9686        3 4.4031148e-16            1            1            1 1.3744991e-16 
     150    5465.5198        4 4.4142165e-16            2            1            1 1.3750288e-16 
     155    5505.5191        5 4.4249543e-16            2            1            2 1.3751577e-16 
     160     5549.616        5 4.4361451e-16            2            1            2 1.3757026e-16 
     165    5589.5486        5 4.446967e-16            2            1            2 1.3758413e-16 
     170    5633.5886        5 4.4582471e-16            2            1            2 1.376401e-16 
     175    5673.3658        5 4.4691533e-16            2            1            2 1.3765493e-16 
     180    5716.7981        5 4.4805228e-16            2            1            2 1.3771234e-16 
     185    5756.6348        5 4.4915137e-16            2            1            2 1.3772811e-16 
     190    5800.1629        5 4.502973e-16            2            1            2 1.3778694e-16 
     195    5839.9448        5 4.5140489e-16            2            1            2 1.3780363e-16 
     200    5883.5716        5 4.5255981e-16            2            1            2 1.3786385e-16 
     205    5923.2702        5 4.5367594e-16            2            1            2 1.3788145e-16 
     210    5966.1804        5 4.5483988e-16            2            1            2 1.3794303e-16 
     215    6005.8654        5 4.5596459e-16            2            1            2 1.3796152e-16 
     220    6048.6998        5 4.5713759e-16            2            1            2 1.3802445e-16 
     225     6088.244        5 4.5827091e-16            2            1            2 1.3804382e-16 
     230    6130.9746        5 4.5945301e-16            2            1            2 1.3810807e-16 
     235    6170.7477        5 4.6059499e-16            2            1            2 1.381283e-16 
     240    6213.3426        5 4.617862e-16            2            1            2 1.3819385e-16 
     245    6252.9761        5 4.6293688e-16            2            1            2 1.3821493e-16 
     250    6295.4274        5 4.6413727e-16            2            1            2 1.3828178e-16 
     255    6334.9966        5 4.6529669e-16            2            1            2 1.383037e-16 
     260     6377.382        5 4.6650629e-16            2            1            2 1.3837182e-16 
     265    6417.2803        5 4.676745e-16            2            1            2 1.3839458e-16 
     270    6460.2466        5 4.6889334e-16            2            1            2 1.3846396e-16 
     275    6501.3728        5 4.7007039e-16            2            1            2 1.3848753e-16 
     280    6543.9166        5 4.7129851e-16            2            1            2 1.3855815e-16 
     285    6583.8477        5 4.7248444e-16            2            1            2 1.3858253e-16 
     290    6626.3831        5 4.737219e-16            2            1            2 1.3865439e-16 
     295    6666.5975        5 4.7491675e-16            2            1            2 1.3867957e-16 
     300    6709.1184        5 4.7616359e-16            2            1            2 1.3875265e-16 
     305    6749.1958        5 4.7736742e-16            2            1            2 1.3877863e-16 
     310    6791.7766        5 4.7862368e-16            2            1            2 1.3885291e-16 
     315    6831.8933        5 4.7983654e-16            2            1            2 1.3887967e-16 
     320    6874.4753        5 4.8110226e-16            2            1            2 1.3895516e-16 
     325     6914.784        5 4.823242e-16            2            1            2 1.389827e-16 
     330    6957.3689        5 4.8359944e-16            2            1            2 1.3905937e-16 
     335    6998.6017        5 4.8483051e-16            2            1            2 1.3908768e-16 
     340    7040.9803        5 4.8611531e-16            2            1            2 1.3916553e-16 
     345    7081.2056        5 4.8735555e-16            2            1            2 1.391946e-16 
     350    7123.5492        5 4.8864997e-16            2            1            2 1.3927361e-16 
     355    7163.8497        5 4.8989944e-16            2            1            2 1.3930344e-16 
     360    7206.1507        5 4.9120353e-16            2            1            2 1.3938362e-16 
     365    7247.1422        5 4.9246229e-16            2            1            2 1.3941421e-16 
     370    7289.7054        5 4.9377609e-16            2            1            2 1.3949554e-16 
     375    7330.4643        5 4.950442e-16            2            1            2 1.3952687e-16 
     380    7373.3378        5 4.9636776e-16            2            1            2 1.3960934e-16 
     385     7414.006        5 4.9764526e-16            2            1            2 1.3964142e-16 
     390    7456.5238        5 4.9897865e-16            2            1            2 1.3972502e-16 
     395     7497.433        5 5.002656e-16            2            1            2 1.3975783e-16 
     400    7541.5543        5 5.0160885e-16            2            1            2 1.3984257e-16 
     405    7582.4057        5 5.0290531e-16            2            1            2 1.398761e-16 
     410     7626.292        5 5.0425849e-16            2            1            2 1.3996196e-16 
     415    7667.5561        5 5.055645e-16            2            1            2 1.3999622e-16 
     420    7710.6837        5 5.0692767e-16            2            1            2 1.4008319e-16 
     425    7751.9971        5 5.082433e-16            2            1            2 1.4011817e-16 
     430    7795.0089        5 5.096165e-16            2            1            2 1.4020624e-16 
     435    7836.2982        5 5.1094181e-16            2            1            2 1.4024194e-16 
     440    7879.5047        5 5.1232511e-16            2            1            2 1.4033111e-16 
     445    7921.1699        5 5.1366015e-16            2            1            2 1.4036752e-16 
     450    7964.4198        5 5.1505359e-16            2            1            2 1.4045779e-16 
     455    8006.1177        5 5.1639843e-16            2            1            2 1.404949e-16 
     460    8049.3174        5 5.1780208e-16            2            1            2 1.4058626e-16 
     465    8091.0932        5 5.1915677e-16            2            1            2 1.4062407e-16 
     470    8135.1503        5 5.2057069e-16            2            1            2 1.4071651e-16 
     475    8176.9354        5 5.2193529e-16            2            1            2 1.4075502e-16 
     480     8222.741        5 5.2335953e-16            2            1            2 1.4084854e-16 
     485    8264.7481        5 5.247341e-16            2            1            2 1.4088774e-16 
     490    8307.9979        5 5.2616872e-16            2            1            2 1.4098233e-16 
     495    8350.4026        5 5.2755333e-16            2            1            2 1.4102222e-16 
     500    8393.7815        5 5.2899839e-16            2            1            2 1.4111788e-16 
     505    8436.5888        5 5.3039309e-16            2            1            2 1.4115845e-16 
     510    8480.1723        5 5.3184866e-16            2            1            2 1.4125517e-16 
     515    8522.6071        5 5.3325351e-16            2            1            2 1.4129643e-16 
     520    8566.3195        5 5.3471964e-16            2            1            2 1.4139419e-16 
     525     8609.036        5 5.3613472e-16            2            1            2 1.4143613e-16 
     530    8652.7902        5 5.3761147e-16            2            1            2 1.4153495e-16 
     535     8695.766        5 5.3903683e-16            2            1            2 1.4157756e-16 
     540    8739.5414        5 5.4052427e-16            2            1            2 1.4167742e-16 
     545    8782.4201        5 5.4195998e-16            2            1            2 1.417207e-16 
     550    8826.6357        5 5.4345817e-16            2            1            2 1.418216e-16 
     555    8869.5189        5 5.4490429e-16            2            1            2 1.4186555e-16 
     560      8914.12        5 5.4641329e-16            2            1            2 1.4196749e-16 
     565    8957.7154        5 5.4786989e-16            2            1            2 1.4201211e-16 
     570    9002.0641        5 5.4938978e-16            2            1            2 1.4211508e-16 
     575    9045.4581        5 5.5085692e-16            2            1            2 1.4216036e-16 
     580    9089.7996        5 5.5238774e-16            2            1            2 1.4226436e-16 
     585    9133.1722        5 5.5386549e-16            2            1            2 1.423103e-16 
     590    9177.6145        5 5.5540733e-16            2            1            2 1.4241532e-16 
     595    9221.0981        5 5.5689575e-16            2            1            2 1.4246191e-16 
     600    9265.6855        5 5.5844866e-16            2            1            2 1.4256796e-16 
     605    9309.3205        5 5.5994782e-16            2            1            2 1.426152e-16 
     610     9353.964        5 5.6151187e-16            2            1            2 1.4272226e-16 
     615    9397.7249        5 5.6302184e-16            2            1            2 1.4277015e-16 
     620    9442.4457        5 5.6459709e-16            2            1            2 1.4287822e-16 
     625    9486.4977        5 5.6611795e-16            2            1            2 1.4292676e-16 
     630    9531.4934        5 5.6770447e-16            2            1            2 1.4303583e-16 
     635    9575.6932        5 5.6923627e-16            2            1            2 1.4308502e-16 
     640    9620.8339        5 5.7083414e-16            2            1            2 1.4319509e-16 
     645    9665.1396        5 5.7237695e-16            2            1            2 1.4324492e-16 
     650    9710.7756        5 5.7398624e-16            2            1            2  1.43356e-16 
     655    9755.4143        5 5.7554014e-16            2            1            2 1.4340647e-16 
     660    9800.6191        5 5.771609e-16            2            1            2 1.4351854e-16 
     665    9845.1327        5 5.7872597e-16            2            1            2 1.4356965e-16 
     670     9890.629        5 5.8035828e-16            2            1            2 1.4368272e-16 
     675    9935.1585        5 5.8193457e-16            2            1            2 1.4373446e-16 
     680    9980.7798        5 5.8357851e-16            2            1            2 1.4384852e-16 
     685    10025.729        5 5.851661e-16            2            1            2 1.4390089e-16 
     690     10071.36        5 5.8682173e-16            2            1            2 1.4401594e-16 
     695    10117.112        5 5.884207e-16            2            1            2 1.4406894e-16 
     700    10163.042        5 5.9008809e-16            2            1            2 1.4418498e-16 
     705     10208.24        5 5.916985e-16            2            1            2 1.442386e-16 
     710    10254.356        5 5.9337774e-16            2            1            2 1.4435562e-16 
     715    10299.707        5 5.9499967e-16            2            1            2 1.4440988e-16 
     720    10345.903        5 5.9669083e-16            2            1            2 1.4452788e-16 
     725    10392.886        5 5.9832435e-16            2            1            2 1.4458276e-16 
     730    10439.621        5 6.0002748e-16            2            1            2 1.4470173e-16 
     735    10485.586        5 6.0167268e-16            2            1            2 1.4475723e-16 
     740    10532.295        5 6.0338788e-16            2            1            2 1.4487719e-16 
     745    10578.499        5 6.0504481e-16            2            1            2 1.449333e-16 
     750    10625.176        5 6.0677215e-16            2            1            2 1.4505423e-16 
     755    10671.385        5 6.084409e-16            2            1            2 1.4511097e-16 
     760    10717.903        5 6.1018045e-16            2            1            2 1.4523286e-16 
     765    10763.994        5 6.118611e-16            2            1            2 1.4529021e-16 
     770    10810.779        5 6.1361293e-16            2            1            2 1.4541307e-16 
     775    10857.444        5 6.1530556e-16            2            1            2 1.4547104e-16 
     780    10905.999        5 6.1706976e-16            2            1            2 1.4559486e-16 
     785    10952.518        5 6.1877444e-16            2            1            2 1.4565344e-16 
     790     10999.91        5 6.2055108e-16            2            1            2 1.4577823e-16 
     795    11048.485        5 6.2226789e-16            2            1            2 1.4583743e-16 
     800    11095.987        5 6.2405705e-16            2            1            2 1.4596317e-16 
     805    11142.889        5 6.2578607e-16            2            1            2 1.4602297e-16 
     810    11190.285        5 6.2758783e-16            2            1            2 1.4614968e-16 
     815     11237.25        5 6.2932914e-16            2            1            2 1.4621009e-16 
     820    11284.772        5 6.3114358e-16            2            1            2 1.4633776e-16 
     825    11333.869        5 6.3289726e-16            2            1            2 1.4639877e-16 
     830    11381.403        5 6.3472446e-16            2            1            2 1.4652739e-16 
     835    11428.628        5 6.3649059e-16            2            1            2 1.4658902e-16 
     840    11476.291        5 6.3833063e-16            2            1            2 1.4671859e-16 
     845    11523.456        5 6.4010929e-16            2            1            2 1.4678081e-16 
     850    11571.158        5 6.4196225e-16            2            1            2 1.4691134e-16 
     855    11618.499        5 6.4375353e-16            2            1            2 1.4697417e-16 
     860    11666.709        5 6.456195e-16            2            1            2 1.4710565e-16 
     865    11714.427        5 6.4742347e-16            2            1            2 1.4716907e-16 
     870    11762.677        5 6.4930253e-16            2            1            2 1.4730151e-16 
     875     11810.57        5 6.5111928e-16            2            1            2 1.4736553e-16 
     880    11858.999        5 6.5301151e-16            2            1            2 1.4749891e-16 
     885    11906.998        5 6.5484113e-16            2            1            2 1.4756353e-16 
     890    11956.099        5 6.5674661e-16            2            1            2 1.4769786e-16 
     895    12004.274        5 6.5858918e-16            2            1            2 1.4776309e-16 
     900    12052.938        5 6.6050801e-16            2            1            2 1.4789836e-16 
     905    12101.376        5 6.6236361e-16            2            1            2 1.4796418e-16 
     910    12150.231        5 6.6429586e-16            2            1            2 1.4810039e-16 
     915    12198.775        5 6.6616459e-16            2            1            2 1.4816681e-16 
     920    12247.759        5 6.6811036e-16            2            1            2 1.4830397e-16 
     925    12296.344        5 6.6999229e-16            2            1            2 1.4837098e-16 
     930    12345.477        5 6.7195165e-16            2            1            2 1.4850908e-16 
     935    12394.146        5 6.7384688e-16            2            1            2 1.4857668e-16 
     940    12443.487        5 6.7581992e-16            2            1            2 1.4871572e-16 
     945    12492.388        5 6.7772853e-16            2            1            2 1.4878392e-16 
     950    12541.679        5 6.7971536e-16            2            1            2 1.489239e-16 
     955    12590.633        6 6.8163744e-16            2            1            3 1.4899269e-16 
     960    12640.038        6 6.8363813e-16            2            1            3 1.4913361e-16 
     965    12689.171        6 6.8557377e-16            2            1            3 1.4920299e-16 
     970    12739.047        6 6.8758842e-16            2            1            3 1.4934485e-16 
     975     12788.57        6 6.8953771e-16            2            1            3 1.4941482e-16 
     980    12838.256        6 6.915664e-16            2            1            3 1.4955762e-16 
     985    12887.705        6 6.9352944e-16            2            1            3 1.4962817e-16 
     990    12937.421        7 6.9557226e-16            3            1            3 1.4977191e-16 
     995    12987.046        7 6.9754913e-16            3            1            3 1.4984306e-16 
    1000    13037.251        7 6.9960618e-16            3            1            3 1.4998773e-16 
    1005    13087.058        7 7.0159698e-16            3            1            3 1.5005947e-16 
    1010    13137.204        7 7.0366835e-16            3            1            3 1.5020508e-16 
    1015    13187.182        7 7.0567316e-16            3            1            3 1.502774e-16 
    1020    13237.372        7 7.0775895e-16            3            1            3 1.5042394e-16 
    1025    13287.408        7 7.0977787e-16            3            1            3 1.5049685e-16 
    1030    13337.987        7 7.1187816e-16            3            1            3 1.5064433e-16 
    1035     13388.21        7 7.1391129e-16            3            1            3 1.5071783e-16 
    1040    13438.849        7 7.1602618e-16            3            1            3 1.5086624e-16 
    1045    13489.165        7 7.1807361e-16            3            1            3 1.5094032e-16 
    1050    13539.888        7 7.202032e-16            3            1            3 1.5108967e-16 
    1055    13590.407        7 7.2226503e-16            3            1            3 1.5116434e-16 
    1060     13641.23        7 7.2440941e-16            3            1            3 1.5131462e-16 
    1065    13691.793        7 7.2648573e-16            3            1            3 1.5138987e-16 
    1070    13743.269        7  7.28645e-16            3            1            3 1.5154109e-16 
    1075    13793.835        7 7.3073591e-16            3            1            3 1.5161692e-16 
    1080     13844.88        7 7.3291017e-16            3            1            3 1.5176907e-16 
    1085    13895.782        7 7.3501576e-16            3            1            3 1.5184549e-16 
    1090    13947.233        7 7.372051e-16            3            1            3 1.5199857e-16 
    1095    13998.356        8 7.3932548e-16            3            2            3 1.5207558e-16 
    1100    14049.777        8 7.4153001e-16            3            2            3 1.5222959e-16 
    1105    14101.439        8 7.4366527e-16            3            2            3 1.5230718e-16 
    1110    14152.692        8 7.4588509e-16            3            2            3 1.5246213e-16 
    1115    14205.097        8 7.4803533e-16            3            2            3 1.525403e-16 
    1120    14256.606        8 7.5027053e-16            3            2            3 1.5269618e-16 
    1125    14308.439        8 7.5243586e-16            3            2            3 1.5277493e-16 
    1130    14360.245        8 7.5468654e-16            3            2            3 1.5293174e-16 
    1135    14411.873        8 7.5686706e-16            3            2            3 1.5301108e-16 
    1140    14463.648        8 7.5913333e-16            3            2            3 1.5316882e-16 
    1145    14515.468        8 7.6132913e-16            3            2            3 1.5324874e-16 
    1150      14567.5        8 7.6361109e-16            3            2            3 1.5340742e-16 
    1155    14619.681        8 7.6582229e-16            3            2            3 1.5348792e-16 
    1160    14671.861        8 7.6812004e-16            3            2            3 1.5364753e-16 
    1165    14724.098        8 7.7034673e-16            3            2            3 1.5372861e-16 
    1170    14776.737        8 7.7266038e-16            3            2            3 1.5388916e-16 
    1175    14829.396        8 7.7490267e-16            3            2            3 1.5397082e-16 
    1180    14881.866        8 7.7723232e-16            3            2            3 1.541323e-16 
    1185    14934.028        8 7.7949031e-16            3            2            3 1.5421454e-16 
    1190    14986.575        8 7.8183607e-16            3            2            3 1.5437695e-16 
    1195    15039.142        8 7.8410987e-16            3            2            3 1.5445978e-16 
    1200    15092.791        8 7.8647185e-16            3            2            3 1.5462312e-16 
    1205    15145.689        8 7.8876156e-16            3            2            3 1.5470653e-16 
    1210    15198.653        8 7.9113985e-16            3            2            3 1.548708e-16 
    1215    15251.761        8 7.9344559e-16            3            2            3 1.5495479e-16 
    1220    15304.719        8 7.9584032e-16            3            2            3   1.5512e-16 
    1225    15357.677        8 7.9816219e-16            3            2            3 1.5520457e-16 
    1230    15410.916        8 8.0057345e-16            3            2            3 1.5537071e-16 
    1235    15463.927        8 8.0291156e-16            3            2            3 1.5545586e-16 
    1240    15517.716        8 8.0533946e-16            3            2            3 1.5562293e-16 
    1245    15571.097        8 8.0769392e-16            3            2            3 1.5570866e-16 
    1250    15624.616        8 8.1013859e-16            3            2            3 1.5587668e-16 
    1255    15677.902        8 8.1250951e-16            3            2            3 1.5596299e-16 
    1260    15731.594        8 8.1497105e-16            3            2            3 1.5613194e-16 
    1265    15785.317        8 8.1735854e-16            3            2            3 1.5621883e-16 
    1270    15839.005        8 8.1983705e-16            3            2            3 1.5638871e-16 
    1275    15892.753        9 8.2224122e-16            4            2            3 1.5647618e-16 
    1280    15946.651        9 8.2473683e-16            4            2            3  1.56647e-16 
    1285    16000.742        9 8.271578e-16            4            2            3 1.5673505e-16 
    1290    16054.645        9 8.2967062e-16            4            2            3 1.5690681e-16 
    1295     16108.64        9 8.321085e-16            4            2            3 1.5699544e-16 
    1300    16162.742        9 8.3463864e-16            4            2            3 1.5716813e-16 
    1305    16216.918        9 8.3709353e-16            4            2            3 1.5725734e-16 
    1310    16271.133        9 8.396411e-16            4            2            3 1.5743096e-16 
    1315    16325.367        9 8.4211314e-16            4            2            3 1.5752076e-16 
    1320    16379.879        9 8.4467827e-16            4            2            3 1.5769532e-16 
    1325    16434.436        9 8.4716756e-16            4            2            3 1.5778569e-16 
    1330    16488.988        9 8.4975035e-16            4            2            3 1.5796119e-16 
    1335    16543.568        9 8.5225701e-16            4            2            3 1.5805215e-16 
    1340    16598.113        9 8.548576e-16            4            2            3 1.5822858e-16 
    1345    16652.765        9 8.5738175e-16            4            2            3 1.5832012e-16 
    1350    16707.631        9 8.6000023e-16            4            2            3 1.5849749e-16 
    1355      16762.5        9 8.6254199e-16            4            2            3 1.5858961e-16 
    1360    16817.476        9 8.651785e-16            4            2            3 1.5876792e-16 
    1365    16872.513        9 8.6773798e-16            4            2            3 1.5886062e-16 
    1370    16927.611        9 8.7039264e-16            4            2            3 1.5903987e-16 
    1375    16982.565        9 8.7296997e-16            4            2            3 1.5913314e-16 
    1380    17038.235        9 8.7564289e-16            4            2            3 1.5931333e-16 
    1385     17093.35        9 8.7823818e-16            4            2            3 1.5940719e-16 
    1390    17148.645        9 8.8092949e-16            4            2            3 1.5958832e-16 
    1395    17204.058        9 8.8354287e-16            4            2            3 1.5968276e-16 
    1400    17259.503        9 8.8625269e-16            4            2            3 1.5986483e-16 
    1405    17314.962        9 8.8888429e-16            4            2            3 1.5995984e-16 
    1410    17370.591        9 8.9161274e-16            4            2            3 1.6014286e-16 
    1415    17426.357        9 8.9426267e-16            4            2            3 1.6023846e-16 
    1420    17482.356        9 8.9700988e-16            4            2            3 1.6042241e-16 
    1425    17538.579        9 8.9967827e-16            4            2            3 1.6051859e-16 
    1430     17594.79       10 9.0244436e-16            4            2            4 1.6070348e-16 
    1435    17651.045       10 9.0513133e-16            4            2            4 1.6080024e-16 
    1440     17707.42       10 9.0791643e-16            4            2            4 1.6098608e-16 
    1445    17764.075       10 9.1062212e-16            4            2            4 1.6108342e-16 
    1450    17820.592       10 9.1342635e-16            4            2            4 1.612702e-16 
    1455    17877.167       10 9.1615088e-16            4            2            4 1.6136812e-16 
    1460    17933.774       10 9.1897438e-16            4            2            4 1.6155585e-16 
    1465    17990.361       10 9.2171787e-16            4            2            4 1.6165435e-16 
    1470    18047.196       10 9.2456076e-16            4            2            4 1.6184302e-16 
    1475    18103.957       10 9.2732335e-16            4            2            4 1.619421e-16 
    1480    18160.976       10 9.3018576e-16            4            2            4 1.6213171e-16 
    1485    18218.036       10 9.3296757e-16            4            2            4 1.6223138e-16 
    1490    18275.101       10 9.3584964e-16            4            2            4 1.6242194e-16 
    1495    18332.344       10 9.386508e-16            4            2            4 1.6252219e-16 
    1500    18389.585       10 9.4155265e-16            4            2            4 1.6271368e-16 
    1505    18446.576       10 9.443733e-16            4            2            4 1.6281452e-16 
    1510    18503.959       10 9.4729507e-16            4            2            4 1.6300696e-16 
    1515    18561.201       10 9.5013534e-16            4            2            4 1.6310837e-16 
    1520    18618.457       10 9.5307716e-16            4            2            4 1.6330177e-16 
    1525    18675.701       10 9.5593718e-16            4            2            4 1.6340376e-16 
    1530    18733.294       10 9.5889919e-16            4            2            4 1.635981e-16 
    1535    18791.007       10 9.617791e-16            4            2            4 1.6370068e-16 
    1540    18848.542       10 9.6476142e-16            4            2            4 1.6389596e-16 
    1545    18906.168       10 9.6766135e-16            4            2            4 1.6399912e-16 
    1550    18963.904       10 9.7066413e-16            4            2            4 1.6419536e-16 
    1555    19021.724       10 9.7358422e-16            4            2            4 1.642991e-16 
    1560    19079.417       10 9.7660759e-16            4            2            4 1.6449628e-16 
    1565    19137.311       10 9.7954798e-16            4            2            4 1.646006e-16 
    1570    19195.497       10 9.8259208e-16            4            2            4 1.6479874e-16 
    1575    19255.023       10 9.855529e-16            4            2            4 1.6490364e-16 
    1580    19313.423       10 9.8861788e-16            4            2            4 1.6510272e-16 
    1585    19371.946       10 9.9159927e-16            4            2            4 1.6520821e-16 
    1590    19430.384       10 9.9468525e-16            4            2            4 1.6540824e-16 
    1595     19488.89       10 9.9768736e-16            4            2            4 1.6551431e-16 
    1600    19548.659       10 1.0007945e-15            4            2            4 1.657153e-16 
    1605    19607.484       10 1.0038175e-15            4            2            4 1.6582195e-16 
    1610    19666.444       10 1.0069459e-15            4            2            4 1.6602389e-16 
    1615    19725.424       10 1.0099898e-15            4            2            4 1.6613112e-16 
    1620     19784.46       10 1.0131397e-15            4            2            4 1.6633401e-16 
    1625    19843.631       10 1.0162048e-15            4            2            4 1.6644183e-16 
    1630    19903.031       10 1.0193762e-15            4            2            4 1.6664567e-16 
    1635    19962.052       10 1.0224626e-15            4            2            4 1.6675407e-16 
    1640    20021.409       10 1.0256558e-15            4            2            4 1.6695886e-16 
    1645    20080.752       10 1.0287636e-15            4            2            4 1.6706785e-16 
    1650    20140.382       10 1.0319786e-15            4            2            4 1.6727359e-16 
    1655    20200.134       10 1.035108e-15            4            2            4 1.6738316e-16 
    1660    20260.073       10 1.0383451e-15            4            2            4 1.6758986e-16 
    1665    20320.036       10 1.0414962e-15            4            2            4 1.6770001e-16 
    1670     20379.72       10 1.0447554e-15            4            2            4 1.6790767e-16 
    1675    20439.682       10 1.0479284e-15            4            2            4 1.6801842e-16 
    1680    20499.713       10  1.05121e-15            4            2            4 1.6822704e-16 
    1685    20559.895       10 1.054405e-15            4            2            4 1.6833838e-16 
    1690    20620.083       10 1.057709e-15            4            2            4 1.6854797e-16 
    1695    20680.574       10 1.0609262e-15            4            2            4 1.6865989e-16 
    1700    20741.091       10 1.0642529e-15            4            2            4 1.6887045e-16 
    1705    20802.075       10 1.0674924e-15            4            2            4 1.6898297e-16 
    1710    20862.833       10 1.0708418e-15            4            2            4 1.6919449e-16 
    1715    20923.305       10 1.0741038e-15            4            2            4 1.693076e-16 
    1720     20984.02       10 1.0774762e-15            4            2            4 1.6952009e-16 
    1725    21044.863       10 1.0807608e-15            4            2            4 1.6963379e-16 
    1730    21106.425       10 1.0841562e-15            4            2            4 1.6984725e-16 
    1735    21167.615       10 1.0874637e-15            4            2            4 1.6996154e-16 
    1740    21228.546       10 1.0908824e-15            4            2            4 1.7017597e-16 
    1745     21290.01       10 1.0942127e-15            4            2            4 1.7029085e-16 
    1750    21351.634       10 1.0976548e-15            4            2            4 1.7050624e-16 
    1755    21412.959       10 1.1010083e-15            4            2            4 1.7062172e-16 
    1760    21474.256       10 1.1044739e-15            4            2            4 1.7083808e-16 
    1765    21535.561       10 1.1078506e-15            4            2            4 1.7095415e-16 
    1770    21596.885       10  1.11134e-15            4            2            4 1.7117148e-16 
    1775      21658.4       10 1.1147401e-15            4            2            4 1.7128814e-16 
    1780    21720.669       10 1.1182534e-15            4            2            4 1.7150645e-16 
    1785    21782.329       10 1.1216771e-15            4            2            4 1.7162369e-16 
    1790    21844.109       10 1.1252144e-15            4            2            4 1.7184297e-16 
    1795    21905.914       10 1.1286618e-15            4            2            4 1.7196081e-16 
    1800     21967.76       10 1.1322233e-15            4            2            4 1.7218106e-16 
    1805     22029.67       10 1.1356946e-15            4            2            4 1.7229948e-16 
    1810    22091.711       10 1.1392804e-15            4            2            4 1.7252071e-16 
    1815    22153.717       10 1.1427758e-15            4            2            4 1.7263973e-16 
    1820    22215.978       10 1.1463862e-15            4            2            4 1.7286192e-16 
    1825    22278.316       10 1.1499058e-15            4            2            4 1.7298153e-16 
    1830    22340.753       10 1.1535409e-15            4            2            4 1.7320471e-16 
    1835    22407.302       11 1.157085e-15            4            2            5 1.7332494e-16 
    1840     22469.11       11 1.160745e-15            4            2            5 1.7354923e-16 
    1845     22531.54       11 1.1643137e-15            4            2            5 1.7367007e-16 
    1850     22594.23       11 1.1679986e-15            4            2            5 1.7389523e-16 
    1855    22657.006       11 1.171592e-15            4            2            5 1.7401663e-16 
    1860    22719.974       11 1.1753021e-15            4            2            5 1.7424274e-16 
    1865    22786.038       11 1.1789203e-15            4            2            5 1.7436472e-16 
    1870    22849.349       11 1.1826559e-15            4            2            5 1.745918e-16 
    1875    22912.419       11 1.1862991e-15            4            2            5 1.7471437e-16 
    1880    22975.744       11 1.1900602e-15            4            2            5 1.7494242e-16 
    1885    23035.198       11 1.1937287e-15            4            2            5 1.7506559e-16 
    1890    23092.877       11 1.1975155e-15            4            2            5 1.7529461e-16 
    1895     23150.62       11 1.2012094e-15            4            2            5 1.7541837e-16 
    1900     23208.62       11 1.205022e-15            4            2            5 1.7564837e-16 
    1905    23266.647       12 1.2087415e-15            5            2            5 1.7577272e-16 
    1910    23324.749       12 1.2125802e-15            5            2            5 1.7600369e-16 
    1915    23382.918       12 1.2163255e-15            5            2            5 1.7612863e-16 
    1920    23441.214       12 1.2201904e-15            5            2            5 1.7636059e-16 
    1925    23499.394       12 1.2239616e-15            5            2            5 1.7648612e-16 
    1930    23557.871       12 1.227853e-15            5            2            5 1.7671905e-16 
    1935    23616.244       12 1.2316503e-15            5            2            5 1.7684517e-16 
    1940    23674.978       12 1.2355682e-15            5            2            5 1.7707908e-16 
    1945    23733.573       12 1.2393918e-15            5            2            5 1.772058e-16 
    1950    23792.195       12 1.2433365e-15            5            2            5 1.7744069e-16 
    1955    23850.994       12 1.2471866e-15            5            2            5  1.77568e-16 
    1960     23909.93       12 1.2511582e-15            5            2            5 1.7780386e-16 
    1965    23968.799       12 1.2550349e-15            5            2            5 1.7793176e-16 
    1970    24027.709       12 1.2590337e-15            5            2            5 1.7816861e-16 
    1975      24086.7       12 1.2629373e-15            5            2            5 1.782971e-16 
    1980    24145.866       12 1.2669634e-15            5            2            5 1.7853493e-16 
    1985    24205.072       12 1.270894e-15            5            2            5 1.7866402e-16 
    1990    24264.315       12 1.2749476e-15            5            2            5 1.7890282e-16 
    1995    24323.633       12 1.2789053e-15            5            2            5 1.790325e-16 
    2000    24382.954       12 1.2829866e-15            5            2            5 1.7927229e-16 
    2005    24442.359       12 1.2869718e-15            5            2            5 1.7940256e-16 
    2010     24501.89       12 1.2910809e-15            5            2            5 1.7964333e-16 
    2015    24561.367       12 1.2950937e-15            5            2            5 1.7977419e-16 
    2020    24621.058       13 1.2992309e-15            6            2            5 1.8001594e-16 
    2025    24680.685       14 1.3032714e-15            7            2            5 1.8014739e-16 
    2030    24740.438       14 1.3074369e-15            7            2            5 1.8039012e-16 
    2035    24800.253       14 1.3115054e-15            7            2            5 1.8052217e-16 
    2040    24860.161       14 1.3156993e-15            7            2            5 1.8076589e-16 
    2045    24920.214       14 1.3197959e-15            7            2            5 1.8089853e-16 
    2050    24980.398       14 1.3240185e-15            7            2            5 1.8114322e-16 
    2055    25040.526       14 1.3281434e-15            7            2            5 1.8127646e-16 
    2060    25100.989       14 1.3323948e-15            7            2            5 1.8152214e-16 
    2065    25161.315       14 1.3365483e-15            7            2            5 1.8165596e-16 
    2070    25221.984       14 1.3408287e-15            7            2            5 1.8190263e-16 
    2075    25282.443       14 1.345011e-15            7            2            5 1.8203704e-16 
    2080    25342.972       14 1.3493206e-15            7            2            5 1.8228469e-16 
    2085    25403.489       14 1.3535318e-15            7            2            5 1.824197e-16 
    2090    25464.179       14 1.3578708e-15            7            2            5 1.8266833e-16 
    2095    25525.001       14 1.3621111e-15            7            2            5 1.8280393e-16 
    2100    25586.053       14 1.3664798e-15            7            2            5 1.8305355e-16 
    2105    25647.007       14 1.3707494e-15            7            2            5 1.8318975e-16 
    2110    25708.157       14 1.3751479e-15            7            2            5 1.8344035e-16 
    2115    25769.225       14 1.379447e-15            7            2            5 1.8357714e-16 
    2120    25830.391       14 1.3838755e-15            7            2            5 1.8382873e-16 
    2125    25891.639       14 1.3882044e-15            7            2            5 1.839661e-16 
    2130    25953.023       15 1.3926632e-15            7            2            6 1.8421868e-16 
    2135    26014.475       15 1.397022e-15            7            2            6 1.8435665e-16 
    2140    26075.946       15 1.4015112e-15            7            2            6 1.8461021e-16 
    2145    26137.653       15 1.4059001e-15            7            2            6 1.8474878e-16 
    2150    26199.145       15 1.4104199e-15            7            2            6 1.8500333e-16 
    2155    26260.584       15 1.4148393e-15            7            2            6 1.8514249e-16 
    2160    26322.267       15 1.4193899e-15            7            2            6 1.8539802e-16 
    2165    26384.049       15 1.4238398e-15            7            2            6 1.8553777e-16 
    2170    26445.919       15 1.4284215e-15            7            2            6 1.857943e-16 
    2175    26507.933       15 1.4329021e-15            7            2            6 1.8593464e-16 
    2180    26570.151       15 1.4375151e-15            7            2            6 1.8619215e-16 
    2185    26632.427       15 1.4420267e-15            7            2            6 1.8633309e-16 
    2190    26694.662       15 1.4466712e-15            7            2            6 1.865916e-16 
    2195    26756.907       15 1.451214e-15            7            2            6 1.8673313e-16 
    2200    26819.231       15 1.4558902e-15            7            2            6 1.8699263e-16 
    2205    26881.616       15 1.4604644e-15            7            2            6 1.8713476e-16 
    2210     26944.22       15 1.4651725e-15            7            2            6 1.8739526e-16 
    2215    27006.664       15 1.4697783e-15            7            2            6 1.8753799e-16 
    2220    27069.241       15 1.4745185e-15            7            2            6 1.8779948e-16 
    2225     27131.79       15 1.4791562e-15            7            2            6 1.879428e-16 
    2230     27194.64       15 1.4839288e-15            7            2            6 1.8820529e-16 
    2235    27257.527       15 1.4885985e-15            7            2            6 1.883492e-16 
    2240    27320.558       15 1.4934037e-15            7            2            6 1.8861269e-16 
    2245    27383.616       15 1.4981057e-15            7            2            6 1.887572e-16 
    2250    27446.749       15 1.5029436e-15            7            2            6 1.8902168e-16 
    2255     27509.98       15 1.5076782e-15            7            2            6 1.8916679e-16 
    2260    27573.407       15 1.5125491e-15            7            2            6 1.8943227e-16 
    2265    27636.706       15 1.5173164e-15            7            2            6 1.8957797e-16 
    2270    27700.056       15 1.5222205e-15            7            2            6 1.8984445e-16 
    2275    27763.371       15 1.5270208e-15            7            2            6 1.8999075e-16 
    2280    27827.139       15 1.5319584e-15            7            2            6 1.9025823e-16 
    2285    27890.944       15 1.5367918e-15            7            2            6 1.9040513e-16 
    2290     27954.89       15 1.5417631e-15            7            2            6 1.906736e-16 
    2295    28019.052       15 1.5466299e-15            7            2            6 1.9082109e-16 
    2300    28083.166       15 1.5516352e-15            7            2            6 1.9109056e-16 
    2305      28147.3       15 1.5565356e-15            7            2            6 1.9123865e-16 
    2310    28211.754       15 1.561575e-15            7            2            6 1.9150912e-16 
    2315    28276.115       15 1.5665093e-15            7            2            6 1.9165781e-16 
    2320    28340.535       15 1.5715831e-15            7            2            6 1.9192928e-16 
    2325    28404.826       15 1.5765515e-15            7            2            6 1.9207857e-16 
    2330     28469.36       15  1.58166e-15            7            2            6 1.9235104e-16 
    2335    28533.811       15 1.5866627e-15            7            2            6 1.9250092e-16 
    2340    28599.027       15 1.591806e-15            7            2            6 1.9277439e-16 
    2345    28663.799       15 1.5968433e-15            7            2            6 1.9292487e-16 
    2350    28729.013       15 1.6020217e-15            7            2            6 1.9319934e-16 
    2355    28793.977       15 1.6070938e-15            7            2            6 1.9335041e-16 
    2360    28859.121       15 1.6123075e-15            7            2            6 1.9362589e-16 
    2365    28924.342       15 1.6174147e-15            7            2            6 1.9377756e-16 
    2370    28989.574       15 1.622664e-15            7            2            6 1.9405404e-16 
    2375    29054.749       15 1.6278064e-15            7            2            6 1.9420631e-16 
    2380    29120.052       15 1.6330915e-15            7            2            6 1.9448378e-16 
    2385    29185.385       15 1.6382695e-15            7            2            6 1.9463665e-16 
    2390    29250.729       15 1.6435907e-15            7            2            6 1.9491513e-16 
    2395     29316.21       15 1.6488045e-15            7            2            6 1.950686e-16 
    2400    29381.842       15 1.6541619e-15            7            2            6 1.9534808e-16 
    2405    29447.564       15 1.6594117e-15            7            2            6 1.9550214e-16 
    2410    29513.423       15 1.6648058e-15            7            2            6 1.9578263e-16 
    2415    29579.296       15 1.6700918e-15            7            2            6 1.9593729e-16 
    2420    29644.948       16 1.6755227e-15            7            2            7 1.9621879e-16 
    2425    29710.424       16 1.6808453e-15            7            2            7 1.9637404e-16 
    2430    29776.225       16 1.6863132e-15            7            2            7 1.9665655e-16 
    2435    29841.945       16 1.6916725e-15            7            2            7 1.968124e-16 
    2440    29908.139       16 1.6971777e-15            7            2            7 1.9709591e-16 
    2445     29974.31       16 1.7025741e-15            7            2            7 1.9725236e-16 
    2450    30040.323       16 1.7081169e-15            7            2            7 1.9753687e-16 
    2455    30106.451       16 1.7135506e-15            7            2            7 1.9769392e-16 
    2460    30172.951       16 1.7191312e-15            7            2            7 1.9797944e-16 
    2465    30239.236       16 1.7246024e-15            7            2            7 1.9813709e-16 
    2470    30305.798       17 1.7302211e-15            7            2            8 1.9842362e-16 
    2475    30372.179       17 1.7357301e-15            7            2            8 1.9858186e-16 
    2480    30438.712       17 1.7413871e-15            7            2            8 1.988694e-16 
    2485     30505.94       17 1.7469342e-15            7            2            8 1.9902824e-16 
    2490    30573.146       17 1.7526298e-15            7            2            8 1.9931679e-16 
    2495    30639.441       17 1.7582152e-15            7            2            8 1.9947623e-16 
    2500    30706.235       17 1.7639497e-15            7            2            8 1.9976579e-16 
    2505    30772.855       17 1.7695737e-15            7            2            8 1.9992583e-16 
    2510    30839.733       17 1.7753473e-15            7            2            8 2.002164e-16 
    2515    30906.666       18 1.7810101e-15            8            2            8 2.0037704e-16 
    2520    30973.678       18 1.7868231e-15            8            2            8 2.0066861e-16 
    2525    31040.843       18 1.7925251e-15            8            2            8 2.0082985e-16 
    2530    31108.279       18 1.7983778e-15            8            2            8 2.0112244e-16 
    2535    31175.536       18 1.8041191e-15            8            2            8 2.0128428e-16 
    2540    31243.017       18 1.8100118e-15            8            2            8 2.0157788e-16 
    2545    31311.137       18 1.8157928e-15            8            2            8 2.0174031e-16 
    2550    31378.578       18 1.8217256e-15            8            2            8 2.0203493e-16 
    2555    31446.306       18 1.8275466e-15            8            2            8 2.0219796e-16 
    2560    31514.036       18 1.8335199e-15            8            2            8 2.024936e-16 
    2565    31581.591       18 1.8393811e-15            8            2            8 2.0265723e-16 
    2570    31649.416       18 1.8453952e-15            8            2            8 2.0295387e-16 
    2575    31717.215       18 1.8512968e-15            8            2            8 2.0311811e-16 
    2580    31785.354       18 1.857352e-15            8            2            8 2.0341577e-16 
    2585    31853.639       18 1.8632944e-15            8            2            8 2.0358061e-16 
    2590    31921.937       18 1.8693909e-15            8            2            8 2.038793e-16 
    2595    31990.177       18 1.8753744e-15            8            2            8 2.0404475e-16 
    2600    32058.622       18 1.8815125e-15            8            2            8 2.0434447e-16 
    2605    32127.058       18 1.8875373e-15            8            2            8 2.0451052e-16 
    2610    32195.578       18 1.8937173e-15            8            2            8 2.0481126e-16 
    2615    32264.203       18 1.8997838e-15            8            2            8 2.0497792e-16 
    2620    32332.855       18 1.906006e-15            8            2            8 2.0527969e-16 
    2625    32401.637       18 1.9121143e-15            8            2            8 2.0544696e-16 
    2630    32474.172       18 1.918379e-15            8            2            8 2.0574976e-16 
    2635    32545.814       18 1.9245296e-15            8            2            8 2.0591763e-16 
    2640     32617.99       18 1.930837e-15            8            2            8 2.0622146e-16 
    2645     32690.95       18 1.9370301e-15            8            2            8 2.0638994e-16 
    2650     32766.34       18 1.9433806e-15            8            2            8 2.066948e-16 
    2655    32838.495       18 1.9496165e-15            8            2            8 2.0686389e-16 
    2660    32912.136       18 1.9560104e-15            8            2            8 2.0716978e-16 
    2665    32982.344       18 1.9622893e-15            8            2            8 2.0733948e-16 
    2670    33052.191       18 1.9687268e-15            8            2            8 2.076464e-16 
    2675    33122.127       18 1.9750492e-15            8            2            8 2.078167e-16 
    2680    33192.286       18 1.9815306e-15            8            2            8 2.0812465e-16 
    2685    33262.871       18 1.9878967e-15            8            2            8 2.0829557e-16 
    2690     33333.14       18 1.9944224e-15            8            2            8 2.0860455e-16 
    2695    33404.193       18 2.0008324e-15            8            2            8 2.0877607e-16 
    2700    33476.321       18 2.0074027e-15            8            2            8 2.0908609e-16 
    2705    33547.557       18 2.013857e-15            8            2            8 2.0925822e-16 
    2710    33618.165       18 2.0204721e-15            8            2            8 2.0956927e-16 
    2715    33688.936       18 2.026971e-15            8            2            8 2.0974201e-16 
    2720    33759.843       18 2.0336314e-15            8            2            8 2.100541e-16 
    2725    33833.532       18 2.0401752e-15            8            2            8 2.1022745e-16 
    2730    33904.955       18 2.046881e-15            8            2            8 2.1054057e-16 
    2735    33976.924       18  2.05347e-15            8            2            8 2.1071453e-16 
    2740    34049.315       18 2.0602216e-15            8            2            8 2.1102869e-16 
    2745    34121.411       18 2.0668561e-15            8            2            8 2.1120326e-16 
    2750    34193.346       18 2.0736538e-15            8            2            8 2.1151846e-16 
    2755    34265.119       18 2.0803342e-15            8            2            8 2.1169364e-16 
    2760    34336.418       18 2.0871784e-15            8            2            8 2.1200987e-16 
    2765    34407.598       18 2.0939049e-15            8            2            8 2.1218566e-16 
    2770    34478.958       18 2.1007958e-15            8            2            8 2.1250294e-16 
    2775    34550.513       18 2.1075688e-15            8            2            8 2.1267934e-16 
    2780    34622.192       18 2.1145068e-15            8            2            8 2.1299765e-16 
    2785    34693.742       18 2.1213266e-15            8            2            8 2.1317466e-16 
    2790    34765.365       18 2.1283119e-15            8            2            8 2.1349402e-16 
    2795    34837.283       19 2.1351788e-15            8            2            9 2.1367164e-16 
    2800    34909.334       20 2.1422119e-15            9            2            9 2.1399204e-16 
    2805    34981.294       20 2.1491263e-15            9            2            9 2.1417027e-16 
    2810    35053.549       20 2.1562074e-15            9            2            9 2.1449171e-16 
    2815    35126.135       20 2.1631695e-15            9            2            9 2.1467056e-16 
    2820    35201.924       20 2.170299e-15            9            2            9 2.1499302e-16 
    2825    35275.539       20 2.1773092e-15            9            2            9 2.1517246e-16 
    2830     35347.98       20 2.1844874e-15            9            2            9 2.1549596e-16 
    2835    35420.442       20 2.191546e-15            9            2            9 2.1567603e-16 
    2840    35493.021       20 2.1987733e-15            9            2            9 2.1600059e-16 
    2845    35565.591       20 2.2058807e-15            9            2            9 2.1618127e-16 
    2850    35638.363       20 2.2131573e-15            9            2            9 2.1650689e-16 
    2855    35711.064       21 2.2203139e-15           10            2            9 2.1668819e-16 
    2860    35784.061       21 2.2276402e-15           10            2            9 2.1701485e-16 
    2865    35856.696       21 2.2348462e-15           10            2            9 2.1719676e-16 
    2870    35929.607       21 2.2422226e-15           10            2            9 2.1752447e-16 
    2875    36002.399       21 2.2494784e-15           10            2            9  2.17707e-16 
    2880     36075.56       21 2.2569052e-15           10            2            9 2.1803576e-16 
    2885     36148.62       21 2.2642111e-15           10            2            9 2.182189e-16 
    2890    36221.919       21 2.2716887e-15           10            2            9 2.1854871e-16 
    2895    36295.185       21 2.2790451e-15           10            2            9 2.1873247e-16 
    2900    36368.589       21 2.2865737e-15           10            2            9 2.1906333e-16 
    2905    36441.906       21 2.293981e-15           10            2            9 2.192477e-16 
    2910    36515.379       22 2.3015611e-15           10            2           10 2.1957961e-16 
    2915    36588.852       22 2.3090195e-15           10            2           10 2.197646e-16 
    2920     36662.46       22 2.3166514e-15           10            2           10 2.2009757e-16 
    2925    36736.067       22 2.3241614e-15           10            2           10 2.2028317e-16 
    2930    36809.961       22 2.3318455e-15           10            2           10 2.2061719e-16 
    2935    36883.758       22 2.3394074e-15           10            2           10 2.2080341e-16 
    2940    36957.785       22 2.347144e-15           10            2           10 2.2113849e-16 
    2945    37033.693       22 2.3547581e-15           10            2           10 2.2132533e-16 
    2950      37110.8       22 2.3625476e-15           10            2           10 2.2166148e-16 
    2955     37187.95       23 2.3702144e-15           11            2           10 2.2184894e-16 
    2960    37265.272       23 2.3780571e-15           11            2           10 2.2218613e-16 
    2965    37342.475       23 2.3857769e-15           11            2           10 2.223742e-16 
    2970    37418.404       24 2.3936732e-15           12            2           10 2.2271247e-16 
    2975    37492.399       24 2.4014464e-15           12            2           10 2.2290117e-16 
    2980    37566.888       24 2.4093967e-15           12            2           10 2.2324049e-16 
    2985    37641.701       24 2.4172236e-15           12            2           10 2.234298e-16 
    2990    37716.824       24 2.4252283e-15           12            2           10 2.2377018e-16 
    2995    37791.743       24 2.4331092e-15           12            2           10 2.239601e-16 
    3000    37866.793       24 2.4411686e-15           12            2           10 2.2430154e-16 
    3005      37942.2       24 2.4491041e-15           12            2           10 2.2449209e-16 
    3010     38017.61       24 2.4572186e-15           12            2           10 2.2483459e-16 
    3015    38093.157       24 2.4652089e-15           12            2           10 2.2502576e-16 
    3020    38170.115       25 2.4733788e-15           13            2           10 2.2536932e-16 
    3025     38246.06       25 2.4814244e-15           13            2           10 2.2556111e-16 
    3030    38322.025       25 2.4896502e-15           13            2           10 2.2590574e-16 
    3035    38397.827       25 2.4977514e-15           13            2           10 2.2609815e-16 
    3040    38473.749       25 2.5060334e-15           13            2           10 2.2644385e-16 
    3045    38549.841       25 2.5141906e-15           13            2           10 2.2663688e-16 
    3050    38626.676       25 2.5225293e-15           13            2           10 2.2698364e-16 
    3055    38704.658       25 2.5307429e-15           13            2           10 2.271773e-16 
    3060    38781.081       25 2.5391386e-15           13            2           10 2.2752513e-16 
    3065    38858.279       26 2.5474089e-15           13            2           11 2.2771941e-16 
    3070    38935.748       26 2.5558621e-15           13            2           11 2.2806831e-16 
    3075    39013.432       26 2.5641896e-15           13            2           11 2.2826321e-16 
    3080    39090.115       26 2.5727006e-15           13            2           11 2.2861319e-16 
    3085    39167.159       26 2.5810857e-15           13            2           11 2.2880872e-16 
    3090     39244.51       26 2.5896549e-15           13            2           11 2.2915977e-16 
    3095    39322.118       26 2.5980979e-15           13            2           11 2.2935592e-16 
    3100    39400.031       26 2.6067257e-15           13            2           11 2.2970804e-16 
    3105    39527.878       26 2.6152271e-15           13            2           11 2.2990482e-16 
    3110    39749.735       26 2.623914e-15           13            2           11 2.3025802e-16 
    3115    39970.058       26 2.6324742e-15           13            2           11 2.3045542e-16 
    3120    40187.097       26 2.6412205e-15           13            2           11 2.308097e-16 
    3125    40414.927       26 2.6498398e-15           13            2           11 2.3100773e-16 
    3130    40644.704       26 2.658646e-15           13            2           11 2.3136309e-16 
    3135    40866.073       26 2.6673249e-15           13            2           11 2.3156174e-16 
    3140    41084.957       26 2.6761913e-15           13            2           11 2.3191818e-16 
    3145     41316.56       26 2.6849303e-15           13            2           11 2.3211746e-16 
    3150    41548.575       26 2.6938573e-15           13            2           11 2.3247498e-16 
    3155    41788.498       26 2.7026567e-15           13            2           11 2.326749e-16 
    3160    41962.545       27 2.7116449e-15           14            2           11 2.330335e-16 
    3165     42142.69       27 2.7205051e-15           14            2           11 2.3323404e-16 
    3170    42311.451       27 2.7295548e-15           14            2           11 2.3359373e-16 
    3175    42476.702       27 2.7384763e-15 