LAMMPS (5 Nov 2016)
# NUFEB simulation

atom_style	bio
atom_modify	map array sort 1000 5.0e-7
boundary	ff ff ff
newton		off
#processors  2 1 1

comm_modify	vel yes
read_data_bio atom.in
  orthogonal box = (0 0 0) to (0.0001 0.0001 0.0001)
  1 by 1 by 1 MPI processor grid
  reading atoms ...
  3 atoms
  10 nutrients

group AOB type 1
1 atoms in group AOB
group NOB type 2
1 atoms in group NOB
group COMM type 3
1 atoms in group COMM

neighbor	5.0e-7 bin
neigh_modify	delay 0 one 5000

#pair_style none
pair_style  gran/hooke/history 0.000200 NULL 0.000050 NULL 0.0 1

pair_coeff  * *
timestep 36

fix 1 all nve/limit 1e-8

#fix	 2 all gravity 1.47 vector 0 0 -1 # spherical 90.0 -180.0
#fix     3 all fdrag
fix 10 all viscous 0.1


fix xw all wall/gran hooke/history 2000 NULL 500.0 NULL 1.5 0 xplane  0.0   1.0e-04
fix yw all wall/gran hooke/history 2000 NULL 500.0 NULL 1.5 0 yplane  0.0   1.0e-04
fix zw all wall/gran hooke/history 2000 NULL 500.0 NULL 1.5 0 zplane  0.0   1.0e-04

variable kanc equal 50

fix xwa all walladh v_kanc xplane  0.0   1.0e-04
fix ywa all walladh v_kanc yplane  0.0   1.0e-04
fix zwa all walladh v_kanc zplane  0.0   1.0e-04

##############Ibm Variable Definitions##############

#Defining EPS density and ratio variables
variable EPSdens equal 30
variable EPSratio equal 1.25

variable ke equal 5e+10

#Defining kinetics variables
variable temp equal 298.15
variable gasTran equal 0.08205746
variable gvol equal 8e-14
variable rth equal 0.0083144
variable pressure equal 1
variable ph equal 7.0

#Defining diffusion variables
variable diffT equal 1e-7
variable tol equal 8e-10

##############Ibm functions##############

fix k1 all kinetics 25 25 25 v_temp v_rth v_gvol v_gasTran v_ph
fix g1 all diffusion exp v_diffT v_tol pp pp nd
#fix ki3 all kinetics/ph 1
fix ki2 all kinetics/thermo 1 fix open v_pressure
fix ki1 all kinetics/monod 1 v_EPSdens
fix d1 all divide 1 v_EPSdens 1 31231

#fix j1 all epsadh 1 v_ke 1
#fix e1 HET eps_extract 16 v_EPSratio v_EPSdens 1242242

##############Ibm compute##############

compute myMass all biomass
compute myNtypes all ntypes

##############Simulation outputs##############

#dump		id all custom 250 snapshot.bubblemd id type diameter x y z
dump            d0 all bio 500 biomass
thermo_style    custom step cpu atoms biomass c_myNtypes[*] c_myMass[2]
thermo		5
thermo_modify	lost ignore

run  5000
Neighbor list info ...
  2 neighbor list requests
  update every 1 steps, delay 0 steps, check yes
  max neighbors/atom: 5000, page size: 100000
  master list distance cutoff = 1.466e-06
  ghost atom cutoff = 1.466e-06
  binsize = 7.33e-07 -> bins = 137 137 137
Memory usage per processor = 18.9946 Mbytes
Step CPU Atoms biomass c_myNtypes[1] c_myNtypes[2] c_myNtypes[3] c_myMass[2] 
       0            0        3 4.1062866e-16            1            1            1 1.3687622e-16 
       5   0.20694804        3 4.1151574e-16            1            1            1 1.3680774e-16 
      10   0.41886592        3 4.1240619e-16            1            1            1 1.3673929e-16 
      15   0.66196489        3 4.1330002e-16            1            1            1 1.3667088e-16 
      20     0.867275        3 4.1419725e-16            1            1            1 1.3660251e-16 
      25    1.0723979        3 4.1509788e-16            1            1            1 1.3653417e-16 
      30    1.2899871        3 4.1600193e-16            1            1            1 1.3646586e-16 
      35     1.495949        3 4.1690941e-16            1            1            1 1.3639758e-16 
      40    1.7151439        3 4.1782034e-16            1            1            1 1.3632934e-16 
      45     1.927696        3 4.1873472e-16            1            1            1 1.3626114e-16 
      50    2.1336081        3 4.1965256e-16            1            1            1 1.3619297e-16 
      55    2.3391581        3 4.2057388e-16            1            1            1 1.3612483e-16 
      60    2.5470901        3 4.2149869e-16            1            1            1 1.3605673e-16 
      65    2.7526679        3  4.22427e-16            1            1            1 1.3598866e-16 
      70    2.9618771        3 4.2335883e-16            1            1            1 1.3592062e-16 
      75     3.174335        3 4.2429418e-16            1            1            1 1.3585262e-16 
      80    3.3957591        3 4.2523307e-16            1            1            1 1.3578465e-16 
      85      3.62097        3 4.2617551e-16            1            1            1 1.3571672e-16 
      90    3.8404069        3 4.2712151e-16            1            1            1 1.3564882e-16 
      95     4.066761        3 4.2807108e-16            1            1            1 1.3558096e-16 
     100     4.274354        3 4.2902425e-16            1            1            1 1.3551313e-16 
     105    4.5847449        3 4.2998101e-16            1            1            1 1.3544533e-16 
     110     4.796495        3 4.3094139e-16            1            1            1 1.3537757e-16 
     115    5.0108581        3 4.3190539e-16            1            1            1 1.3530984e-16 
     120    5.2191501        3 4.3287302e-16            1            1            1 1.3524214e-16 
     125    5.4364431        3 4.3384431e-16            1            1            1 1.3517448e-16 
     130    5.6532159        3 4.3481926e-16            1            1            1 1.3510685e-16 
     135     5.866663        3 4.3579788e-16            1            1            1 1.3503926e-16 
     140    6.0777249        3 4.3678019e-16            1            1            1 1.349717e-16 
     145     6.287106        3 4.3776621e-16            1            1            1 1.3490417e-16 
     150    6.4907579        4 4.3875593e-16            2            1            1 1.3483668e-16 
     155    6.6930521        5 4.3974938e-16            2            1            2 1.3476922e-16 
     160    6.9028721        5 4.4074657e-16            2            1            2 1.3470179e-16 
     165    7.1144941        5 4.4174751e-16            2            1            2 1.346344e-16 
     170    7.3252571        5 4.4275222e-16            2            1            2 1.3456705e-16 
     175    7.5303321        5 4.437607e-16            2            1            2 1.3449972e-16 
     180     7.770735        5 4.4477298e-16            2            1            2 1.3443243e-16 
     185     8.034951        5 4.4578905e-16            2            1            2 1.3436517e-16 
     190     8.248564        5 4.4680895e-16            2            1            2 1.3429795e-16 
     195    8.4623079        5 4.4783268e-16            2            1            2 1.3423076e-16 
     200     8.699852        5 4.4886024e-16            2            1            2 1.3416361e-16 
     205    8.9163711        5 4.4989167e-16            2            1            2 1.3409649e-16 
     210    9.1933129        5 4.5092697e-16            2            1            2 1.340294e-16 
     215    9.4304111        5 4.5196615e-16            2            1            2 1.3396234e-16 
     220     9.646888        5 4.5300922e-16            2            1            2 1.3389532e-16 
     225    9.8579619        5 4.5405621e-16            2            1            2 1.3382833e-16 
     230    10.063074        5 4.5510712e-16            2            1            2 1.3376138e-16 
     235     10.27824        5 4.5616197e-16            2            1            2 1.3369446e-16 
     240     10.52514        5 4.5722077e-16            2            1            2 1.3362757e-16 
     245    10.741939        5 4.5828354e-16            2            1            2 1.3356072e-16 
     250    10.973377        5 4.5935028e-16            2            1            2 1.334939e-16 
     255     11.21119        5 4.6042102e-16            2            1            2 1.3342711e-16 
     260    11.439894        5 4.6149576e-16            2            1            2 1.3336036e-16 
     265    11.654278        5 4.6257452e-16            2            1            2 1.3329364e-16 
     270    11.872815        5 4.6365732e-16            2            1            2 1.3322695e-16 
     275    12.108654        5 4.6474416e-16            2            1            2 1.3316029e-16 
     280    12.334608        5 4.6583507e-16            2            1            2 1.3309367e-16 
     285    12.585523        5 4.6693005e-16            2            1            2 1.3302709e-16 
     290    12.808492        5 4.6802913e-16            2            1            2 1.3296053e-16 
     295    13.033392        5 4.691323e-16            2            1            2 1.3289401e-16 
     300    13.246515        5 4.702396e-16            2            1            2 1.3282753e-16 
     305    13.474075        5 4.7135103e-16            2            1            2 1.3276107e-16 
     310    13.701869        5 4.724666e-16            2            1            2 1.3269465e-16 
     315    13.913099        5 4.7358634e-16            2            1            2 1.3262827e-16 
     320    14.144041        5 4.7471025e-16            2            1            2 1.3256191e-16 
     325    14.390297        5 4.7583835e-16            2            1            2 1.3249559e-16 
     330    14.635572        5 4.7697066e-16            2            1            2 1.324293e-16 
     335    14.866065        5 4.7810719e-16            2            1            2 1.3236305e-16 
     340    15.096382        5 4.7924795e-16            2            1            2 1.3229683e-16 
     345    15.323685        5 4.8039295e-16            2            1            2 1.3223064e-16 
     350    15.598872        5 4.8154223e-16            2            1            2 1.3216449e-16 
     355    15.898494        5 4.8269578e-16            2            1            2 1.3209836e-16 
     360    16.146579        5 4.8385362e-16            2            1            2 1.3203228e-16 
     365    16.403046        5 4.8501577e-16            2            1            2 1.3196622e-16 
     370    16.708783        5 4.8618225e-16            2            1            2 1.319002e-16 
     375     17.02387        5 4.8735306e-16            2            1            2 1.3183421e-16 
     380    17.272562        5 4.8852822e-16            2            1            2 1.3176825e-16 
     385    17.495689        5 4.8970776e-16            2            1            2 1.3170233e-16 
     390    17.756489        5 4.9089167e-16            2            1            2 1.3163644e-16 
     395    17.987729        5 4.9207998e-16            2            1            2 1.3157058e-16 
     400    18.199143        5 4.9327271e-16            2            1            2 1.3150475e-16 
     405      18.4572        5 4.9446986e-16            2            1            2 1.3143896e-16 
     410    18.682452        5 4.9567146e-16            2            1            2 1.313732e-16 
     415    18.914678        5 4.9687752e-16            2            1            2 1.3130748e-16 
     420    19.126196        5 4.9808806e-16            2            1            2 1.3124178e-16 
     425    19.338219        5 4.9930308e-16            2            1            2 1.3117612e-16 
     430    19.556885        5 5.0052261e-16            2            1            2 1.311105e-16 
     435    19.760519        5 5.0174666e-16            2            1            2 1.310449e-16 
     440    19.983803        5 5.0297525e-16            2            1            2 1.3097934e-16 
     445    20.208103        5 5.0420839e-16            2            1            2 1.3091381e-16 
     450    20.433612        5 5.054461e-16            2            1            2 1.3084831e-16 
     455    20.647076        5 5.0668839e-16            2            1            2 1.3078285e-16 
     460    20.866886        5 5.0793528e-16            2            1            2 1.3071742e-16 
     465    21.080396        5 5.091868e-16            2            1            2 1.3065202e-16 
     470    21.340991        5 5.1044294e-16            2            1            2 1.3058666e-16 
     475    21.559402        5 5.1170373e-16            2            1            2 1.3052133e-16 
     480    21.762223        5 5.1296919e-16            2            1            2 1.3045603e-16 
     485    21.998069        5 5.1423932e-16            2            1            2 1.3039076e-16 
     490    22.258632        5 5.1551416e-16            2            1            2 1.3032552e-16 
     495    22.469703        5 5.167937e-16            2            1            2 1.3026032e-16 
     500    22.710159        5 5.1807798e-16            2            1            2 1.3019515e-16 
     505    22.928087        5  5.19367e-16            2            1            2 1.3013002e-16 
     510    23.171502        5 5.2066078e-16            2            1            2 1.3006491e-16 
     515    23.399546        5 5.2195935e-16            2            1            2 1.2999984e-16 
     520     23.63757        5 5.232627e-16            2            1            2 1.299348e-16 
     525    23.853933        5 5.2457088e-16            2            1            2 1.298698e-16 
     530    24.073122        5 5.2588387e-16            2            1            2 1.2980482e-16 
     535     24.32431        5 5.2720172e-16            2            1            2 1.2973988e-16 
     540     24.57308        5 5.2852443e-16            2            1            2 1.2967497e-16 
     545    24.822616        5 5.2985201e-16            2            1            2 1.296101e-16 
     550    25.076097        5 5.3118449e-16            2            1            2 1.2954525e-16 
     555    25.295969        5 5.3252189e-16            2            1            2 1.2948044e-16 
     560    25.514865        5 5.3386422e-16            2            1            2 1.2941566e-16 
     565    25.761975        5 5.3521149e-16            2            1            2 1.2935091e-16 
     570    26.011128        5 5.3656372e-16            2            1            2 1.292862e-16 
     575    26.304583        5 5.3792094e-16            2            1            2 1.2922152e-16 
     580      26.5129        5 5.3928316e-16            2            1            2 1.2915687e-16 
     585    26.741501        5 5.4065039e-16            2            1            2 1.2909225e-16 
     590    26.947147        5 5.4202266e-16            2            1            2 1.2902767e-16 
     595    27.151071        5 5.4339998e-16            2            1            2 1.2896311e-16 
     600    27.368913        5 5.4478237e-16            2            1            2 1.2889859e-16 
     605    27.578447        5 5.4616984e-16            2            1            2 1.2883411e-16 
     610     27.78887        5 5.4756241e-16            2            1            2 1.2876965e-16 
     615    27.989136        5 5.4896011e-16            2            1            2 1.2870523e-16 
     620    28.186719        5 5.5036295e-16            2            1            2 1.2864084e-16 
     625    28.389318        5 5.5177094e-16            2            1            2 1.2857648e-16 
     630    28.597096        5 5.5318411e-16            2            1            2 1.2851215e-16 
     635    28.818273        5 5.5460248e-16            2            1            2 1.2844786e-16 
     640    29.028174        5 5.5602605e-16            2            1            2 1.2838359e-16 
     645    29.241954        5 5.5745485e-16            2            1            2 1.2831936e-16 
     650    29.438139        5 5.588889e-16            2            1            2 1.2825516e-16 
     655    29.646465        5 5.6032822e-16            2            1            2  1.28191e-16 
     660    29.856559        5 5.6177281e-16            2            1            2 1.2812686e-16 
     665    30.076494        5 5.6322271e-16            2            1            2 1.2806276e-16 
     670    30.289886        5 5.6467794e-16            2            1            2 1.2799869e-16 
     675    30.496872        5 5.661385e-16            2            1            2 1.2793465e-16 
     680    30.718721        5 5.6760441e-16            2            1            2 1.2787065e-16 
     685    30.965477        5 5.6907571e-16            2            1            2 1.2780668e-16 
     690    31.208834        5 5.7055239e-16            2            1            2 1.2774273e-16 
     695    31.411061        5 5.7203449e-16            2            1            2 1.2767882e-16 
     700    31.624364        5 5.7352203e-16            2            1            2 1.2761495e-16 
     705      31.8324        5 5.7501501e-16            2            1            2 1.275511e-16 
     710    32.084169        5 5.7651347e-16            2            1            2 1.2748729e-16 
     715     32.33893        5 5.7801741e-16            2            1            2 1.2742351e-16 
     720    32.546978        5 5.7952686e-16            2            1            2 1.2735976e-16 
     725    32.747127        5 5.8104184e-16            2            1            2 1.2729604e-16 
     730    32.976439        5 5.8256236e-16            2            1            2 1.2723235e-16 
     735    33.262189        5 5.8408845e-16            2            1            2 1.271687e-16 
     740     33.47681        5 5.8562013e-16            2            1            2 1.2710507e-16 
     745     33.70731        5 5.8715741e-16            2            1            2 1.2704148e-16 
     750    33.971169        5 5.8870031e-16            2            1            2 1.2697792e-16 
     755    34.270896        5 5.9024886e-16            2            1            2 1.269144e-16 
     760    34.518196        5 5.9180307e-16            2            1            2 1.268509e-16 
     765    34.746906        5 5.9336296e-16            2            1            2 1.2678744e-16 
     770    35.039834        5 5.9492855e-16            2            1            2 1.2672401e-16 
     775    35.261116        5 5.9649987e-16            2            1            2 1.2666061e-16 
     780    35.490608        5 5.9807692e-16            2            1            2 1.2659724e-16 
     785    35.707703        5 5.9965974e-16            2            1            2 1.265339e-16 
     790     35.92548        5 6.0124834e-16            2            1            2 1.264706e-16 
     795    36.144229        5 6.0284275e-16            2            1            2 1.2640732e-16 
     800    36.358085        5 6.0444297e-16            2            1            2 1.2634408e-16 
     805    36.575336        5 6.0604904e-16            2            1            2 1.2628087e-16 
     810    36.812336        5 6.0766097e-16            2            1            2 1.2621769e-16 
     815    37.012505        5 6.0927878e-16            2            1            2 1.2615455e-16 
     820    37.219091        5 6.109025e-16            2            1            2 1.2609143e-16 
     825    37.434514        5 6.1253214e-16            2            1            2 1.2602835e-16 
     830    37.649519        5 6.1416772e-16            2            1            2 1.259653e-16 
     835    37.879612        5 6.1580927e-16            2            1            2 1.2590228e-16 
     840    38.115501        5 6.1745681e-16            2            1            2 1.2583929e-16 
     845    38.357834        5 6.1911035e-16            2            1            2 1.2577633e-16 
     850    38.581923        5 6.2076992e-16            2            1            2 1.257134e-16 
     855    38.793942        5 6.2243554e-16            2            1            2 1.2565051e-16 
     860     39.02664        5 6.2410723e-16            2            1            2 1.2558765e-16 
     865    39.273308        5 6.2578501e-16            2            1            2 1.2552482e-16 
     870    39.505343        5 6.2746889e-16            2            1            2 1.2546202e-16 
     875     39.74191        5 6.2915892e-16            2            1            2 1.2539925e-16 
     880    39.960854        5 6.3085509e-16            2            1            2 1.2533651e-16 
     885    40.220933        5 6.3255745e-16            2            1            2 1.252738e-16 
     890    40.445071        5  6.34266e-16            2            1            2 1.2521113e-16 
     895    40.680036        5 6.3598076e-16            2            1            2 1.2514849e-16 
     900    40.901624        5 6.3770177e-16            2            1            2 1.2508587e-16 
     905    41.124782        5 6.3942904e-16            2            1            2 1.2502329e-16 
     910    41.345552        5 6.411626e-16            2            1            2 1.2496074e-16 
     915    41.565773        5 6.4290246e-16            2            1            2 1.2489823e-16 
     920     41.79429        5 6.4464864e-16            2            1            2 1.2483574e-16 
     925    42.004705        5 6.4640118e-16            2            1            2 1.2477329e-16 
     930    42.216511        5 6.4816009e-16            2            1            2 1.2471086e-16 
     935    42.433459        5 6.4992539e-16            2            1            2 1.2464847e-16 
     940    42.648707        5 6.516971e-16            2            1            2 1.2458611e-16 
     945     42.88041        5 6.5347526e-16            2            1            2 1.2452378e-16 
     950     43.13995        5 6.5525987e-16            2            1            2 1.2446148e-16 
     955    43.377561        6 6.5705097e-16            2            1            3 1.2439921e-16 
     960    43.644754        6 6.5884858e-16            2            1            3 1.2433697e-16 
     965    43.888674        6 6.6065271e-16            2            1            3 1.2427477e-16 
     970    44.115489        6 6.6246339e-16            2            1            3 1.2421259e-16 
     975    44.359411        6 6.6428065e-16            2            1            3 1.2415045e-16 
     980    44.582566        6 6.661045e-16            2            1            3 1.2408834e-16 
     985     44.81777        6 6.6793497e-16            2            1            3 1.2402625e-16 
     990    45.031959        7 6.6977209e-16            3            1            3 1.239642e-16 
     995    45.343081        7 6.7161587e-16            3            1            3 1.2390218e-16 
    1000    45.588277        7 6.7346633e-16            3            1            3 1.238402e-16 
    1005    45.834812        7 6.7532351e-16            3            1            3 1.2377824e-16 
    1010    46.121812        7 6.7718743e-16            3            1            3 1.2371631e-16 
    1015    46.379825        7 6.790581e-16            3            1            3 1.2365442e-16 
    1020    46.607434        7 6.8093556e-16            3            1            3 1.2359255e-16 
    1025    46.839502        7 6.8281982e-16            3            1            3 1.2353072e-16 
    1030    47.100664        7 6.8471091e-16            3            1            3 1.2346892e-16 
    1035    47.317967        7 6.8660885e-16            3            1            3 1.2340715e-16 
    1040     47.52473        7 6.8851368e-16            3            1            3 1.2334541e-16 
    1045    47.727707        7 6.904254e-16            3            1            3 1.232837e-16 
    1050     47.94398        7 6.9234404e-16            3            1            3 1.2322202e-16 
    1055    48.148199        7 6.9426964e-16            3            1            3 1.2316037e-16 
    1060    48.380575        7 6.9620221e-16            3            1            3 1.2309875e-16 
    1065    48.603543        7 6.9814177e-16            3            1            3 1.2303717e-16 
    1070    48.870836        7 7.0008836e-16            3            1            3 1.2297561e-16 
    1075    49.098967        7 7.0204199e-16            3            1            3 1.2291409e-16 
    1080     49.31149        7 7.040027e-16            3            1            3 1.2285259e-16 
    1085    49.531947        7 7.059705e-16            3            1            3 1.2279113e-16 
    1090     49.75859        7 7.0794541e-16            3            1            3 1.227297e-16 
    1095    49.979281        7 7.0992748e-16            3            1            3 1.2266829e-16 
    1100    50.190199        7 7.1191671e-16            3            1            3 1.2260692e-16 
    1105    50.408448        7 7.1391314e-16            3            1            3 1.2254558e-16 
    1110    50.639657        7 7.1591678e-16            3            1            3 1.2248427e-16 
    1115    50.874682        7 7.1792767e-16            3            1            3  1.22423e-16 
    1120    51.132329        7 7.1994583e-16            3            1            3 1.2236175e-16 
    1125    51.344938        7 7.2197129e-16            3            1            3 1.2230053e-16 
    1130     51.56178        7 7.2400407e-16            3            1            3 1.2223934e-16 
    1135    51.804061        7 7.2604419e-16            3            1            3 1.2217819e-16 
    1140    52.053574        7 7.2809168e-16            3            1            3 1.2211706e-16 
    1145    52.272115        7 7.3014657e-16            3            1            3 1.2205597e-16 
    1150     52.48811        7 7.3220888e-16            3            1            3 1.219949e-16 
    1155    52.690998        7 7.3427864e-16            3            1            3 1.2193387e-16 
    1160    52.900605        7 7.3635588e-16            3            1            3 1.2187286e-16 
    1165    53.122603        7 7.3844061e-16            3            1            3 1.2181189e-16 
    1170     53.33044        7 7.4053288e-16            3            1            3 1.2175095e-16 
    1175    53.537966        7 7.4263269e-16            3            1            3 1.2169004e-16 
    1180    53.743427        7 7.4474009e-16            3            1            3 1.2162915e-16 
    1185    53.945012        7 7.4685509e-16            3            1            3 1.215683e-16 
    1190    54.151818        7 7.4897772e-16            3            1            3 1.2150748e-16 
    1195    54.366804        7 7.5110801e-16            3            1            3 1.2144669e-16 
    1200    54.591787        7 7.5324598e-16            3            1            3 1.2138593e-16 
    1205    54.812313        7 7.5539167e-16            3            1            3 1.213252e-16 
    1210     55.02232        7 7.5754509e-16            3            1            3 1.212645e-16 
    1215    55.233839        7 7.5970629e-16            3            1            3 1.2120384e-16 
    1220    55.454882        7 7.6187527e-16            3            1            3 1.211432e-16 
    1225    55.666294        7 7.6405207e-16            3            1            3 1.2108259e-16 
    1230    55.876151        7 7.6623672e-16            3            1            3 1.2102201e-16 
    1235    56.112903        7 7.6842925e-16            3            1            3 1.2096146e-16 
    1240    56.323658        7 7.7062967e-16            3            1            3 1.2090095e-16 
    1245    56.533644        7 7.7283803e-16            3            1            3 1.2084046e-16 
    1250    56.735169        7 7.7505434e-16            3            1            3   1.2078e-16 
    1255    56.953243        7 7.7727863e-16            3            1            3 1.2071958e-16 
    1260    57.168084        7 7.7951094e-16            3            1            3 1.2065918e-16 
    1265    57.376704        7 7.8175129e-16            3            1            3 1.2059882e-16 
    1270    57.589204        7 7.8399971e-16            3            1            3 1.2053848e-16 
    1275    57.800054        8 7.8625622e-16            4            1            3 1.2047818e-16 
    1280     58.00548        8 7.8852085e-16            4            1            3 1.204179e-16 
    1285    58.208973        8 7.9079364e-16            4            1            3 1.2035766e-16 
    1290    58.419327        8 7.9307461e-16            4            1            3 1.2029744e-16 
    1295    58.655508        8 7.9536379e-16            4            1            3 1.2023726e-16 
    1300     58.87351        8 7.9766121e-16            4            1            3 1.201771e-16 
    1305    59.096301        8 7.9996689e-16            4            1            3 1.2011698e-16 
    1310    59.309903        8 8.0228087e-16            4            1            3 1.2005688e-16 
    1315    59.534581        8 8.0460317e-16            4            1            3 1.1999682e-16 
    1320     59.74631        8 8.0693383e-16            4            1            3 1.1993678e-16 
    1325     59.94914        8 8.0927287e-16            4            1            3 1.1987678e-16 
    1330    60.158651        8 8.1162032e-16            4            1            3 1.198168e-16 
    1335    60.367769        8 8.1397621e-16            4            1            3 1.1975686e-16 
    1340    60.623506        8 8.1634057e-16            4            1            3 1.1969695e-16 
    1345    60.887371        8 8.1871343e-16            4            1            3 1.1963706e-16 
    1350    61.143918        8 8.2109482e-16            4            1            3 1.1957721e-16 
    1355    61.416974        8 8.2348477e-16            4            1            3 1.1951738e-16 
    1360    61.690484        8 8.2588331e-16            4            1            3 1.1945759e-16 
    1365    61.916838        8 8.2829047e-16            4            1            3 1.1939782e-16 
    1370    62.138854        8 8.3070627e-16            4            1            3 1.1933809e-16 
    1375    62.347818        8 8.3313076e-16            4            1            3 1.1927838e-16 
    1380    62.556367        8 8.3556395e-16            4            1            3 1.1921871e-16 
    1385    62.802337        8 8.3800588e-16            4            1            3 1.1915906e-16 
    1390    63.015432        8 8.4045658e-16            4            1            3 1.1909945e-16 
    1395    63.235501        8 8.4291609e-16            4            1            3 1.1903986e-16 
    1400    63.480002        8 8.4538442e-16            4            1            3 1.1898031e-16 
    1405    63.692272        8 8.4786161e-16            4            1            3 1.1892078e-16 
    1410    63.902159        8 8.503477e-16            4            1            3 1.1886129e-16 
    1415    64.117147        8 8.5284271e-16            4            1            3 1.1880182e-16 
    1420    64.327938        8 8.5534668e-16            4            1            3 1.1874238e-16 
    1425    64.542797        8 8.5785963e-16            4            1            3 1.1868298e-16 
    1430    64.761901        9 8.603816e-16            4            1            4 1.186236e-16 
    1435    64.977316        9 8.6291261e-16            4            1            4 1.1856425e-16 
    1440    65.188247        9 8.6545271e-16            4            1            4 1.1850493e-16 
    1445     65.39903        9 8.6800192e-16            4            1            4 1.1844565e-16 
    1450    65.627608        9 8.7056027e-16            4            1            4 1.1838639e-16 
    1455    65.846244        9 8.7312779e-16            4            1            4 1.1832716e-16 
    1460    66.054105        9 8.7570453e-16            4            1            4 1.1826796e-16 
    1465    66.263761        9 8.782905e-16            4            1            4 1.1820879e-16 
    1470    66.467075        9 8.8088574e-16            4            1            4 1.1814965e-16 
    1475    66.672173        9 8.8349029e-16            4            1            4 1.1809054e-16 
    1480    66.884679        9 8.8610417e-16            4            1            4 1.1803146e-16 
    1485    67.091591        9 8.8872743e-16            4            1            4 1.1797241e-16 
    1490      67.3081        9 8.9136008e-16            4            1            4 1.1791339e-16 
    1495    67.515324        9 8.9400216e-16            4            1            4 1.1785439e-16 
    1500    67.736055        9 8.9665372e-16            4            1            4 1.1779543e-16 
    1505    67.972642        9 8.9931477e-16            4            1            4 1.177365e-16 
    1510    68.216548        9 9.0198536e-16            4            1            4 1.176776e-16 
    1515    68.451386        9 9.0466551e-16            4            1            4 1.1761872e-16 
    1520    68.728341        9 9.0735526e-16            4            1            4 1.1755988e-16 
    1525    68.978118        9 9.1005464e-16            4            1            4 1.1750106e-16 
    1530    69.188383        9 9.1276369e-16            4            1            4 1.1744228e-16 
    1535    69.403323        9 9.1548244e-16            4            1            4 1.1738352e-16 
    1540    69.651884        9 9.1821093e-16            4            1            4 1.1732479e-16 
    1545    69.904243        9 9.2094918e-16            4            1            4 1.1726609e-16 
    1550    70.120055        9 9.2369723e-16            4            1            4 1.1720743e-16 
    1555     70.34051        9 9.2645512e-16            4            1            4 1.1714879e-16 
    1560    70.580448        9 9.2922288e-16            4            1            4 1.1709018e-16 
    1565    70.802206        9 9.3200055e-16            4            1            4 1.170316e-16 
    1570    71.024174        9 9.3478815e-16            4            1            4 1.1697305e-16 
    1575    71.254526        9 9.3758572e-16            4            1            4 1.1691453e-16 
    1580    71.486169        9 9.4039331e-16            4            1            4 1.1685603e-16 
    1585    71.700581        9 9.4321094e-16            4            1            4 1.1679757e-16 
    1590    71.919155        9 9.4603864e-16            4            1            4 1.1673914e-16 
    1595    72.144195        9 9.4887646e-16            4            1            4 1.1668073e-16 
    1600    72.364157        9 9.5172443e-16            4            1            4 1.1662236e-16 
    1605    72.594293        9 9.5458258e-16            4            1            4 1.1656401e-16 
    1610    72.813756        9 9.5745095e-16            4            1            4 1.1650569e-16 
    1615    73.027114        9 9.6032958e-16            4            1            4 1.1644741e-16 
    1620    73.252713        9 9.632185e-16            4            1            4 1.1638915e-16 
    1625    73.484623        9 9.6611774e-16            4            1            4 1.1633092e-16 
    1630    73.704337        9 9.6902735e-16            4            1            4 1.1627272e-16 
    1635    73.929947        9 9.7194735e-16            4            1            4 1.1621455e-16 
    1640    74.149968        9 9.7487779e-16            4            1            4 1.161564e-16 
    1645    74.376156        9 9.7781871e-16            4            1            4 1.1609829e-16 
    1650    74.585847        9 9.8077012e-16            4            1            4 1.1604021e-16 
    1655    74.800066        9 9.8373209e-16            4            1            4 1.1598215e-16 
    1660    75.052105        9 9.8670463e-16            4            1            4 1.1592413e-16 
    1665    75.301833        9 9.8968779e-16            4            1            4 1.1586613e-16 
    1670    75.539089        9 9.9268161e-16            4            1            4 1.1580816e-16 
    1675    75.751953        9 9.9568612e-16            4            1            4 1.1575022e-16 
    1680    75.971028        9 9.9870136e-16            4            1            4 1.1569231e-16 
    1685    76.179417        9 1.0017274e-15            4            1            4 1.1563443e-16 
    1690    76.398936        9 1.0047642e-15            4            1            4 1.1557658e-16 
    1695     76.62165        9 1.0078118e-15            4            1            4 1.1551876e-16 
    1700    76.843579        9 1.0108704e-15            4            1            4 1.1546096e-16 
    1705    77.065148        9 1.0139398e-15            4            1            4 1.154032e-16 
    1710    77.281737        9 1.0170202e-15            4            1            4 1.1534546e-16 
    1715    77.493438        9 1.0201116e-15            4            1            4 1.1528775e-16 
    1720    77.711607        9 1.023214e-15            4            1            4 1.1523008e-16 
    1725     77.92385        9 1.0263275e-15            4            1            4 1.1517243e-16 
    1730    78.150838        9 1.0294522e-15            4            1            4 1.1511481e-16 
    1735    78.380286        9 1.0325879e-15            4            1            4 1.1505721e-16 
    1740    78.623981        9 1.0357349e-15            4            1            4 1.1499965e-16 
    1745    78.854569        9 1.038893e-15            4            1            4 1.1494212e-16 
    1750    79.101083        9 1.0420625e-15            4            1            4 1.1488461e-16 
    1755    79.358048        9 1.0452432e-15            4            1            4 1.1482713e-16 
    1760    79.588765        9 1.0484353e-15            4            1            4 1.1476969e-16 
    1765    79.802562        9 1.0516388e-15            4            1            4 1.1471227e-16 
    1770    80.037189        9 1.0548537e-15            4            1            4 1.1465488e-16 
    1775    80.284937        9  1.05808e-15            4            1            4 1.1459751e-16 
    1780    80.499357        9 1.0613179e-15            4            1            4 1.1454018e-16 
    1785    80.708576        9 1.0645673e-15            4            1            4 1.1448288e-16 
    1790    80.928018        9 1.0678282e-15            4            1            4 1.144256e-16 
    1795    81.147994        9 1.0711008e-15            4            1            4 1.1436835e-16 
    1800    81.362538        9 1.0743851e-15            4            1            4 1.1431114e-16 
    1805    81.575607        9 1.0776811e-15            4            1            4 1.1425395e-16 
    1810    81.784023        9 1.0809888e-15            4            1            4 1.1419678e-16 
    1815    82.004391        9 1.0843083e-15            4            1            4 1.1413965e-16 
    1820    82.227551        9 1.0876396e-15            4            1            4 1.1408255e-16 
    1825    82.446142        9 1.0909828e-15            4            1            4 1.1402547e-16 
    1830    82.670347        9 1.094338e-15            4            1            4 1.1396843e-16 
    1835    82.891177       10 1.097705e-15            4            1            5 1.1391141e-16 
    1840    83.164637       10 1.1010841e-15            4            1            5 1.1385442e-16 
    1845    83.379706       10 1.1044752e-15            4            1            5 1.1379746e-16 
    1850    83.605706       10 1.1078783e-15            4            1            5 1.1374052e-16 
    1855    83.816427       10 1.1112936e-15            4            1            5 1.1368362e-16 
    1860    84.038359       10 1.1147211e-15            4            1            5 1.1362674e-16 
    1865    84.253803       10 1.1181607e-15            4            1            5 1.135699e-16 
    1870    84.461822       10 1.1216126e-15            4            1            5 1.1351308e-16 
    1875    84.673548       10 1.1250768e-15            4            1            5 1.1345629e-16 
    1880    84.884068       10 1.1285533e-15            4            1            5 1.1339952e-16 
    1885    85.090688       10 1.1320422e-15            4            1            5 1.1334279e-16 
    1890    85.311783       10 1.1355435e-15            4            1            5 1.1328608e-16 
    1895     85.52742       10 1.1390573e-15            4            1            5 1.1322941e-16 
    1900     85.74645       10 1.1425836e-15            4            1            5 1.1317276e-16 
    1905    85.967945       11 1.1461224e-15            5            1            5 1.1311614e-16 
    1910     86.23029       11 1.1496738e-15            5            1            5 1.1305955e-16 
    1915    86.468217       11 1.1532378e-15            5            1            5 1.1300298e-16 
    1920    86.692666       11 1.1568146e-15            5            1            5 1.1294645e-16 
    1925    86.924142       11 1.160404e-15            5            1            5 1.1288994e-16 
    1930    87.191346       11 1.1640063e-15            5            1            5 1.1283346e-16 
    1935      87.4292       11 1.1676213e-15            5            1            5 1.1277701e-16 
    1940    87.652368       11 1.1712492e-15            5            1            5 1.1272059e-16 
    1945    87.894463       11  1.17489e-15            5            1            5 1.1266419e-16 
    1950    88.116848       11 1.1785437e-15            5            1            5 1.1260783e-16 
    1955    88.340522       11 1.1822105e-15            5            1            5 1.1255149e-16 
    1960    88.560128       11 1.1858902e-15            5            1            5 1.1249518e-16 
    1965    88.776579       11 1.1895831e-15            5            1            5 1.124389e-16 
    1970    89.025035       11 1.1932891e-15            5            1            5 1.1238265e-16 
    1975    89.256351       11 1.1970083e-15            5            1            5 1.1232642e-16 
    1980    89.467597       11 1.2007406e-15            5            1            5 1.1227023e-16 
    1985      89.6761       11 1.2044863e-15            5            1            5 1.1221406e-16 
    1990    89.938391       11 1.2082453e-15            5            1            5 1.1215792e-16 
    1995    90.164135       11 1.2120176e-15            5            1            5 1.121018e-16 
    2000    90.414089       11 1.2158033e-15            5            1            5 1.1204572e-16 
    2005    90.687029       11 1.2196025e-15            5            1            5 1.1198966e-16 
    2010    90.905846       11 1.2234152e-15            5            1            5 1.1193363e-16 
    2015    91.119052       11 1.2272414e-15            5            1            5 1.1187763e-16 
    2020    91.333783       12 1.2310812e-15            6            1            5 1.1182166e-16 
    2025    91.557831       12 1.2349347e-15            6            1            5 1.1176572e-16 
    2030    91.768766       12 1.2388018e-15            6            1            5 1.117098e-16 
    2035    91.975337       12 1.2426827e-15            6            1            5 1.1165391e-16 
    2040    92.188898       12 1.2465774e-15            6            1            5 1.1159805e-16 
    2045    92.396885       12 1.2504859e-15            6            1            5 1.1154222e-16 
    2050    92.639893       13 1.2544083e-15            7            1            5 1.1148641e-16 
    2055    92.848486       13 1.2583446e-15            7            1            5 1.1143064e-16 
    2060    93.061664       13 1.2622949e-15            7            1            5 1.1137489e-16 
    2065    93.268821       13 1.2662593e-15            7            1            5 1.1131917e-16 
    2070    93.537345       13 1.2702377e-15            7            1            5 1.1126348e-16 
    2075    93.750109       13 1.2742302e-15            7            1            5 1.1120781e-16 
    2080    93.957448       13 1.2782369e-15            7            1            5 1.1115217e-16 
    2085    94.188815       13 1.2822578e-15            7            1            5 1.1109656e-16 
    2090    94.399635       13 1.286293e-15            7            1            5 1.1104098e-16 
    2095    94.612028       13 1.2903425e-15            7            1            5 1.1098543e-16 
    2100    94.824048       13 1.2944064e-15            7            1            5 1.109299e-16 
    2105    95.024842       13 1.2984848e-15            7            1            5 1.108744e-16 
    2110     95.23054       13 1.3025775e-15            7            1            5 1.1081893e-16 
    2115    95.466446       13 1.3066849e-15            7            1            5 1.1076349e-16 
    2120     95.69756       13 1.3108067e-15            7            1            5 1.1070808e-16 
    2125    95.933483       13 1.3149433e-15            7            1            5 1.1065269e-16 
    2130    96.145752       14 1.3190945e-15            7            1            6 1.1059733e-16 
    2135    96.357803       14 1.3232604e-15            7            1            6  1.10542e-16 
    2140    96.568891       14 1.3274411e-15            7            1            6 1.1048669e-16 
    2145    96.775045       14 1.3316366e-15            7            1            6 1.1043142e-16 
    2150    96.974725       14 1.335847e-15            7            1            6 1.1037617e-16 
    2155    97.179389       14 1.3400724e-15            7            1            6 1.1032095e-16 
    2160    97.428455       14 1.3443127e-15            7            1            6 1.1026575e-16 
    2165    97.653331       14 1.3485681e-15            7            1            6 1.1021059e-16 
    2170    97.938549       14 1.3528385e-15            7            1            6 1.1015545e-16 
    2175    98.146587       14 1.3571241e-15            7            1            6 1.1010034e-16 
    2180    98.336971       14 1.3614249e-15            7            1            6 1.1004525e-16 
    2185    98.508399       14 1.365741e-15            7            1            6 1.099902e-16 
    2190    98.699719       14 1.3700724e-15            7            1            6 1.0993517e-16 
    2195    98.861091       14 1.3744191e-15            7            1            6 1.0988017e-16 
    2200    99.017762       14 1.3787812e-15            7            1            6 1.098252e-16 
    2205    99.195461       14 1.3831588e-15            7            1            6 1.0977025e-16 
    2210    99.371645       15 1.3875519e-15            7            1            7 1.0971533e-16 
    2215     99.55992       15 1.3919606e-15            7            1            7 1.0966044e-16 
    2220    99.766159       15 1.3963849e-15            7            1            7 1.0960558e-16 
    2225    99.976987       15 1.4008248e-15            7            1            7 1.0955074e-16 
    2230    100.17239       15 1.4052806e-15            7            1            7 1.0949594e-16 
    2235    100.39527       15 1.4097521e-15            7            1            7 1.0944116e-16 
    2240    100.59243       15 1.4142394e-15            7            1            7 1.093864e-16 
    2245    100.79615       15 1.4187427e-15            7            1            7 1.0933168e-16 
    2250    100.99536       15 1.4232619e-15            7            1            7 1.0927698e-16 
    2255    101.18468       15 1.4277971e-15            7            1            7 1.0922231e-16 
    2260    101.39449       15 1.4323484e-15            7            1            7 1.0916766e-16 
    2265    101.58691       15 1.4369158e-15            7            1            7 1.0911305e-16 
    2270    101.78278       15 1.4414994e-15            7            1            7 1.0905846e-16 
    2275    101.97001       15 1.4460992e-15            7            1            7 1.0900389e-16 
    2280    102.15604       15 1.4507154e-15            7            1            7 1.0894936e-16 
    2285    102.33396       15 1.4553478e-15            7            1            7 1.0889485e-16 
    2290    102.51016       15 1.4599967e-15            7            1            7 1.0884037e-16 
    2295    102.69049       15 1.4646621e-15            7            1            7 1.0878592e-16 
    2300    102.87727       15 1.4693439e-15            7            1            7 1.0873149e-16 
    2305    103.06546       15 1.4740424e-15            7            1            7 1.086771e-16 
    2310    103.25535       15 1.4787575e-15            7            1            7 1.0862272e-16 
    2315    103.44896       15 1.4834892e-15            7            1            7 1.0856838e-16 
    2320    103.64798       15 1.4882378e-15            7            1            7 1.0851406e-16 
    2325    103.85165       15 1.4930031e-15            7            1            7 1.0845977e-16 
    2330    104.06003       15 1.4977853e-15            7            1            7 1.0840551e-16 
    2335    104.26588       15 1.5025845e-15            7            1            7 1.0835128e-16 
    2340    104.46464       15 1.5074006e-15            7            1            7 1.0829707e-16 
    2345    104.66293       15 1.5122338e-15            7            1            7 1.0824289e-16 
    2350    104.85112       15 1.5170841e-15            7            1            7 1.0818873e-16 
    2355    105.01888       15 1.5219515e-15            7            1            7 1.0813461e-16 
    2360    105.21698       15 1.5268362e-15            7            1            7 1.0808051e-16 
    2365    105.40985       15 1.5317382e-15            7            1            7 1.0802643e-16 
    2370    105.60354       15 1.5366575e-15            7            1            7 1.0797239e-16 
    2375    105.78172       15 1.5415942e-15            7            1            7 1.0791837e-16 
    2380    105.96299       15 1.5465484e-15            7            1            7 1.0786438e-16 
    2385    106.14166       15 1.5515202e-15            7            1            7 1.0781041e-16 
    2390    106.31378       15 1.5565095e-15            7            1            7 1.0775648e-16 
    2395    106.48957       15 1.5615165e-15            7            1            7 1.0770257e-16 
    2400    106.66092       15 1.5665411e-15            7            1            7 1.0764868e-16 
    2405    106.82953       15 1.5715836e-15            7            1            7 1.0759483e-16 
    2410    107.01554       15 1.5766439e-15            7            1            7  1.07541e-16 
    2415     107.2033       15 1.5817221e-15            7            1            7 1.0748719e-16 
    2420    107.39113       15 1.5868182e-15            7            1            7 1.0743342e-16 
    2425    107.57054       15 1.5919324e-15            7            1            7 1.0737967e-16 
    2430    107.75553       15 1.5970647e-15            7            1            7 1.0732595e-16 
    2435    107.93684       15 1.6022151e-15            7            1            7 1.0727225e-16 
    2440     108.1227       15 1.6073838e-15            7            1            7 1.0721858e-16 
    2445    108.29422       15 1.6125707e-15            7            1            7 1.0716494e-16 
    2450    108.48403       15 1.6177759e-15            7            1            7 1.0711133e-16 
    2455    108.69399       15 1.6229996e-15            7            1            7 1.0705774e-16 
    2460      108.872       15 1.6282417e-15            7            1            7 1.0700418e-16 
    2465    109.05097       15 1.6335024e-15            7            1            7 1.0695064e-16 
    2470      109.234       15 1.6387817e-15            7            1            7 1.0689714e-16 
    2475    109.43321       15 1.6440796e-15            7            1            7 1.0684366e-16 
    2480    109.61854       16 1.6493963e-15            8            1            7 1.067902e-16 
    2485     109.7953       16 1.6547318e-15            8            1            7 1.0673678e-16 
    2490    109.97747       16 1.6600861e-15            8            1            7 1.0668337e-16 
    2495    110.17882       16 1.6654593e-15            8            1            7   1.0663e-16 
    2500    110.37546       16 1.6708516e-15            8            1            7 1.0657665e-16 
    2505    110.55388       16 1.6762629e-15            8            1            7 1.0652333e-16 
    2510    110.73551       16 1.6816933e-15            8            1            7 1.0647004e-16 
    2515    110.92274       16 1.6871429e-15            8            1            7 1.0641677e-16 
    2520    111.11196       16 1.6926118e-15            8            1            7 1.0636353e-16 
    2525    111.31207       16   1.6981e-15            8            1            7 1.0631032e-16 
    2530    111.53112       16 1.7036076e-15            8            1            7 1.0625713e-16 
    2535    111.72699       16 1.7091346e-15            8            1            7 1.0620397e-16 
    2540    111.92672       16 1.7146812e-15            8            1            7 1.0615084e-16 
    2545    112.14121       16 1.7202474e-15            8            1            7 1.0609773e-16 
    2550    112.34085       16 1.7258333e-15            8            1            7 1.0604465e-16 
    2555    112.53763       16 1.7314388e-15            8            1            7 1.059916e-16 
    2560    112.74713       16 1.7370642e-15            8            1            7 1.0593857e-16 
    2565    112.94883       16 1.7427095e-15            8            1            7 1.0588557e-16 
    2570    113.14746       16 1.7483747e-15            8            1            7 1.0583259e-16 
    2575    113.33694       16 1.7540599e-15            8            1            7 1.0577964e-16 
    2580    113.54173       16 1.7597652e-15            8            1            7 1.0572672e-16 
    2585     113.7428       16 1.7654907e-15            8            1            7 1.0567383e-16 
    2590    113.95218       16 1.7712363e-15            8            1            7 1.0562096e-16 
    2595    114.14897       16 1.7770023e-15            8            1            7 1.0556812e-16 
    2600    114.35674       16 1.7827886e-15            8            1            7 1.055153e-16 
    2605    114.52743       16 1.7885954e-15            8            1            7 1.0546251e-16 
    2610    114.70148       16 1.7944227e-15            8            1            7 1.0540975e-16 
    2615    114.87203       16 1.8002705e-15            8            1            7 1.0535701e-16 
    2620    115.06319       16 1.806139e-15            8            1            7 1.053043e-16 
    2625    115.28625       16 1.8120282e-15            8            1            7 1.0525162e-16 
    2630    115.50994       16 1.8179382e-15            8            1            7 1.0519896e-16 
    2635    115.73953       16 1.8238691e-15            8            1            7 1.0514633e-16 
    2640    115.95147       16 1.8298209e-15            8            1            7 1.0509373e-16 
    2645    116.15999       16 1.8357938e-15            8            1            7 1.0504115e-16 
    2650    116.36412       16 1.8417877e-15            8            1            7 1.049886e-16 
    2655    116.54944       16 1.8478028e-15            8            1            7 1.0493607e-16 
    2660    116.72929       16 1.8538391e-15            8            1            7 1.0488357e-16 
    2665    116.90254       16 1.8598967e-15            8            1            7 1.048311e-16 
    2670    117.07683       16 1.8659757e-15            8            1            7 1.0477865e-16 
    2675     117.2529       16 1.8720761e-15            8            1            7 1.0472623e-16 
    2680    117.43433       16 1.8781981e-15            8            1            7 1.0467384e-16 
    2685    117.61838       16 1.8843417e-15            8            1            7 1.0462147e-16 
    2690    117.78915       16 1.890507e-15            8            1            7 1.0456912e-16 
    2695    117.96242       16 1.896694e-15            8            1            7 1.0451681e-16 
    2700    118.15818       16 1.9029029e-15            8            1            7 1.0446452e-16 
    2705    118.34508       16 1.9091337e-15            8            1            7 1.0441226e-16 
    2710    118.52843       16 1.9153864e-15            8            1            7 1.0436002e-16 
    2715    118.70925       16 1.9216613e-15            8            1            7 1.0430781e-16 
    2720    118.89282       16 1.9279582e-15            8            1            7 1.0425562e-16 
    2725      119.066       17 1.9342774e-15            8            1            8 1.0420346e-16 
    2730    119.25839       17 1.9406189e-15            8            1            8 1.0415133e-16 
    2735    119.42665       17 1.9469828e-15            8            1            8 1.0409922e-16 
    2740    119.60266       17 1.9533691e-15            8            1            8 1.0404714e-16 
    2745    119.78471       17 1.9597779e-15            8            1            8 1.0399509e-16 
    2750    119.94936       17 1.9662093e-15            8            1            8 1.0394306e-16 
    2755    120.10602       17 1.9726635e-15            8            1            8 1.0389106e-16 
    2760    120.27153       17 1.9791404e-15            8            1            8 1.0383908e-16 
    2765    120.42817       17 1.9856401e-15            8            1            8 1.0378713e-16 
    2770    120.60295       17 1.9921628e-15            8            1            8 1.037352e-16 
    2775     120.7854       17 1.9987085e-15            8            1            8 1.036833e-16 
    2780    120.95506       17 2.0052772e-15            8            1            8 1.0363143e-16 
    2785    121.13207       17 2.0118692e-15            8            1            8 1.0357959e-16 
    2790    121.29651       17 2.0184843e-15            8            1            8 1.0352776e-16 
    2795    121.45838       17 2.0251228e-15            8            1            8 1.0347597e-16 
    2800    121.60301       17 2.0317848e-15            8            1            8 1.034242e-16 
    2805    121.76513       17 2.0384702e-15            8            1            8 1.0337246e-16 
    2810    121.95282       17 2.0451792e-15            8            1            8 1.0332074e-16 
    2815    122.13934       17 2.0519118e-15            8            1            8 1.0326905e-16 
    2820    122.32577       18 2.0586682e-15            9            1            8 1.0321738e-16 
    2825    122.52399       19 2.0654484e-15            9            1            9 1.0316574e-16 
    2830    122.70624       19 2.0722525e-15            9            1            9 1.0311413e-16 
    2835    122.89092       19 2.0790806e-15            9            1            9 1.0306254e-16 
    2840    123.07032       19 2.0859328e-15            9            1            9 1.0301098e-16 
    2845    123.25984       19 2.0928091e-15            9            1            9 1.0295944e-16 
    2850    123.46315       19 2.0997097e-15            9            1            9 1.0290793e-16 
    2855    123.66648       19 2.1066346e-15            9            1            9 1.0285645e-16 
    2860    123.88207       19 2.1135839e-15            9            1            9 1.0280499e-16 
    2865    124.07643       19 2.1205577e-15            9            1            9 1.0275356e-16 
    2870    124.28885       19 2.127556e-15            9            1            9 1.0270215e-16 
    2875    124.46666       19 2.1345791e-15            9            1            9 1.0265077e-16 
    2880    124.63015       20 2.1416269e-15            9            1           10 1.0259941e-16 
    2885    124.82675       20 2.1486995e-15            9            1           10 1.0254808e-16 
    2890    125.03007       20 2.1557971e-15            9            1           10 1.0249677e-16 
    2895    125.22877       20 2.1629197e-15            9            1           10 1.024455e-16 
    2900     125.4164       20 2.1700674e-15            9            1           10 1.0239424e-16 
    2905    125.62169       20 2.1772403e-15            9            1           10 1.0234301e-16 
    2910     125.8226       20 2.1844384e-15            9            1           10 1.0229181e-16 
    2915     125.9898       20 2.1916619e-15            9            1           10 1.0224064e-16 
    2920    126.16773       21 2.1989109e-15           10            1           10 1.0218948e-16 
    2925    126.32713       21 2.2061854e-15           10            1           10 1.0213836e-16 
    2930    126.50181       21 2.2134856e-15           10            1           10 1.0208726e-16 
    2935    126.68953       22 2.2208114e-15           11            1           10 1.0203619e-16 
    2940    126.86518       22 2.2281631e-15           11            1           10 1.0198514e-16 
    2945     127.0371       22 2.2355407e-15           11            1           10 1.0193411e-16 
    2950    127.22957       22 2.2429443e-15           11            1           10 1.0188312e-16 
    2955    127.40806       22 2.2503739e-15           11            1           10 1.0183214e-16 
    2960    127.60433       22 2.2578298e-15           11            1           10 1.017812e-16 
    2965    127.80423       22 2.2653118e-15           11            1           10 1.0173028e-16 
    2970    127.98932       22 2.2728203e-15           11            1           10 1.0167938e-16 
    2975     128.1829       22 2.2803552e-15           11            1           10 1.0162851e-16 
    2980    128.37516       22 2.2879166e-15           11            1           10 1.0157767e-16 
    2985    128.55166       22 2.2955047e-15           11            1           10 1.0152685e-16 
    2990    128.74166       22 2.3031195e-15           11            1           10 1.0147605e-16 
    2995    128.92997       23 2.3107612e-15           11            1           11 1.0142528e-16 
    3000    129.14179       24 2.3184297e-15           12            1           11 1.0137454e-16 
    3005    129.33773       24 2.3261252e-15           12            1           11 1.0132382e-16 
    3010    129.53596       24 2.3338479e-15           12            1           11 1.0127313e-16 
    3015    129.74476       24 2.3415977e-15           12            1           11 1.0122246e-16 
    3020    129.95817       24 2.3493749e-15           12            1           11 1.0117182e-16 
    3025    130.15859       24 2.3571794e-15           12            1           11 1.0112121e-16 
    3030    130.36899       24 2.3650114e-15           12            1           11 1.0107061e-16 
    3035    130.57525       24 2.372871e-15           12            1           11 1.0102005e-16 
    3040    130.77268       24 2.3807583e-15           12            1           11 1.0096951e-16 
    3045    130.96407       24 2.3886733e-15           12            1           11 1.0091899e-16 
    3050     131.1501       25 2.3966162e-15           13            1           11 1.008685e-16 
    3055    131.34404       25 2.4045871e-15           13            1           11 1.0081804e-16 
    3060     131.5348       25 2.4125861e-15           13            1           11 1.007676e-16 
    3065    131.73346       25 2.4206132e-15           13            1           11 1.0071719e-16 
    3070    131.93172       25 2.4286685e-15           13            1           11 1.006668e-16 
    3075    132.13998       26 2.4367522e-15           14            1           11 1.0061643e-16 
    3080    132.34144       26 2.4448644e-15           14            1           11 1.005661e-16 
    3085    132.52986       26 2.4530052e-15           14            1           11 1.0051578e-16 
    3090    132.74597       26 2.4611746e-15           14            1           11 1.0046549e-16 
    3095    132.94097       26 2.4693727e-15           14            1           11 1.0041523e-16 
    3100    133.12854       26 2.4775997e-15           14            1           11 1.0036499e-16 
    3105    133.32513       26 2.4858557e-15           14            1           11 1.0031478e-16 
    3110    133.51604       26 2.4941407e-15           14            1           11 1.0026459e-16 
    3115    133.69342       26 2.5024549e-15           14            1           11 1.0021443e-16 
    3120    133.89851       26 2.5107984e-15           14            1           11 1.0016429e-16 
    3125    134.09553       26 2.5191712e-15           14            1           11 1.0011418e-16 
    3130     134.3045       26 2.5275735e-15           14            1           11 1.0006409e-16 
    3135    134.49638       26 2.5360054e-15           14            1           11 1.0001403e-16 
    3140    134.69177       26 2.5444669e-15           14            1           11 9.9963996e-17 
    3145    134.88445       26 2.5529583e-15           14            1           11 9.9913984e-17 
    3150    135.08494       27 2.5614795e-15           14            1           12 9.9863997e-17 
    3155    135.27361       27 2.5700307e-15           14            1           12 9.9814035e-17 
    3160    135.46819       27 2.578612e-15           14            1           12 9.9764098e-17 
    3165    135.66144       27 2.5872234e-15           14            1           12 9.9714186e-17 
    3170    135.85476       27 2.5958652e-15           14            1           12 9.9664299e-17 
    3175    136.05554       27 2.6045374e-15           14            1           12 9.9614437e-17 
    3180    136.26614       27 2.6132401e-15           14            1           12  9.95646e-17 
    3185    136.45756       27 2.6219734e-15           14            1           12 9.9514788e-17 
    3190    136.65778       27 2.6307375e-15           14            1           12 9.9465001e-17 
    3195    136.86519       27 2.6395324e-15           14            1           12 9.9415238e-17 
    3200    137.07475       27 2.6483582e-15           14            1           12 9.9365501e-17 
    3205    137.26989       27 2.6572151e-15           14            1           12 9.9315788e-17 
    3210    137.46369       27 2.6661032e-15           14            1           12 9.9266101e-17 
    3215    137.66002       27 2.6750225e-15           14            1           12 9.9216438e-17 
    3220    137.85559       27 2.6839732e-15           14            1           12  9.91668e-17 
    3225    138.05181       27 2.6929554e-15           14            1           12 9.9117187e-17 
    3230    138.26187       28 2.7019692e-15           15            1           12 9.9067598e-17 
    3235     138.4478       28 2.7110146e-15           15            1           12 9.9018035e-17 
    3240    138.65569       28 2.7200919e-15           15            1           12 9.8968496e-17 
    3245     138.8593       28 2.7292012e-15           15            1           12 9.8918982e-17 
    3250    139.05939       28 2.7383425e-15           15            1           12 9.8869493e-17 
    3255    139.27861       28 2.7475159e-15           15            1           12 9.8820029e-17 
    3260    139.47839       28 2.7567216e-15           15            1           12 9.8770589e-17 
    3265    139.69502       28 2.7659597e-15           15            1           12 9.8721174e-17 
    3270    139.90555       28 2.7752303e-15           15            1           12 9.8671784e-17 
    3275    140.11706       28 2.7845334e-15           15            1           12 9.8622418e-17 
    3280    140.31916       28 2.7938693e-15           15            1           12 9.8573078e-17 
    3285    140.53246       28 2.8032381e-15           15            1           12 9.8523762e-17 
    3290    140.72671       28 2.8126397e-15           15            1           12 9.847447e-17 
    3295    140.92111       28 2.8220745e-15           15            1           12 9.8425203e-17 
    3300    141.10958       28 2.8315424e-15           15            1           12 9.8375961e-17 
    3305    141.29717       28 2.8410436e-15           15            1           12 9.8326744e-17 
    3310    141.52753       30 2.8505783e-15           15            1           14 9.8277551e-17 
    3315    141.73356       30 2.8601464e-15           15            1           14 9.8228383e-17 
    3320    141.93184       30 2.8697482e-15           15            1           14 9.8179239e-17 
    3325    142.13186       30 2.8793838e-15           15            1           14 9.813012e-17 
    3330    142.34776       30 2.8890533e-15           15            1           14 9.8081026e-17 
    3335    142.55541       30 2.8987567e-15           15            1           14 9.8031956e-17 
    3340    142.74843       30 2.9084943e-15           15            1           14 9.798291e-17 
    3345    142.95574       30 2.9182661e-15           15            1           14 9.7933889e-17 
    3350    143.15862       30 2.9280722e-15           15            1           14 9.7884893e-17 
    3355    143.36298       30 2.9379129e-15           15            1           14 9.7835921e-17 
    3360    143.57243       30 2.9477881e-15           15            1           14 9.7786974e-17 
    3365    143.77393       30 2.9576981e-15           15            1           14 9.7738051e-17 
    3370    143.98221       30 2.9676429e-15           15            1           14 9.7689153e-17 
    3375    144.18581       30 2.9776226e-15           15            1           14 9.7640279e-17 
    3380    144.40204       30 2.9876375e-15           15            1           14 9.759143e-17 
    3385     144.6107       30 2.9976875e-15           15            1           14 9.7542605e-17 
    3390    144.80783       30 3.0077729e-15           15            1           14 9.7493804e-17 
    3395    145.00815       30 3.0178937e-15           15            1           14 9.7445028e-17 
    3400    145.19846       30 3.0280501e-15           15            1           14 9.7396276e-17 
    3405    145.39415       30 3.0382422e-15           15            1           14 9.7347549e-17 
    3410     145.5797       30 3.0484702e-15           15            1           14 9.7298846e-17 
    3415     145.7562       30 3.0587341e-15           15            1           14 9.7250167e-17 
    3420    145.94755       30 3.069034e-15           15            1           14 9.7201513e-17 
    3425    146.13535       30 3.0793702e-15           15            1           14 9.7152883e-17 
    3430    146.34923       30 3.0897427e-15           15            1           14 9.7104278e-17 
    3435     146.5609       30 3.1001517e-15           15            1           14 9.7055696e-17 
    3440    146.76593       30 3.1105972e-15           15            1           14 9.7007139e-17 
    3445    146.97064       30 3.1210794e-15           15            1           14 9.6958607e-17 
    3450    147.15676       30 3.1315985e-15           15            1           14 9.6910098e-17 
    3455    147.33828       30 3.1421546e-15           15            1           14 9.6861614e-17 
    3460    147.54173       30 3.1527477e-15           15            1           14 9.6813154e-17 
    3465    147.70912       30 3.1633781e-15           15            1           14 9.6764719e-17 
    3470    147.87744       30 3.1740459e-15           15            1           14 9.6716307e-17 
    3475    148.05827       30 3.1847511e-15           15            1           14 9.666792e-17 
    3480    148.24187       30 3.1954939e-15           15            1           14 9.6619557e-17 
    3485    148.43382       30 3.2062745e-15           15            1           14 9.6571219e-17 
    3490    148.60398       30 3.217093e-15           15            1           14 9.6522904e-17 
    3495    148.80315       30 3.2279495e-15           15            1           14 9.6474614e-17 
    3500    148.98328       30 3.2388442e-15           15            1           14 9.6426347e-17 
    3505    149.16712       30 3.2497771e-15           15            1           14 9.6378105e-17 
    3510    149.35082       30 3.2607484e-15           15            1           14 9.6329887e-17 
    3515    149.52006       30 3.2717583e-15           15            1           14 9.6281693e-17 
    3520     149.7042       30 3.2828069e-15           15            1           14 9.6233524e-17 
    3525    149.88102       31 3.2938943e-15           15            1           15 9.6185378e-17 
    3530    150.05785       31 3.3050206e-15           15            1           15 9.6137257e-17 
    3535    150.24066       31 3.3161861e-15           15            1           15 9.6089159e-17 
    3540    150.40863       31 3.3273907e-15           15            1           15 9.6041086e-17 
    3545     150.5844       31 3.3386348e-15           15            1           15 9.5993036e-17 
    3550    150.75404       31 3.3499183e-15           15            1           15 9.5945011e-17 
    3555    150.94831       31 3.3612415e-15           15            1           15 9.589701e-17 
    3560    151.12773       31 3.3726044e-15           15            1           15 9.5849033e-17 
    3565    151.30472       31 3.3840073e-15           15            1           15 9.5801079e-17 
    3570    151.46354       31 3.3954502e-15           15            1           15 9.575315e-17 
    3575    151.64481       31 3.4069334e-15           15            1           15 9.5705245e-17 
    3580    151.80956       31 3.4184568e-15           15            1           15 9.5657363e-17 
    3585    151.98132       31 3.4300208e-15           15            1           15 9.5609506e-17 
    3590     152.1753       31 3.4416254e-15           15            1           15 9.5561673e-17 
    3595    152.36319       31 3.4532707e-15           15            1           15 9.5513863e-17 
    3600    152.54312       32 3.4649569e-15           15            1           16 9.5466078e-17 
    3605    152.73013       32 3.4766842e-15           15            1           16 9.5418316e-17 
    3610    152.90488       32 3.4884527e-15           15            1           16 9.5370578e-17 
    3615    153.08457       32 3.5002625e-15           15            1           16 9.5322864e-17 
    3620    153.25763       32 3.5121138e-15           15            1           16 9.5275174e-17 
    3625    153.43701       32 3.5240067e-15           15            1           16 9.5227508e-17 
    3630    153.61929       33 3.5359414e-15           15            1           17 9.5179866e-17 
    3635    153.80132       33 3.547918e-15           15            1           17 9.5132247e-17 
    3640    153.98108       33 3.5599367e-15           15            1           17 9.5084653e-17 
    3645    154.14715       33 3.5719976e-15           15            1           17 9.5037082e-17 
    3650    154.31438       33 3.5841008e-15           15            1           17 9.4989535e-17 
    3655    154.48003       34 3.5962465e-15           16            1           17 9.4942012e-17 
    3660     154.6669       34 3.6084349e-15           16            1           17 9.4894512e-17 
    3665    154.84239       34 3.6206661e-15           16            1           17 9.4847036e-17 
    3670    155.02323       34 3.6329403e-15           16            1           17 9.4799584e-17 
    3675    155.21321       34 3.6452576e-15           16            1           17 9.4752156e-17 
    3680    155.39939       34 3.6576181e-15           16            1           17 9.4704752e-17 
    3685    155.57494       34 3.670022e-15           16            1           17 9.4657371e-17 
    3690    155.78858       34 3.6824695e-15           16            1           17 9.4610014e-17 
    3695    155.96629       34 3.6949606e-15           16            1           17 9.456268e-17 
    3700    156.14355       34 3.7074957e-15           16            1           17 9.4515371e-17 
    3705    156.33844       34 3.7200747e-15           16            1           17 9.4468085e-17 
    3710    156.52127       34 3.732698e-15           16            1           17 9.4420822e-17 
    3715    156.69655       34 3.7453655e-15           16            1           17 9.4373584e-17 
    3720    156.88069       34 3.7580776e-15           16            1           17 9.4326369e-17 
    3725     157.0778       35 3.7708342e-15           17            1           17 9.4279177e-17 
    3730    157.26456       35 3.7836357e-15           17            1           17 9.4232009e-17 
    3735    157.45932       35 3.7964821e-15           17            1           17 9.4184865e-17 
    3740    157.64718       35 3.8093736e-15           17            1           17 9.4137744e-17 
    3745    157.85611       36 3.8223104e-15           18            1           17 9.4090647e-17 
    3750     158.0548       37 3.8352925e-15           19            1           17 9.4043574e-17 
    3755    158.28299       37 3.8483203e-15           19            1           17 9.3996524e-17 
    3760    158.48691       37 3.8613938e-15           19            1           17 9.3949497e-17 
    3765    158.67951       37 3.8745132e-15           19            1           17 9.3902494e-17 
    3770    158.88538       37 3.8876787e-15           19            1           17 9.3855515e-17 
    3775    159.10418       37 3.9008903e-15           19            1           17 9.3808559e-17 
    3780    159.29179       37 3.9141484e-15           19            1           17 9.3761627e-17 
    3785     159.4915       37 3.927453e-15           19            1           17 9.3714718e-17 
    3790    159.67396       37 3.9408043e-15           19            1           17 9.3667832e-17 
    3795    159.86076       37 3.9542025e-15           19            1           17 9.362097e-17 
    3800    160.05314       37 3.9676477e-15           19            1           17 9.3574132e-17 
    3805    160.23188       37 3.9811401e-15           19            1           17 9.3527317e-17 
    3810    160.42621       37 3.9946798e-15           19            1           17 9.3480525e-17 
    3815    160.63366       38 4.0082671e-15           20            1           17 9.3433757e-17 
    3820    160.83944       38 4.0219021e-15           20            1           17 9.3387012e-17 
    3825    161.03676       39 4.035585e-15           21            1           17 9.334029e-17 
    3830    161.22712       39 4.0493159e-15           21            1           17 9.3293592e-17 
    3835    161.41042       39 4.0630949e-15           21            1           17 9.3246917e-17 
    3840    161.59415       39 4.0769224e-15           21            1           17 9.3200266e-17 
    3845    161.79234       39 4.0907983e-15           21            1           17 9.3153638e-17 
    3850    161.99106       40 4.104723e-15           22            1           17 9.3107033e-17 
    3855    162.16926       40 4.1186965e-15           22            1           17 9.3060452e-17 
    3860    162.35365       40 4.1327191e-15           22            1           17 9.3013893e-17 
    3865    162.54548       40 4.1467909e-15           22            1           17 9.2967359e-17 
    3870    162.73818       40 4.1609121e-15           22            1           17 9.2920847e-17 
    3875    162.93257       40 4.1750829e-15           22            1           17 9.2874359e-17 
    3880    163.12902       40 4.1893034e-15           22            1           17 9.2827894e-17 
    3885    163.31529       40 4.2035738e-15           22            1           17 9.2781452e-17 
    3890    163.49307       40 4.2178942e-15           22            1           17 9.2735033e-17 
    3895     163.6762       41 4.232265e-15           22            1           18 9.2688638e-17 
    3900     163.8637       41 4.2466861e-15           22            1           18 9.2642266e-17 
[...]
    4045    169.52326       44 4.6876508e-15           23            1           20 9.130752e-17 
    4050    169.73009       44 4.7036698e-15           23            1           20 9.1261839e-17 
    4055    169.93946       44 4.719745e-15           23            1           20 9.121618e-17 
    4060    170.12579       44 4.7358765e-15           23            1           20 9.1170545e-17 
    4065    170.31626       44 4.7520647e-15           23            1           20 9.1124932e-17 
    4070    170.51931       44 4.7683097e-15           23            1           20 9.1079343e-17 
    4075    170.72314       44 4.7846116e-15           23            1           20 9.1033776e-17 
    4080    170.93521       44 4.8009707e-15           23            1           20 9.0988231e-17 
    4085     171.1507       45 4.8173872e-15           24            1           20 9.094271e-17 
    4090    171.35092       45 4.8338613e-15           24            1           20 9.0897211e-17 
    4095    171.54947       45 4.8503932e-15           24            1           20 9.0851736e-17 
    4100    171.78499       45 4.8669831e-15           24            1           20 9.0806282e-17 
    4105    171.99684       45 4.8836312e-15           24            1           20 9.0760852e-17 
    4110    172.20873       46 4.9003376e-15           24            1           21 9.0715444e-17 
    4115    172.42036       46 4.9171027e-15           24            1           21 9.067006e-17 
    4120    172.63135       46 4.9339266e-15           24            1           21 9.0624697e-17 
    4125    172.83592       46 4.9508094e-15           24            1           21 9.0579358e-17 
    4130    173.05687       47 4.9677515e-15           24            1           22 9.0534041e-17 
    4135    173.27998       49 4.984753e-15           24            1           24 9.0488747e-17 
    4140    173.48076       50 5.0018142e-15           25            1           24 9.0443475e-17 
    4145    173.69285       50 5.0189352e-15           25            1           24 9.0398226e-17 
    4150    173.89398       51 5.0361162e-15           26            1           24   9.0353e-17 
    4155    174.10125       51 5.0533575e-15           26            1           24 9.0307797e-17 
    4160    174.29815       51 5.0706592e-15           26            1           24 9.0262616e-17 
    4165    174.47812       51 5.0880217e-15           26            1           24 9.0217457e-17 
    4170    174.66922       51 5.105445e-15           26            1           24 9.0172321e-17 
    4175    174.84884       51 5.1229294e-15           26            1           24 9.0127208e-17 
    4180    175.04289       53 5.1404752e-15           28            1           24 9.0082118e-17 
    4185    175.23573       53 5.1580825e-15           28            1           24 9.003705e-17 
    4190    175.42755       53 5.1757515e-15           28            1           24 8.9992004e-17 
    4195    175.62329       53 5.1934825e-15           28            1           24 8.9946981e-17 
    4200    175.84205       53 5.2112757e-15           28            1           24 8.9901981e-17 
    4205    176.04654       53 5.2291313e-15           28            1           24 8.9857003e-17 
    4210    176.25205       53 5.2470495e-15           28            1           24 8.9812047e-17 
    4215    176.45136       53 5.2650306e-15           28            1           24 8.9767114e-17 
    4220    176.65612       54 5.2830747e-15           28            1           25 8.9722204e-17 
    4225    176.83407       55 5.3011821e-15           29            1           25 8.9677316e-17 
    4230    177.02767       55 5.3193529e-15           29            1           25 8.963245e-17 
    4235    177.21256       55 5.3375875e-15           29            1           25 8.9587607e-17 
    4240    177.40957       55 5.3558861e-15           29            1           25 8.9542786e-17 
    4245    177.59492       55 5.3742488e-15           29            1           25 8.9497988e-17 
    4250    177.79699       55 5.3926759e-15           29            1           25 8.9453212e-17 
    4255    178.00456       55 5.4111676e-15           29            1           25 8.9408459e-17 
    4260    178.22566       55 5.4297242e-15           29            1           25 8.9363728e-17 
    4265    178.42572       55 5.4483458e-15           29            1           25 8.9319019e-17 
    4270     178.6253       55 5.4670327e-15           29            1           25 8.9274333e-17 
    4275    178.81556       55 5.4857851e-15           29            1           25 8.9229669e-17 
    4280    179.01157       55 5.5046033e-15           29            1           25 8.9185027e-17 
    4285    179.20576       55 5.5234875e-15           29            1           25 8.9140408e-17 
    4290    179.41082       55 5.5424379e-15           29            1           25 8.9095811e-17 
    4295    179.60303       55 5.5614548e-15           29            1           25 8.9051237e-17 
    4300    179.80213       55 5.5805383e-15           29            1           25 8.9006684e-17 
    4305    179.97585       55 5.5996887e-15           29            1           25 8.8962154e-17 
    4310    180.16699       55 5.6189063e-15           29            1           25 8.8917647e-17 
    4315     180.3502       56 5.6381913e-15           29            1           26 8.8873161e-17 
    4320    180.53999       56 5.6575439e-15           29            1           26 8.8828698e-17 
    4325    180.74535       56 5.6769643e-15           29            1           26 8.8784257e-17 
    4330    180.94365       56 5.6964528e-15           29            1           26 8.8739838e-17 
    4335    181.14379       57 5.7160097e-15           30            1           26 8.8695442e-17 
    4340    181.35103       57 5.7356351e-15           30            1           26 8.8651067e-17 
    4345    181.56707       57 5.7553293e-15           30            1           26 8.8606715e-17 
    4350    181.78063       57 5.7750926e-15           30            1           26 8.8562385e-17 
    4355    181.97807       57 5.7949251e-15           30            1           26 8.8518078e-17 
    4360    182.18875       57 5.8148272e-15           30            1           26 8.8473792e-17 
    4365    182.39139       57 5.8347991e-15           30            1           26 8.8429529e-17 
    4370    182.57799       57 5.854841e-15           30            1           26 8.8385287e-17 
    4375    182.77114       57 5.8749531e-15           30            1           26 8.8341068e-17 
    4380    182.96532       57 5.8951358e-15           30            1           26 8.8296871e-17 
    4385     183.1568       57 5.9153892e-15           30            1           26 8.8252696e-17 
    4390    183.34856       57 5.9357136e-15           30            1           26 8.8208543e-17 
    4395    183.52274       57 5.9561093e-15           30            1           26 8.8164413e-17 
    4400    183.69496       57 5.9765765e-15           30            1           26 8.8120304e-17 
    4405    183.87702       57 5.9971154e-15           30            1           26 8.8076217e-17 
    4410    184.05877       57 6.0177263e-15           30            1           26 8.8032153e-17 
    4415    184.23873       57 6.0384095e-15           30            1           26 8.798811e-17 
    4420     184.4214       59 6.0591652e-15           31            1           27 8.794409e-17 
    4425    184.59809       59 6.0799936e-15           31            1           27 8.7900092e-17 
    4430    184.78106       59 6.1008951e-15           31            1           27 8.7856115e-17 
    4435    184.97605       59 6.1218698e-15           31            1           27 8.7812161e-17 
    4440    185.16384       59 6.142918e-15           31            1           27 8.7768228e-17 
    4445    185.36378       59 6.1640401e-15           31            1           27 8.7724318e-17 
    4450    185.54761       59 6.1852361e-15           31            1           27 8.768043e-17 
    4455    185.74888       59 6.2065065e-15           31            1           27 8.7636563e-17 
    4460    185.93588       59 6.2278514e-15           31            1           27 8.7592718e-17 
    4465    186.12292       61 6.2492712e-15           32            1           28 8.7548896e-17 
    4470    186.32879       61 6.270766e-15           32            1           28 8.7505095e-17 
    4475    186.53221       61 6.2923362e-15           32            1           28 8.7461316e-17 
    4480    186.73763       61 6.313982e-15           32            1           28 8.7417559e-17 
    4485    186.94263       61 6.3357037e-15           32            1           28 8.7373824e-17 
    4490    187.13505       61 6.3575015e-15           32            1           28 8.7330111e-17 
    4495    187.30975       61 6.3793757e-15           32            1           28 8.728642e-17 
    4500    187.49948       61 6.4013266e-15           32            1           28 8.7242751e-17 
    4505    187.69696       61 6.4233544e-15           32            1           28 8.7199103e-17 
    4510    187.88475       61 6.4454594e-15           32            1           28 8.7155478e-17 
    4515      188.084       61 6.4676419e-15           32            1           28 8.7111874e-17 
    4520    188.29267       61 6.4899022e-15           32            1           28 8.7068292e-17 
    4525    188.49718       61 6.5122404e-15           32            1           28 8.7024731e-17 
    4530    188.72277       61 6.534657e-15           32            1           28 8.6981193e-17 
    4535    188.93598       61 6.5571522e-15           32            1           28 8.6937676e-17 
    4540    189.14448       61 6.5797261e-15           32            1           28 8.6894181e-17 
    4545    189.33724       61 6.6023792e-15           32            1           28 8.6850708e-17 
    4550    189.52554       62 6.6251117e-15           32            1           29 8.6807257e-17 
    4555    189.70119       63 6.6479239e-15           32            1           30 8.6763827e-17 
    4560    189.89709       64 6.670816e-15           33            1           30 8.6720419e-17 
    4565    190.09281       65 6.6937884e-15           34            1           30 8.6677033e-17 
    4570    190.29346       65 6.7168413e-15           34            1           30 8.6633669e-17 
    4575    190.50472       66 6.7399749e-15           34            1           31 8.6590326e-17 
    4580    190.69515       66 6.7631896e-15           34            1           31 8.6547005e-17 
    4585     190.8845       66 6.7864857e-15           34            1           31 8.6503705e-17 
    4590    191.08185       66 6.8098635e-15           34            1           31 8.6460427e-17 
    4595    191.25952       66 6.8333232e-15           34            1           31 8.6417171e-17 
    4600    191.43395       66 6.856865e-15           34            1           31 8.6373937e-17 
    4605    191.61222       66 6.8804894e-15           34            1           31 8.6330724e-17 
    4610    191.78222       66 6.9041966e-15           34            1           31 8.6287533e-17 
    4615    191.95264       67 6.9279869e-15           35            1           31 8.6244363e-17 
    4620    192.12608       67 6.9518606e-15           35            1           31 8.6201215e-17 
    4625    192.30528       67 6.9758179e-15           35            1           31 8.6158088e-17 
    4630    192.48643       67 6.9998591e-15           35            1           31 8.6114984e-17 
    4635    192.68956       67 7.0239847e-15           35            1           31  8.60719e-17 
    4640    192.86908       67 7.0481947e-15           35            1           31 8.6028839e-17 
    4645    193.05758       67 7.0724896e-15           35            1           31 8.5985798e-17 
    4650    193.24926       67 7.0968697e-15           35            1           31 8.594278e-17 
    4655    193.44601       67 7.1213352e-15           35            1           31 8.5899782e-17 
    4660    193.66728       67 7.1458864e-15           35            1           31 8.5856807e-17 
    4665    193.87157       67 7.1705236e-15           35            1           31 8.5813853e-17 
    4670    194.09365       67 7.1952472e-15           35            1           31 8.577092e-17 
    4675     194.4979       68 7.2200574e-15           35            1           32 8.5728009e-17 
    4680    194.88208       69 7.2449546e-15           35            1           33 8.5685119e-17 
    4685    195.27118       69 7.269939e-15           35            1           33 8.5642251e-17 
    4690    195.65619       69 7.2950109e-15           35            1           33 8.5599404e-17 
    4695    196.04685       69 7.3201707e-15           35            1           33 8.5556579e-17 
    4700    196.38558       69 7.3454186e-15           35            1           33 8.5513775e-17 
    4705    196.74086       69 7.370755e-15           35            1           33 8.5470992e-17 
    4710    196.93038       69 7.3961802e-15           35            1           33 8.5428231e-17 
    4715    197.10784       69 7.4216945e-15           35            1           33 8.5385491e-17 
    4720    197.29145       70 7.4472981e-15           36            1           33 8.5342773e-17 
    4725    197.47501       70 7.4729915e-15           36            1           33 8.5300076e-17 
    4730    197.67927       70 7.4987749e-15           36            1           33 8.5257401e-17 
    4735    197.89352       70 7.5246487e-15           36            1           33 8.5214746e-17 
    4740    198.10374       71 7.5506131e-15           36            1           34 8.5172113e-17 
    4745    198.29104       71 7.5766685e-15           36            1           34 8.5129502e-17 
    4750    198.52714       71 7.6028152e-15           36            1           34 8.5086911e-17 
    4755    198.86309       71 7.6290535e-15           36            1           34 8.5044343e-17 
    4760    199.21533       71 7.6553838e-15           36            1           34 8.5001795e-17 
    4765    199.56676       71 7.6818063e-15           36            1           34 8.4959268e-17 
    4770    199.90976       72 7.7083213e-15           37            1           34 8.4916763e-17 
    4775    200.25554       72 7.7349293e-15           37            1           34 8.487428e-17 
    4780    200.58659       72 7.7616304e-15           37            1           34 8.4831817e-17 
    4785    201.00516       73 7.7884251e-15           37            1           35 8.4789376e-17 
    4790    201.38539       74 7.8153137e-15           38            1           35 8.4746956e-17 
    4795    201.76245       74 7.8422965e-15           38            1           35 8.4704557e-17 
    4800    202.16436       74 7.8693738e-15           38            1           35 8.4662179e-17 
    4805     202.5833       74 7.8965459e-15           38            1           35 8.4619823e-17 
    4810    202.95404       74 7.9238133e-15           38            1           35 8.4577487e-17 
    4815    203.31155       74 7.9511762e-15           38            1           35 8.4535173e-17 
    4820     203.7434       74 7.9786349e-15           38            1           35 8.449288e-17 
    4825    204.17267       74 8.0061898e-15           38            1           35 8.4450608e-17 
    4830    204.59423       75 8.0338413e-15           39            1           35 8.4408358e-17 
    4835    205.03148       75 8.0615896e-15           39            1           35 8.4366128e-17 
    4840    205.44831       75 8.0894351e-15           39            1           35 8.432392e-17 
    4845    205.87255       75 8.1173782e-15           39            1           35 8.4281733e-17 
    4850    206.27859       75 8.1454192e-15           39            1           35 8.4239567e-17 
    4855    206.71129       75 8.1735584e-15           39            1           35 8.4197422e-17 
    4860     207.1268       75 8.2017961e-15           39            1           35 8.4155298e-17 
    4865    207.52131       75 8.2301328e-15           39            1           35 8.4113195e-17 
    4870    207.88711       75 8.2585687e-15           39            1           35 8.4071113e-17 
    4875    208.31217       75 8.2871043e-15           39            1           35 8.4029052e-17 
    4880    208.73584       77 8.3157398e-15           41            1           35 8.3987013e-17 
    4885    209.16175       78 8.3444756e-15           42            1           35 8.3944994e-17 
    4890    209.50456       78 8.3733121e-15           42            1           35 8.3902996e-17 
    4895    209.68988       78 8.4022496e-15           42            1           35 8.386102e-17 
    4900     209.8949       79 8.4312885e-15           43            1           35 8.3819064e-17 
    4905    210.08853       79 8.4604291e-15           43            1           35 8.3777129e-17 
    4910    210.28278       81 8.4896718e-15           44            1           36 8.3735216e-17 
    4915    210.49116       82 8.519017e-15           44            1           37 8.3693323e-17 
    4920    210.67967       82 8.5484649e-15           44            1           37 8.3651451e-17 
    4925    210.87779       83 8.578016e-15           44            1           38 8.3609601e-17 
    4930    211.12226       83 8.6076707e-15           44            1           38 8.3567771e-17 
    4935    211.54233       83 8.6374292e-15           44            1           38 8.3525962e-17 
    4940    211.93514       84 8.667292e-15           44            1           39 8.3484174e-17 
    4945     212.3453       84 8.6972593e-15           44            1           39 8.3442407e-17 
    4950    212.76456       84 8.7273316e-15           44            1           39 8.3400661e-17 
    4955    213.17512       84 8.7575093e-15           44            1           39 8.3358935e-17 
    4960    213.57777       84 8.7877926e-15           44            1           39 8.3317231e-17 
    4965    213.96315       84 8.8181821e-15           44            1           39 8.3275547e-17 
    4970    214.42907       84 8.8486779e-15           44            1           39 8.3233885e-17 
    4975    214.89261       87 8.8792806e-15           46            1           40 8.3192243e-17 
    4980     215.3473       87 8.9099905e-15           46            1           40 8.3150622e-17 
    4985     215.8161       87 8.9408079e-15           46            1           40 8.3109021e-17 
    4990    216.27001       87 8.9717332e-15           46            1           40 8.3067442e-17 
    4995    216.71985       87 9.0027669e-15           46            1           40 8.3025884e-17 
    5000    217.16404       87 9.0339093e-15           46            1           40 8.2984346e-17 
Loop time of 217.164 on 1 procs for 5000 steps with 87 atoms

Performance: 71614058.599 tau/day, 23.024 timesteps/s
93.1% CPU use with 1 MPI tasks x no OpenMP threads

MPI task timing breakdown:
Section |  min time  |  avg time  |  max time  |%varavg| %total
---------------------------------------------------------------
Pair    | 0.084599   | 0.084599   | 0.084599   |   0.0 |  0.04
Neigh   | 16.34      | 16.34      | 16.34      |   0.0 |  7.52
Comm    | 0.12585    | 0.12585    | 0.12585    |   0.0 |  0.06
Output  | 0.11418    | 0.11418    | 0.11418    |   0.0 |  0.05
Modify  | 200.46     | 200.46     | 200.46     |   0.0 | 92.31
Other   |            | 0.03887    |            |       |  0.02

Nlocal:    87 ave 87 max 87 min
Histogram: 1 0 0 0 0 0 0 0 0 0
Nghost:    0 ave 0 max 0 min
Histogram: 1 0 0 0 0 0 0 0 0 0
Neighs:    377 ave 377 max 377 min
Histogram: 1 0 0 0 0 0 0 0 0 0

Total # of neighbors = 377
Ave neighs/atom = 4.33333
Neighbor list builds = 5000
Dangerous builds = 0


Total wall time: 0:03:47
