LAMMPS (5 Nov 2016)
# NUFEB simulation

atom_style	bio
atom_modify	map array sort 1000 5.0e-7
boundary	ff ff ff
newton		off
#processors  2 1 1

comm_modify	vel yes
read_data_bio atom.in
  orthogonal box = (0 0 0) to (0.0001 0.0001 0.0001)
  1 by 1 by 1 MPI processor grid
  reading atoms ...
  3 atoms
  10 nutrients

group AOB type 1
1 atoms in group AOB
group NOB type 2
1 atoms in group NOB
group COMM type 3
1 atoms in group COMM

neighbor	5.0e-7 bin
neigh_modify	delay 0 one 5000

#pair_style none
pair_style  gran/hooke/history 0.000200 NULL 0.000050 NULL 0.0 1

pair_coeff  * *
timestep 36

fix 1 all nve/limit 1e-8

#fix	 2 all gravity 1.47 vector 0 0 -1 # spherical 90.0 -180.0
#fix     3 all fdrag
fix 10 all viscous 0.1


fix xw all wall/gran hooke/history 2000 NULL 500.0 NULL 1.5 0 xplane  0.0   1.0e-04
fix yw all wall/gran hooke/history 2000 NULL 500.0 NULL 1.5 0 yplane  0.0   1.0e-04
fix zw all wall/gran hooke/history 2000 NULL 500.0 NULL 1.5 0 zplane  0.0   1.0e-04

variable kanc equal 50

fix xwa all walladh v_kanc xplane  0.0   1.0e-04
fix ywa all walladh v_kanc yplane  0.0   1.0e-04
fix zwa all walladh v_kanc zplane  0.0   1.0e-04

##############Ibm Variable Definitions##############

#Defining EPS density and ratio variables
variable EPSdens equal 30
variable EPSratio equal 1.25

variable ke equal 5e+10

#Defining kinetics variables
variable temp equal 298.15
variable gasTran equal 0.08205746
variable gvol equal 8e-14
variable rth equal 0.0083144
variable pressure equal 1
variable ph equal 7.0

#Defining diffusion variables
variable diffT equal 1e-7
variable tol equal 6e-11

##############Ibm functions##############

fix k1 all kinetics 25 25 25 v_temp v_rth v_gvol v_gasTran v_ph
fix g1 all diffusion exp v_diffT v_tol pp pp nd
#fix ki3 all kinetics/ph 1
fix ki2 all kinetics/thermo 1 fix open v_pressure
fix ki1 all kinetics/monod 1 v_EPSdens
fix d1 all divide 1 v_EPSdens 1 31231

#fix j1 all epsadh 1 v_ke 1
#fix e1 HET eps_extract 16 v_EPSratio v_EPSdens 1242242

##############Ibm compute##############

compute myMass all biomass
compute myNtypes all ntypes

##############Simulation outputs##############

#dump		id all custom 250 snapshot.bubblemd id type diameter x y z
dump            d0 all bio 500 biomass
thermo_style    custom step cpu atoms biomass c_myNtypes[*] c_myMass[2]
thermo		5
thermo_modify	lost ignore

run  5000
Neighbor list info ...
  2 neighbor list requests
  update every 1 steps, delay 0 steps, check yes
  max neighbors/atom: 5000, page size: 100000
  master list distance cutoff = 1.466e-06
  ghost atom cutoff = 1.466e-06
  binsize = 7.33e-07 -> bins = 137 137 137
Memory usage per processor = 18.9946 Mbytes
Step CPU Atoms biomass c_myNtypes[1] c_myNtypes[2] c_myNtypes[3] c_myMass[2] 
       0            0        3 4.1062866e-16            1            1            1 1.3687622e-16 
       5    28.305728        3 4.1151573e-16            1            1            1 1.3680774e-16 
      10    28.709493        3 4.1240618e-16            1            1            1 1.3673929e-16 
      15    29.103499        3 4.1330001e-16            1            1            1 1.3667088e-16 
      20    29.519027        3 4.1419723e-16            1            1            1 1.3660251e-16 
      25    29.913011        3 4.1509787e-16            1            1            1 1.3653417e-16 
      30     30.30847        3 4.1600191e-16            1            1            1 1.3646586e-16 
      35    30.718791        3 4.1690939e-16            1            1            1 1.3639758e-16 
      40    31.106612        3 4.1782031e-16            1            1            1 1.3632934e-16 
      45    31.506707        3 4.1873469e-16            1            1            1 1.3626114e-16 
      50    31.910268        3 4.1965253e-16            1            1            1 1.3619297e-16 
      55    32.300937        3 4.2057384e-16            1            1            1 1.3612483e-16 
      60    32.691475        3 4.2149865e-16            1            1            1 1.3605673e-16 
      65    33.093862        3 4.2242696e-16            1            1            1 1.3598866e-16 
      70    33.503656        3 4.2335878e-16            1            1            1 1.3592062e-16 
      75     33.90393        3 4.2429413e-16            1            1            1 1.3585262e-16 
      80    34.300827        3 4.2523301e-16            1            1            1 1.3578465e-16 
      85    34.704597        3 4.2617545e-16            1            1            1 1.3571672e-16 
      90    35.113213        3 4.2712144e-16            1            1            1 1.3564882e-16 
      95    35.515421        3 4.2807102e-16            1            1            1 1.3558096e-16 
     100    35.910539        3 4.2902418e-16            1            1            1 1.3551313e-16 
     105    36.308795        3 4.2998094e-16            1            1            1 1.3544533e-16 
     110    36.707792        3 4.3094131e-16            1            1            1 1.3537757e-16 
     115    37.110286        3 4.319053e-16            1            1            1 1.3530984e-16 
     120    37.501156        3 4.3287294e-16            1            1            1 1.3524214e-16 
     125    37.888486        3 4.3384422e-16            1            1            1 1.3517448e-16 
     130    38.286359        3 4.3481916e-16            1            1            1 1.3510685e-16 
     135    38.689379        3 4.3579778e-16            1            1            1 1.3503926e-16 
     140     39.09573        3 4.3678009e-16            1            1            1 1.349717e-16 
     145    39.506864        3 4.377661e-16            1            1            1 1.3490417e-16 
     150    39.924944        4 4.3875582e-16            2            1            1 1.3483668e-16 
     155    40.337423        5 4.3974926e-16            2            1            2 1.3476922e-16 
     160    40.752172        5 4.4074645e-16            2            1            2 1.347018e-16 
     165    41.164363        5 4.4174739e-16            2            1            2 1.346344e-16 
     170    41.570831        5 4.4275209e-16            2            1            2 1.3456705e-16 
     175    41.980199        5 4.4376057e-16            2            1            2 1.3449972e-16 
     180    42.382713        5 4.4477284e-16            2            1            2 1.3443243e-16 
     185    42.793786        5 4.4578891e-16            2            1            2 1.3436518e-16 
     190    43.211481        5 4.468088e-16            2            1            2 1.3429795e-16 
     195    43.621821        5 4.4783252e-16            2            1            2 1.3423076e-16 
     200    44.036243        5 4.4886009e-16            2            1            2 1.3416361e-16 
     205    44.446611        5 4.4989151e-16            2            1            2 1.3409649e-16 
     210    44.857103        5 4.509268e-16            2            1            2 1.340294e-16 
     215    45.272922        5 4.5196597e-16            2            1            2 1.3396234e-16 
     220    45.681597        5 4.5300905e-16            2            1            2 1.3389532e-16 
     225    46.094339        5 4.5405603e-16            2            1            2 1.3382834e-16 
     230    46.512561        5 4.5510693e-16            2            1            2 1.3376138e-16 
     235    46.935392        5 4.5616178e-16            2            1            2 1.3369446e-16 
     240    47.355632        5 4.5722057e-16            2            1            2 1.3362757e-16 
     245    47.769043        5 4.5828333e-16            2            1            2 1.3356072e-16 
     250    48.183829        5 4.5935007e-16            2            1            2 1.334939e-16 
     255    48.607045        5 4.604208e-16            2            1            2 1.3342711e-16 
     260    49.025945        5 4.6149554e-16            2            1            2 1.3336036e-16 
     265    49.443826        5 4.625743e-16            2            1            2 1.3329364e-16 
     270    49.880402        5 4.6365709e-16            2            1            2 1.3322695e-16 
     275     50.30574        5 4.6474393e-16            2            1            2 1.331603e-16 
     280    50.738893        5 4.6583483e-16            2            1            2 1.3309368e-16 
     285    51.178921        5 4.669298e-16            2            1            2 1.3302709e-16 
     290    51.615396        5 4.6802887e-16            2            1            2 1.3296054e-16 
     295    52.053992        5 4.6913204e-16            2            1            2 1.3289402e-16 
     300    52.494597        5 4.7023933e-16            2            1            2 1.3282753e-16 
     305    52.929705        5 4.7135075e-16            2            1            2 1.3276108e-16 
     310    53.368887        5 4.7246632e-16            2            1            2 1.3269466e-16 
     315    53.805882        5 4.7358605e-16            2            1            2 1.3262827e-16 
     320    54.249416        5 4.7470996e-16            2            1            2 1.3256192e-16 
     325    54.681104        5 4.7583806e-16            2            1            2 1.324956e-16 
     330     55.11024        5 4.7697036e-16            2            1            2 1.3242931e-16 
     335    55.547563        5 4.7810688e-16            2            1            2 1.3236306e-16 
     340     55.98586        5 4.7924763e-16            2            1            2 1.3229684e-16 
     345    56.413217        5 4.8039263e-16            2            1            2 1.3223065e-16 
     350    56.842783        5 4.815419e-16            2            1            2 1.3216449e-16 
     355    57.287145        5 4.8269544e-16            2            1            2 1.3209837e-16 
     360    57.723829        5 4.8385328e-16            2            1            2 1.3203228e-16 
     365    58.161922        5 4.8501543e-16            2            1            2 1.3196623e-16 
     370    58.597875        5 4.8618189e-16            2            1            2 1.3190021e-16 
     375    59.036832        5 4.873527e-16            2            1            2 1.3183422e-16 
     380    59.478348        5 4.8852786e-16            2            1            2 1.3176826e-16 
     385     59.91851        5 4.8970738e-16            2            1            2 1.3170234e-16 
     390    60.354902        5 4.9089129e-16            2            1            2 1.3163645e-16 
     395    60.788719        5 4.920796e-16            2            1            2 1.3157059e-16 
     400    61.228874        5 4.9327231e-16            2            1            2 1.3150477e-16 
     405    61.668119        5 4.9446946e-16            2            1            2 1.3143897e-16 
     410    62.117933        5 4.9567105e-16            2            1            2 1.3137322e-16 
     415    62.553284        5 4.9687711e-16            2            1            2 1.3130749e-16 
     420    62.991859        5 4.9808763e-16            2            1            2 1.312418e-16 
     425    63.421855        5 4.9930265e-16            2            1            2 1.3117614e-16 
     430      63.8498        5 5.0052217e-16            2            1            2 1.3111051e-16 
     435    64.299695        5 5.0174621e-16            2            1            2 1.3104492e-16 
     440    64.744065        5 5.0297479e-16            2            1            2 1.3097936e-16 
     445    65.201166        5 5.0420793e-16            2            1            2 1.3091383e-16 
     450    65.648804        5 5.0544563e-16            2            1            2 1.3084833e-16 
     455    66.102098        5 5.0668791e-16            2            1            2 1.3078287e-16 
     460     66.55914        5 5.079348e-16            2            1            2 1.3071744e-16 
     465    67.011457        5 5.091863e-16            2            1            2 1.3065204e-16 
     470    67.461311        5 5.1044244e-16            2            1            2 1.3058668e-16 
     475    67.920001        5 5.1170322e-16            2            1            2 1.3052135e-16 
     480    68.283251        5 5.1296867e-16            2            1            2 1.3045605e-16 
     485     68.68984        5 5.142388e-16            2            1            2 1.3039078e-16 
     490    69.074277        5 5.1551362e-16            2            1            2 1.3032555e-16 
     495    69.502209        5 5.1679316e-16            2            1            2 1.3026035e-16 
     500    69.926885        5 5.1807743e-16            2            1            2 1.3019518e-16 
     505    70.340366        5 5.1936644e-16            2            1            2 1.3013004e-16 
     510    70.756959        5 5.2066022e-16            2            1            2 1.3006494e-16 
     515    71.147163        5 5.2195877e-16            2            1            2 1.2999987e-16 
     520    71.560321        5 5.2326212e-16            2            1            2 1.2993483e-16 
     525    72.006362        5 5.2457029e-16            2            1            2 1.2986983e-16 
     530    72.467616        5 5.2588328e-16            2            1            2 1.2980485e-16 
     535    72.914507        5 5.2720111e-16            2            1            2 1.2973991e-16 
     540    73.359269        5 5.2852381e-16            2            1            2  1.29675e-16 
     545    73.817116        5 5.2985139e-16            2            1            2 1.2961013e-16 
     550    74.284133        5 5.3118386e-16            2            1            2 1.2954529e-16 
     555    74.730057        5 5.3252125e-16            2            1            2 1.2948048e-16 
     560    75.176977        5 5.3386356e-16            2            1            2 1.294157e-16 
     565    75.661274        5 5.3521083e-16            2            1            2 1.2935095e-16 
     570    76.140942        5 5.3656306e-16            2            1            2 1.2928624e-16 
     575    76.664662        5 5.3792026e-16            2            1            2 1.2922156e-16 
     580    77.182394        5 5.3928247e-16            2            1            2 1.2915691e-16 
     585    77.602326        5 5.406497e-16            2            1            2 1.290923e-16 
     590    78.035119        5 5.4202195e-16            2            1            2 1.2902771e-16 
     595    78.431369        5 5.4339926e-16            2            1            2 1.2896316e-16 
     600    78.816585        5 5.4478164e-16            2            1            2 1.2889864e-16 
     605    79.196548        5 5.461691e-16            2            1            2 1.2883416e-16 
     610    79.564271        5 5.4756167e-16            2            1            2 1.287697e-16 
     615     79.95877        5 5.4895936e-16            2            1            2 1.2870528e-16 
     620     80.39846        5 5.5036219e-16            2            1            2 1.2864089e-16 
     625    80.922051        5 5.5177017e-16            2            1            2 1.2857654e-16 
     630    81.477937        5 5.5318333e-16            2            1            2 1.2851221e-16 
     635    82.035805        5 5.5460168e-16            2            1            2 1.2844792e-16 
     640    82.588771        5 5.5602525e-16            2            1            2 1.2838366e-16 
     645    83.097449        5 5.5745404e-16            2            1            2 1.2831943e-16 
     650    83.622761        5 5.5888808e-16            2            1            2 1.2825523e-16 
     655    84.139305        5 5.6032738e-16            2            1            2 1.2819107e-16 
     660    84.634012        5 5.6177197e-16            2            1            2 1.2812694e-16 
     665     85.13707        5 5.6322186e-16            2            1            2 1.2806284e-16 
     670    85.604483        5 5.6467707e-16            2            1            2 1.2799877e-16 
     675    86.012042        5 5.6613762e-16            2            1            2 1.2793474e-16 
     680    86.425473        5 5.6760353e-16            2            1            2 1.2787073e-16 
     685    86.794118        5 5.6907481e-16            2            1            2 1.2780676e-16 
     690    87.219008        5 5.7055149e-16            2            1            2 1.2774282e-16 
     695    87.630266        5 5.7203358e-16            2            1            2 1.2767892e-16 
     700    88.037244        5 5.735211e-16            2            1            2 1.2761504e-16 
     705    88.460126        5 5.7501408e-16            2            1            2 1.275512e-16 
     710    88.918454        5 5.7651252e-16            2            1            2 1.2748739e-16 
     715    89.356358        5 5.7801645e-16            2            1            2 1.2742361e-16 
     720    89.871551        5 5.7952589e-16            2            1            2 1.2735986e-16 
     725    90.391339        5 5.8104086e-16            2            1            2 1.2729615e-16 
     730    90.951742        5 5.8256138e-16            2            1            2 1.2723247e-16 
     735      91.4572        5 5.8408746e-16            2            1            2 1.2716882e-16 
     740    91.952139        5 5.8561912e-16            2            1            2 1.271052e-16 
     745    92.457161        5 5.8715639e-16            2            1            2 1.2704161e-16 
     750    92.946462        5 5.8869928e-16            2            1            2 1.2697806e-16 
     755    93.394458        5 5.9024782e-16            2            1            2 1.2691453e-16 
     760    93.908541        5 5.9180201e-16            2            1            2 1.2685104e-16 
     765    94.390001        5 5.9336189e-16            2            1            2 1.2678758e-16 
     770    94.950902        5 5.9492748e-16            2            1            2 1.2672416e-16 
     775    95.496215        5 5.9649878e-16            2            1            2 1.2666076e-16 
     780    96.003432        5 5.9807583e-16            2            1            2 1.265974e-16 
     785    96.555952        5 5.9965864e-16            2            1            2 1.2653406e-16 
     790    97.092928        5 6.0124723e-16            2            1            2 1.2647076e-16 
     795    97.625859        5 6.0284162e-16            2            1            2 1.264075e-16 
     800    98.186254        5 6.0444183e-16            2            1            2 1.2634426e-16 
     805    98.734172        5 6.0604789e-16            2            1            2 1.2628106e-16 
     810    99.278909        5 6.0765981e-16            2            1            2 1.2621788e-16 
     815    99.822974        5 6.0927761e-16            2            1            2 1.2615474e-16 
     820    100.37595        5 6.1090132e-16            2            1            2 1.2609163e-16 
     825    100.86988        5 6.1253095e-16            2            1            2 1.2602855e-16 
     830    101.35072        5 6.1416652e-16            2            1            2 1.2596551e-16 
     835    101.78233        5 6.1580806e-16            2            1            2 1.2590249e-16 
     840    102.23311        5 6.1745558e-16            2            1            2 1.2583951e-16 
     845    102.72423        5 6.1910911e-16            2            1            2 1.2577656e-16 
     850    103.18282        5 6.2076867e-16            2            1            2 1.2571364e-16 
     855     103.6429        5 6.2243428e-16            2            1            2 1.2565075e-16 
     860    104.05257        5 6.2410596e-16            2            1            2 1.255879e-16 
     865    104.52434        5 6.2578372e-16            2            1            2 1.2552507e-16 
     870    104.99279        5 6.274676e-16            2            1            2 1.2546228e-16 
     875    105.44115        5 6.2915761e-16            2            1            2 1.2539952e-16 
     880    105.97049        5 6.3085378e-16            2            1            2 1.2533679e-16 
     885    106.52564        5 6.3255612e-16            2            1            2 1.2527409e-16 
     890    107.13368        5 6.3426466e-16            2            1            2 1.2521143e-16 
     895    107.70534        5 6.3597942e-16            2            1            2 1.2514879e-16 
     900    108.25247        5 6.3770042e-16            2            1            2 1.2508619e-16 
     905    108.83612        5 6.3942768e-16            2            1            2 1.2502362e-16 
     910     109.3957        5 6.4116122e-16            2            1            2 1.2496108e-16 
     915    109.93203        5 6.4290107e-16            2            1            2 1.2489857e-16 
     920    110.42165        5 6.4464724e-16            2            1            2 1.2483609e-16 
     925    110.90719        5 6.4639977e-16            2            1            2 1.2477365e-16 
     930    111.34643        5 6.4815867e-16            2            1            2 1.2471123e-16 
     935    111.87512        5 6.4992396e-16            2            1            2 1.2464885e-16 
     940    112.35151        5 6.5169566e-16            2            1            2 1.245865e-16 
     945    112.75123        5 6.5347381e-16            2            1            2 1.2452418e-16 
     950    113.19604        5 6.5525841e-16            2            1            2 1.2446189e-16 
     955     113.6098        6 6.570495e-16            2            1            3 1.2439964e-16 
     960     114.0313        6 6.588471e-16            2            1            3 1.2433741e-16 
     965    114.47285        6 6.6065122e-16            2            1            3 1.2427522e-16 
     970     114.9375        6 6.6246189e-16            2            1            3 1.2421306e-16 
     975    115.38741        6 6.6427914e-16            2            1            3 1.2415093e-16 
     980    115.81103        6 6.6610298e-16            2            1            3 1.2408883e-16 
     985    116.25447        6 6.6793344e-16            2            1            3 1.2402676e-16 
     990    116.68072        7 6.6977055e-16            3            1            3 1.2396472e-16 
     995    117.13656        7 6.7161432e-16            3            1            3 1.2390272e-16 
    1000    117.60609        7 6.7346478e-16            3            1            3 1.2384074e-16 
    1005    118.06904        7 6.7532195e-16            3            1            3 1.237788e-16 
    1010    118.51532        7 6.7718586e-16            3            1            3 1.2371689e-16 
    1015     118.9858        7 6.7905652e-16            3            1            3 1.2365501e-16 
    1020    119.42011        7 6.8093397e-16            3            1            3 1.2359316e-16 
    1025    119.87996        7 6.8281822e-16            3            1            3 1.2353134e-16 
    1030     120.3479        7 6.8470931e-16            3            1            3 1.2346956e-16 
    1035    120.81752        7 6.8660724e-16            3            1            3 1.234078e-16 
    1040     121.2119        7 6.8851206e-16            3            1            3 1.2334608e-16 
    1045    121.65465        7 6.9042377e-16            3            1            3 1.2328439e-16 
    1050    122.11213        7 6.9234241e-16            3            1            3 1.2322273e-16 
    1055    122.56242        7  6.94268e-16            3            1            3 1.231611e-16 
    1060    123.00245        7 6.9620056e-16            3            1            3 1.230995e-16 
    1065     123.4679        7 6.9814012e-16            3            1            3 1.2303794e-16 
    1070    124.01593        7 7.000867e-16            3            1            3 1.229764e-16 
    1075    124.60942        7 7.0204033e-16            3            1            3 1.229149e-16 
    1080    125.20552        7 7.0400102e-16            3            1            3 1.2285342e-16 
    1085    125.80121        7 7.0596882e-16            3            1            3 1.2279198e-16 
    1090    126.41064        7 7.0794373e-16            3            1            3 1.2273057e-16 
    1095    127.00456        7 7.0992579e-16            3            1            3 1.2266919e-16 
    1100    127.58594        7 7.1191502e-16            3            1            3 1.2260785e-16 
    1105    128.18966        7 7.1391144e-16            3            1            3 1.2254653e-16 
    1110    128.78813        7 7.1591508e-16            3            1            3 1.2248524e-16 
    1115    129.39905        7 7.1792597e-16            3            1            3 1.2242399e-16 
    1120    130.00203        7 7.1994413e-16            3            1            3 1.2236277e-16 
    1125    130.60028        7 7.2196958e-16            3            1            3 1.2230158e-16 
    1130    131.20241        7 7.2400235e-16            3            1            3 1.2224042e-16 
    1135    131.81231        7 7.2604247e-16            3            1            3 1.2217929e-16 
    1140    132.40752        7 7.2808996e-16            3            1            3 1.2211819e-16 
    1145    133.02119        7 7.3014485e-16            3            1            3 1.2205712e-16 
    1150    133.64421        7 7.3220716e-16            3            1            3 1.2199609e-16 
    1155    134.24241        7 7.3427692e-16            3            1            3 1.2193508e-16 
    1160    134.85278        7 7.3635416e-16            3            1            3 1.2187411e-16 
    1165    135.46789        7 7.3843889e-16            3            1            3 1.2181317e-16 
    1170    136.08754        7 7.4053115e-16            3            1            3 1.2175226e-16 
    1175    136.70042        7 7.4263097e-16            3            1            3 1.2169138e-16 
    1180    137.29739        7 7.4473837e-16            3            1            3 1.2163053e-16 
    1185    137.90092        7 7.4685337e-16            3            1            3 1.2156971e-16 
    1190    138.52712        7  7.48976e-16            3            1            3 1.2150893e-16 
    1195     139.1547        7 7.5110629e-16            3            1            3 1.2144817e-16 
    1200    139.58039        7 7.5324427e-16            3            1            3 1.2138745e-16 
    1205    140.00028        7 7.5538996e-16            3            1            3 1.2132676e-16 
    1210    140.43569        7 7.5754339e-16            3            1            3 1.212661e-16 
    1215    140.84006        7 7.5970459e-16            3            1            3 1.2120547e-16 
    1220    141.26065        7 7.6187358e-16            3            1            3 1.2114487e-16 
    1225    141.67132        7 7.6405039e-16            3            1            3 1.2108431e-16 
    1230    142.11481        7 7.6623504e-16            3            1            3 1.2102377e-16 
    1235      142.517        7 7.6842757e-16            3            1            3 1.2096327e-16 
    1240    142.93953        7 7.7062801e-16            3            1            3 1.2090279e-16 
    1245    143.38128        7 7.7283637e-16            3            1            3 1.2084235e-16 
    1250    143.80425        7 7.7505269e-16            3            1            3 1.2078194e-16 
    1255     144.2409        7  7.77277e-16            3            1            3 1.2072156e-16 
    1260    144.67674        7 7.7950932e-16            3            1            3 1.2066121e-16 
    1265    145.09987        7 7.8174968e-16            3            1            3 1.206009e-16 
    1270    145.54721        7 7.839981e-16            3            1            3 1.2054061e-16 
    1275    145.98186        8 7.8625463e-16            4            1            3 1.2048036e-16 
    1280     146.4025        8 7.8851928e-16            4            1            3 1.2042013e-16 
    1285    146.83514        8 7.9079208e-16            4            1            3 1.2035994e-16 
    1290    147.25149        8 7.9307307e-16            4            1            3 1.2029978e-16 
    1295    147.70153        8 7.9536226e-16            4            1            3 1.2023965e-16 
    1300    148.11508        8 7.976597e-16            4            1            3 1.2017955e-16 
    1305    148.54155        8 7.999654e-16            4            1            3 1.2011949e-16 
    1310    148.98005        8 8.022794e-16            4            1            3 1.2005945e-16 
    1315    149.40622        8 8.0460172e-16            4            1            3 1.1999945e-16 
    1320    149.85124        8 8.069324e-16            4            1            3 1.1993948e-16 
    1325    150.30251        8 8.0927146e-16            4            1            3 1.1987954e-16 
    1330    150.75867        8 8.1161893e-16            4            1            3 1.1981963e-16 
    1335     151.2102        8 8.1397485e-16            4            1            3 1.1975975e-16 
    1340    151.65187        8 8.1633923e-16            4            1            3 1.196999e-16 
    1345    152.10154        8 8.1871212e-16            4            1            3 1.1964009e-16 
    1350    152.55077        8 8.2109354e-16            4            1            3 1.195803e-16 
    1355    153.00624        8 8.2348352e-16            4            1            3 1.1952055e-16 
    1360    153.43416        8 8.2588208e-16            4            1            3 1.1946083e-16 
    1365    153.92244        8 8.2828927e-16            4            1            3 1.1940114e-16 
    1370    154.36397        8 8.3070511e-16            4            1            3 1.1934148e-16 
    1375    154.79886        8 8.3312962e-16            4            1            3 1.1928186e-16 
    1380    155.23548        8 8.3556285e-16            4            1            3 1.1922226e-16 
    1385    155.68208        8 8.3800482e-16            4            1            3 1.191627e-16 
    1390    156.12772        8 8.4045556e-16            4            1            3 1.1910317e-16 
    1395    156.57233        8 8.429151e-16            4            1            3 1.1904367e-16 
    1400    157.04364        8 8.4538347e-16            4            1            3 1.189842e-16 
    1405    157.48703        8 8.4786071e-16            4            1            3 1.1892476e-16 
    1410    157.96349        8 8.5034684e-16            4            1            3 1.1886536e-16 
    1415    158.41743        8 8.5284189e-16            4            1            3 1.1880598e-16 
    1420    158.85395        8 8.553459e-16            4            1            3 1.1874664e-16 
    1425     159.2943        8 8.578589e-16            4            1            3 1.1868733e-16 
    1430    159.77382        9 8.6038092e-16            4            1            4 1.1862805e-16 
    1435    160.23058        9 8.6291198e-16            4            1            4 1.1856881e-16 
    1440    160.67963        9 8.6545213e-16            4            1            4 1.1850959e-16 
    1445    161.13875        9 8.6800139e-16            4            1            4 1.1845041e-16 
    1450    161.61733        9 8.705598e-16            4            1            4 1.1839126e-16 
    1455    162.07131        9 8.7312738e-16            4            1            4 1.1833214e-16 
    1460    162.54106        9 8.7570418e-16            4            1            4 1.1827305e-16 
    1465    163.00358        9 8.7829021e-16            4            1            4  1.18214e-16 
    1470    163.46121        9 8.8088552e-16            4            1            4 1.1815497e-16 
    1475    163.95668        9 8.8349013e-16            4            1            4 1.1809598e-16 
    1480    164.42797        9 8.8610408e-16            4            1            4 1.1803702e-16 
    1485    164.90401        9 8.887274e-16            4            1            4 1.179781e-16 
    1490    165.39923        9 8.9136012e-16            4            1            4 1.179192e-16 
    1495     165.8898        9 8.9400228e-16            4            1            4 1.1786034e-16 
    1500    166.39225        9 8.9665391e-16            4            1            4 1.1780151e-16 
    1505    166.86596        9 8.9931504e-16            4            1            4 1.1774271e-16 
    1510    167.35128        9 9.0198571e-16            4            1            4 1.1768394e-16 
    1515    167.83578        9 9.0466594e-16            4            1            4 1.1762521e-16 
    1520    168.31805        9 9.0735577e-16            4            1            4 1.175665e-16 
    1525      168.805        9 9.1005524e-16            4            1            4 1.1750783e-16 
    1530    169.25446        9 9.1276438e-16            4            1            4 1.174492e-16 
    1535    169.73506        9 9.1548323e-16            4            1            4 1.1739059e-16 
    1540    170.20636        9 9.182118e-16            4            1            4 1.1733202e-16 
    1545    170.67967        9 9.2095015e-16            4            1            4 1.1727348e-16 
    1550    171.15615        9 9.236983e-16            4            1            4 1.1721497e-16 
    1555    171.66683        9 9.2645629e-16            4            1            4 1.171565e-16 
    1560    172.15466        9 9.2922416e-16            4            1            4 1.1709805e-16 
    1565    172.64186        9 9.3200193e-16            4            1            4 1.1703965e-16 
    1570     173.1326        9 9.3478964e-16            4            1            4 1.1698127e-16 
    1575    173.61571        9 9.3758733e-16            4            1            4 1.1692292e-16 
    1580      174.116        9 9.4039503e-16            4            1            4 1.1686461e-16 
    1585     174.6136        9 9.4321278e-16            4            1            4 1.1680633e-16 
    1590    175.10288        9 9.4604061e-16            4            1            4 1.1674809e-16 
    1595    175.60783        9 9.4887855e-16            4            1            4 1.1668988e-16 
    1600    176.10259        9 9.5172665e-16            4            1            4 1.166317e-16 
    1605    176.60001        9 9.5458494e-16            4            1            4 1.1657355e-16 
    1610    177.09078        9 9.5745344e-16            4            1            4 1.1651544e-16 
    1615    177.57226        9 9.6033221e-16            4            1            4 1.1645736e-16 
    1620    178.05329        9 9.6322127e-16            4            1            4 1.1639931e-16 
    1625     178.5558        9 9.6612066e-16            4            1            4 1.163413e-16 
    1630    179.06744        9 9.6903041e-16            4            1            4 1.1628332e-16 
    1635    179.55611        9 9.7195057e-16            4            1            4 1.1622537e-16 
    1640    180.04802        9 9.7488117e-16            4            1            4 1.1616746e-16 
    1645    180.56313        9 9.7782224e-16            4            1            4 1.1610958e-16 
    1650    181.08314        9 9.8077382e-16            4            1            4 1.1605173e-16 
    1655    181.59865        9 9.8373596e-16            4            1            4 1.1599392e-16 
    1660    182.12525        9 9.8670867e-16            4            1            4 1.1593614e-16 
    1665    182.68463        9 9.8969201e-16            4            1            4 1.158784e-16 
    1670    183.19495        9 9.9268601e-16            4            1            4 1.1582069e-16 
    1675    183.72926        9 9.9569071e-16            4            1            4 1.1576301e-16 
    1680    184.27951        9 9.9870614e-16            4            1            4 1.1570537e-16 
    1685    184.80526        9 1.0017323e-15            4            1            4 1.1564776e-16 
    1690    185.31106        9 1.0047693e-15            4            1            4 1.1559019e-16 
    1695    185.82538        9 1.0078172e-15            4            1            4 1.1553265e-16 
    1700    186.35728        9 1.0108759e-15            4            1            4 1.1547514e-16 
    1705    186.87892        9 1.0139456e-15            4            1            4 1.1541767e-16 
    1710     187.4069        9 1.0170262e-15            4            1            4 1.1536023e-16 
    1715    187.93978        9 1.0201179e-15            4            1            4 1.1530283e-16 
    1720     188.4714        9 1.0232205e-15            4            1            4 1.1524547e-16 
    1725    188.99035        9 1.0263343e-15            4            1            4 1.1518813e-16 
    1730    189.52367        9 1.0294591e-15            4            1            4 1.1513084e-16 
    1735    190.06784        9 1.0325951e-15            4            1            4 1.1507358e-16 
    1740    190.59196        9 1.0357423e-15            4            1            4 1.1501635e-16 
    1745    191.14272        9 1.0389007e-15            4            1            4 1.1495916e-16 
    1750    191.65738        9 1.0420704e-15            4            1            4  1.14902e-16 
    1755    192.19071        9 1.0452514e-15            4            1            4 1.1484488e-16 
    1760    192.73568        9 1.0484438e-15            4            1            4 1.1478779e-16 
    1765    193.26466        9 1.0516476e-15            4            1            4 1.1473074e-16 
    1770    193.80662        9 1.0548627e-15            4            1            4 1.1467373e-16 
    1775    194.33866        9 1.0580894e-15            4            1            4 1.1461675e-16 
    1780    194.86961        9 1.0613275e-15            4            1            4 1.1455981e-16 
    1785    195.41678        9 1.0645772e-15            4            1            4 1.145029e-16 
    1790    195.94777        9 1.0678385e-15            4            1            4 1.1444603e-16 
    1795    196.49363        9 1.0711115e-15            4            1            4 1.143892e-16 
    1800    197.05555        9 1.074396e-15            4            1            4 1.143324e-16 
    1805    197.59919        9 1.0776924e-15            4            1            4 1.1427564e-16 
    1810    198.14166        9 1.0810004e-15            4            1            4 1.1421892e-16 
    1815    198.68685        9 1.0843203e-15            4            1            4 1.1416223e-16 
    1820    199.23296        9 1.087652e-15            4            1            4 1.1410558e-16 
    1825    199.78611        9 1.0909955e-15            4            1            4 1.1404897e-16 
    1830    200.34435        9 1.094351e-15            4            1            4 1.1399239e-16 
    1835    200.91088       10 1.0977184e-15            4            1            5 1.1393585e-16 
    1840    201.49804       10 1.1010979e-15            4            1            5 1.1387935e-16 
    1845    202.02645       10 1.1044894e-15            4            1            5 1.1382289e-16 
    1850    202.57301       10 1.1078929e-15            4            1            5 1.1376646e-16 
    1855    203.11186       10 1.1113086e-15            4            1            5 1.1371008e-16 
    1860    203.66109       10 1.1147365e-15            4            1            5 1.1365373e-16 
    1865    204.22268       10 1.1181766e-15            4            1            5 1.1359742e-16 
    1870    204.78952       10 1.1216289e-15            4            1            5 1.1354114e-16 
    1875    205.33744       10 1.1250936e-15            4            1            5 1.1348491e-16 
    1880    205.89841       10 1.1285705e-15            4            1            5 1.1342871e-16 
    1885    206.47857       10 1.1320599e-15            4            1            5 1.1337256e-16 
    1890    207.05903       10 1.1355617e-15            4            1            5 1.1331644e-16 
    1895    207.62736       10 1.1390759e-15            4            1            5 1.1326036e-16 
    1900    208.20405       10 1.1426027e-15            4            1            5 1.1320432e-16 
    1905     208.7593       11 1.146142e-15            5            1            5 1.1314832e-16 
    1910     209.3039       11 1.149694e-15            5            1            5 1.1309236e-16 
    1915    209.87991       11 1.1532586e-15            5            1            5 1.1303644e-16 
    1920    210.44186       11 1.1568358e-15            5            1            5 1.1298056e-16 
    1925    211.01351       11 1.1604258e-15            5            1            5 1.1292472e-16 
    1930     211.5832       11 1.1640286e-15            5            1            5 1.1286892e-16 
    1935    212.15302       11 1.1676442e-15            5            1            5 1.1281316e-16 
    1940     212.7432       11 1.1712727e-15            5            1            5 1.1275744e-16 
    1945    213.31175       11 1.1749141e-15            5            1            5 1.1270177e-16 
    1950    213.88827       11 1.1785685e-15            5            1            5 1.1264613e-16 
    1955     214.4549       11 1.1822358e-15            5            1            5 1.1259054e-16 
    1960    215.05339       11 1.1859162e-15            5            1            5 1.1253499e-16 
    1965    215.62898       11 1.1896097e-15            5            1            5 1.1247948e-16 
    1970    216.20922       11 1.1933164e-15            5            1            5 1.1242401e-16 
    1975    216.80735       11 1.1970362e-15            5            1            5 1.1236858e-16 
    1980     217.3939       11 1.2007693e-15            5            1            5 1.123132e-16 
    1985    217.98626       11 1.2045156e-15            5            1            5 1.1225786e-16 
    1990    218.55271       11 1.2082753e-15            5            1            5 1.1220256e-16 
    1995    219.12851       11 1.2120484e-15            5            1            5 1.1214731e-16 
    2000    219.74109       11 1.2158348e-15            5            1            5 1.120921e-16 
    2005    220.32381       11 1.2196348e-15            5            1            5 1.1203693e-16 
    2010    220.92552       11 1.2234482e-15            5            1            5 1.1198181e-16 
    2015    221.50265       11 1.2272752e-15            5            1            5 1.1192673e-16 
    2020    222.05766       12 1.2311159e-15            6            1            5 1.1187169e-16 
    2025    222.67395       12 1.2349702e-15            6            1            5 1.1181671e-16 
    2030    223.27745       12 1.2388381e-15            6            1            5 1.1176176e-16 
    2035    223.85194       12 1.2427199e-15            6            1            5 1.1170686e-16 
    2040    224.45611       12 1.2466154e-15            6            1            5 1.1165201e-16 
    2045    225.05836       12 1.2505248e-15            6            1            5 1.115972e-16 
    2050    225.66562       13 1.2544481e-15            7            1            5 1.1154244e-16 
    2055    226.24961       13 1.2583853e-15            7            1            5 1.1148773e-16 
    2060    226.86143       13 1.2623366e-15            7            1            5 1.1143306e-16 
    2065    227.45455       13 1.2663019e-15            7            1            5 1.1137844e-16 
    2070    228.09255       13 1.2702812e-15            7            1            5 1.1132387e-16 
    2075    228.70544       13 1.2742748e-15            7            1            5 1.1126934e-16 
    2080    229.32907       13 1.2782825e-15            7            1            5 1.1121487e-16 
    2085    229.95393       13 1.2823044e-15            7            1            5 1.1116044e-16 
    2090    230.59066       13 1.2863407e-15            7            1            5 1.1110606e-16 
    2095    231.17726       13 1.2903913e-15            7            1            5 1.1105173e-16 
    2100    231.79404       13 1.2944562e-15            7            1            5 1.1099745e-16 
    2105    232.42011       13 1.2985357e-15            7            1            5 1.1094321e-16 
    2110    233.05154       13 1.3026296e-15            7            1            5 1.1088903e-16 
    2115    233.69101       13 1.3067381e-15            7            1            5 1.108349e-16 
    2120    234.33633       13 1.3108611e-15            7            1            5 1.1078082e-16 
    2125    234.94811       13 1.3149988e-15            7            1            5 1.1072679e-16 
    2130    235.56334       14 1.3191512e-15            7            1            6 1.1067281e-16 
    2135    236.19524       14 1.3233184e-15            7            1            6 1.1061889e-16 
    2140    236.81697       14 1.3275004e-15            7            1            6 1.1056501e-16 
    2145    237.44702       14 1.3316972e-15            7            1            6 1.1051119e-16 
    2150    238.12231       14 1.3359089e-15            7            1            6 1.1045743e-16 
    2155    238.76468       14 1.3401356e-15            7            1            6 1.1040371e-16 
    2160    239.41111       14 1.3443773e-15            7            1            6 1.1035005e-16 
    2165    240.01473       14 1.348634e-15            7            1            6 1.1029645e-16 
    2170    240.64381       14 1.3529059e-15            7            1            6 1.1024289e-16 
    2175    241.29926       14 1.357193e-15            7            1            6 1.101894e-16 
    2180    241.93539       14 1.3614952e-15            7            1            6 1.1013596e-16 
    2185    242.57085       14 1.3658128e-15            7            1            6 1.1008257e-16 
    2190    243.19773       14 1.3701456e-15            7            1            6 1.1002925e-16 
    2195    243.88966       14 1.3744939e-15            7            1            6 1.0997597e-16 
    2200    244.55425       14 1.3788576e-15            7            1            6 1.0992276e-16 
    2205    245.21542       14 1.3832368e-15            7            1            6 1.0986961e-16 
    2210     245.8682       15 1.3876315e-15            7            1            7 1.0981651e-16 
    2215    246.58045       15 1.3920419e-15            7            1            7 1.0976347e-16 
    2220    247.26816       15 1.3964679e-15            7            1            7 1.0971049e-16 
    2225    247.96558       15 1.4009096e-15            7            1            7 1.0965757e-16 
    2230     248.6148       15 1.4053671e-15            7            1            7 1.0960472e-16 
    2235    249.29703       15 1.4098404e-15            7            1            7 1.0955192e-16 
    2240    249.93951       15 1.4143295e-15            7            1            7 1.0949918e-16 
    2245    250.59126       15 1.4188346e-15            7            1            7 1.0944651e-16 
    2250    251.27543       15 1.4233557e-15            7            1            7 1.093939e-16 
    2255    251.93001       15 1.4278929e-15            7            1            7 1.0934135e-16 
    2260    252.59421       15 1.4324461e-15            7            1            7 1.0928887e-16 
    2265    253.24077       15 1.4370155e-15            7            1            7 1.0923645e-16 
    2270    253.89728       15 1.4416011e-15            7            1            7 1.0918409e-16 
    2275    254.58651       15 1.446203e-15            7            1            7 1.091318e-16 
    2280    255.25972       15 1.4508213e-15            7            1            7 1.0907958e-16 
    2285    255.94463       15 1.4554559e-15            7            1            7 1.0902742e-16 
    2290    256.62237       15 1.4601069e-15            7            1            7 1.0897533e-16 
    2295    257.32874       15 1.4647745e-15            7            1            7 1.0892331e-16 
    2300    258.04768       15 1.4694586e-15            7            1            7 1.0887136e-16 
    2305     258.7174       15 1.4741594e-15            7            1            7 1.0881947e-16 
    2310    259.42537       15 1.4788768e-15            7            1            7 1.0876766e-16 
    2315    260.11508       15 1.4836109e-15            7            1            7 1.0871591e-16 
    2320    260.80332       15 1.4883619e-15            7            1            7 1.0866424e-16 
    2325    261.50037       15 1.4931297e-15            7            1            7 1.0861264e-16 
    2330    262.19567       15 1.4979144e-15            7            1            7 1.0856111e-16 
    2335    262.90143       15 1.5027161e-15            7            1            7 1.0850966e-16 
    2340    263.59078       15 1.5075348e-15            7            1            7 1.0845828e-16 
    2345    264.31822       15 1.5123707e-15            7            1            7 1.0840697e-16 
    2350    265.03072       15 1.5172236e-15            7            1            7 1.0835574e-16 
    2355    265.74632       15 1.5220938e-15            7            1            7 1.0830459e-16 
    2360    266.46972       15 1.5269813e-15            7            1            7 1.0825351e-16 
    2365    267.20298       15 1.5318861e-15            7            1            7 1.0820252e-16 
    2370    267.90737       15 1.5368083e-15            7            1            7 1.081516e-16 
    2375    268.60369       15 1.541748e-15            7            1            7 1.0810076e-16 
    2380    269.31679       15 1.5467051e-15            7            1            7   1.0805e-16 
    2385    270.01659       15 1.5516799e-15            7            1            7 1.0799932e-16 
    2390    270.70423       15 1.5566723e-15            7            1            7 1.0794872e-16 
    2395     271.4197       15 1.5616824e-15            7            1            7 1.0789821e-16 
    2400    272.16031       15 1.5667103e-15            7            1            7 1.0784777e-16 
    2405    272.88855       15 1.571756e-15            7            1            7 1.0779743e-16 
    2410    273.61012       15 1.5768196e-15            7            1            7 1.0774717e-16 
    2415    274.32705       15 1.5819012e-15            7            1            7 1.0769699e-16 
    2420    275.05125       15 1.5870008e-15            7            1            7 1.0764691e-16 
    2425    275.78704       15 1.5921184e-15            7            1            7 1.0759691e-16 
    2430    276.51055       15 1.5972542e-15            7            1            7  1.07547e-16 
    2435    277.23105       15 1.6024083e-15            7            1            7 1.0749718e-16 
    2440    277.99764       15 1.6075806e-15            7            1            7 1.0744745e-16 
    2445    278.71602       15 1.6127712e-15            7            1            7 1.0739782e-16 
    2450    279.42667       15 1.6179803e-15            7            1            7 1.0734827e-16 
    2455    280.16218       15 1.6232078e-15            7            1            7 1.0729883e-16 
    2460    280.90227       15 1.6284539e-15            7            1            7 1.0724947e-16 
    2465    281.64169       15 1.6337185e-15            7            1            7 1.0720021e-16 
    2470    282.37431       15 1.6390019e-15            7            1            7 1.0715106e-16 
    2475    283.11814       15 1.6443039e-15            7            1            7 1.0710199e-16 
    2480    283.88435       16 1.6496248e-15            8            1            7 1.0705303e-16 
    2485    284.63572       16 1.6549645e-15            8            1            7 1.0700417e-16 
    2490    285.42177       16 1.6603232e-15            8            1            7 1.0695541e-16 
    2495    286.18272       16 1.6657008e-15            8            1            7 1.0690676e-16 
    2500    286.90674       16 1.6710976e-15            8            1            7 1.068582e-16 
    2505    287.63129       16 1.6765135e-15            8            1            7 1.0680976e-16 
    2510    288.42618       16 1.6819485e-15            8            1            7 1.0676142e-16 
    2515     289.1726       16 1.6874029e-15            8            1            7 1.0671319e-16 
    2520    289.94488       16 1.6928765e-15            8            1            7 1.0666506e-16 
    2525    290.70263       16 1.6983696e-15            8            1            7 1.0661705e-16 
    2530    291.45258       16 1.7038822e-15            8            1            7 1.0656915e-16 
    2535    292.21596       16 1.7094143e-15            8            1            7 1.0652136e-16 
    2540    292.99115       16 1.714966e-15            8            1            7 1.0647369e-16 
    2545    293.75296       16 1.7205374e-15            8            1            7 1.0642613e-16 
    2550    294.54395       16 1.7261286e-15            8            1            7 1.0637869e-16 
    2555    295.30981       16 1.7317396e-15            8            1            7 1.0633136e-16 
    2560    296.08934       16 1.7373705e-15            8            1            7 1.0628416e-16 
    2565    296.85249       16 1.7430213e-15            8            1            7 1.0623708e-16 
    2570    297.61319       16 1.7486922e-15            8            1            7 1.0619012e-16 
    2575    298.34771       16 1.7543832e-15            8            1            7 1.0614328e-16 
    2580    299.11654       16 1.7600943e-15            8            1            7 1.0609657e-16 
    2585    299.88663       16 1.7658258e-15            8            1            7 1.0604999e-16 
    2590     300.6484       16 1.7715775e-15            8            1            7 1.0600353e-16 
    2595    301.40903       16 1.7773496e-15            8            1            7 1.0595721e-16 
    2600    302.20594       16 1.7831422e-15            8            1            7 1.0591101e-16 
    2605    302.97708       16 1.7889554e-15            8            1            7 1.0586495e-16 
    2610    303.78546       16 1.7947891e-15            8            1            7 1.0581903e-16 
    2615    304.58567       16 1.8006435e-15            8            1            7 1.0577324e-16 
    2620    305.38141       16 1.8065187e-15            8            1            7 1.0572759e-16 
    2625    306.19311       16 1.8124147e-15            8            1            7 1.0568208e-16 
    2630    306.97343       16 1.8183317e-15            8            1            7 1.0563671e-16 
    2635    307.75931       16 1.8242696e-15            8            1            7 1.0559149e-16 
    2640    308.57812       16 1.8302285e-15            8            1            7 1.0554641e-16 
    2645    309.40828       16 1.8362086e-15            8            1            7 1.0550147e-16 
    2650     310.2213       16 1.8422099e-15            8            1            7 1.0545669e-16 
    2655    311.03379       16 1.8482325e-15            8            1            7 1.0541205e-16 
    2660     311.8223       16 1.8542765e-15            8            1            7 1.0536757e-16 
    2665    312.63285       16 1.8603418e-15            8            1            7 1.0532325e-16 
    2670    313.46701       16 1.8664287e-15            8            1            7 1.0527908e-16 
    2675    314.29081       16 1.8725372e-15            8            1            7 1.0523506e-16 
    2680    315.13861       16 1.8786673e-15            8            1            7 1.0519121e-16 
    2685    315.96212       16 1.8848192e-15            8            1            7 1.0514752e-16 
    2690    316.79766       16 1.8909928e-15            8            1            7  1.05104e-16 
    2695    317.60938       16 1.8971884e-15            8            1            7 1.0506064e-16 
    2700    318.47051       16 1.903406e-15            8            1            7 1.0501745e-16 
    2705     319.3006       16 1.9096456e-15            8            1            7 1.0497443e-16 
    2710    320.13419       16 1.9159073e-15            8            1            7 1.0493158e-16 
    2715    320.96598       16 1.9221912e-15            8            1            7 1.0488891e-16 
    2720    321.82721       16 1.9284975e-15            8            1            7 1.0484641e-16 
    2725    322.68372       17 1.9348261e-15            8            1            8 1.048041e-16 
    2730    323.52426       17 1.9411771e-15            8            1            8 1.0476196e-16 
    2735    324.38339       17 1.9475507e-15            8            1            8 1.0472001e-16 
    2740    325.21826       17 1.9539468e-15            8            1            8 1.0467825e-16 
    2745    326.05561       17 1.9603657e-15            8            1            8 1.0463667e-16 
    2750    326.88777       17 1.9668074e-15            8            1            8 1.0459529e-16 
    2755    327.72878       17 1.9732718e-15            8            1            8 1.045541e-16 
    2760    328.57804       17 1.9797593e-15            8            1            8 1.0451311e-16 
    2765    329.43498       17 1.9862697e-15            8            1            8 1.0447231e-16 
    2770     330.2656       17 1.9928032e-15            8            1            8 1.0443172e-16 
    2775    331.11413       17 1.9993599e-15            8            1            8 1.0439133e-16 
    2780    331.96231       17 2.0059399e-15            8            1            8 1.0435115e-16 
    2785    332.81539       17 2.0125432e-15            8            1            8 1.0431117e-16 
    2790    333.64844       17  2.01917e-15            8            1            8 1.0427141e-16 
    2795    334.52005       17 2.0258203e-15            8            1            8 1.0423186e-16 
    2800     335.3708       17 2.0324941e-15            8            1            8 1.0419253e-16 
    2805    336.22637       17 2.0391917e-15            8            1            8 1.0415342e-16 
    2810    337.11005       17 2.045913e-15            8            1            8 1.0411454e-16 
    2815    338.00809       17 2.0526582e-15            8            1            8 1.0407588e-16 
    2820    338.91641       18 2.0594273e-15            9            1            8 1.0403744e-16 
    2825    339.79425       19 2.0662204e-15            9            1            9 1.0399924e-16 
    2830     340.7065       19 2.0730377e-15            9            1            9 1.0396128e-16 
    2835    341.58767       19 2.0798791e-15            9            1            9 1.0392355e-16 
    2840    342.49582       19 2.0867449e-15            9            1            9 1.0388607e-16 
    2845    343.41933       19 2.093635e-15            9            1            9 1.0384883e-16 
    2850    344.30398       19 2.1005495e-15            9            1            9 1.0381183e-16 
    2855    345.21207       19 2.1074886e-15            9            1            9 1.0377509e-16 
    2860    346.09579       19 2.1144524e-15            9            1            9 1.037386e-16 
    2865    347.00656       19 2.1214409e-15            9            1            9 1.0370237e-16 
    2870    347.88595       19 2.1284541e-15            9            1            9 1.036664e-16 
    2875     348.7806       19 2.1354923e-15            9            1            9 1.0363069e-16 
    2880     349.6875       20 2.1425555e-15            9            1           10 1.0359525e-16 
    2885    350.59202       20 2.1496438e-15            9            1           10 1.0356009e-16 
    2890    351.48541       20 2.1567572e-15            9            1           10 1.0352519e-16 
    2895    352.38885       20 2.1638959e-15            9            1           10 1.0349058e-16 
    2900    353.29365       20 2.1710599e-15            9            1           10 1.0345625e-16 
    2905    354.21783       20 2.1782494e-15            9            1           10 1.034222e-16 
    2910    355.12987       20 2.1854645e-15            9            1           10 1.0338845e-16 
    2915    356.06408       20 2.1927051e-15            9            1           10 1.0335498e-16 
    2920    357.04176       21 2.1999715e-15           10            1           10 1.0332182e-16 
    2925    358.00712       21 2.2072637e-15           10            1           10 1.0328895e-16 
    2930    358.95958       21 2.2145818e-15           10            1           10 1.0325639e-16 
    2935    359.07831       22 2.2219258e-15           11            1           10 1.0322403e-16 
    2940    359.21148       22 2.2292956e-15           11            1           10 1.0319167e-16 
    2945    359.34559       22 2.2366912e-15           11            1           10 1.0315934e-16 
    2950    359.48007       22 2.2441129e-15           11            1           10 1.0312702e-16 
    2955    359.61061       22 2.2515606e-15           11            1           10 1.0309471e-16 
    2960    359.74548       22 2.2590345e-15           11            1           10 1.0306242e-16 
    2965    359.87658       22 2.2665347e-15           11            1           10 1.0303015e-16 
    2970    360.00991       22 2.2740612e-15           11            1           10 1.0299789e-16 
    2975    360.14362       22 2.2816141e-15           11            1           10 1.0296565e-16 
    2980    360.28261       22 2.2891935e-15           11            1           10 1.0293342e-16 
    2985    360.42248       22 2.2967996e-15           11            1           10 1.0290121e-16 
    2990    360.55116       22 2.3044324e-15           11            1           10 1.0286902e-16 
    2995    360.68147       23 2.312092e-15           11            1           11 1.0283684e-16 
    3000    360.83108       24 2.3197785e-15           12            1           11 1.0280467e-16 
    3005    360.97266       24 2.327492e-15           12            1           11 1.0277252e-16 
    3010    361.10425       24 2.3352326e-15           12            1           11 1.0274039e-16 
    3015    361.23811       24 2.3430004e-15           12            1           11 1.0270827e-16 
    3020    361.38527       24 2.3507954e-15           12            1           11 1.0267617e-16 
    3025    361.52358       24 2.3586178e-15           12            1           11 1.0264409e-16 
    3030    361.64771       24 2.3664677e-15           12            1           11 1.0261202e-16 
    3035    361.77189       24 2.3743452e-15           12            1           11 1.0257996e-16 
    3040    361.90895       24 2.3822503e-15           12            1           11 1.0254792e-16 
    3045    362.54864       24 2.3901832e-15           12            1           11 1.0251595e-16 
    3050    363.45326       25 2.3981443e-15           13            1           11 1.0248422e-16 
    3055    364.60757       25 2.4061336e-15           13            1           11 1.0245285e-16 
    3060    365.70244       25 2.4141513e-15           13            1           11 1.0242184e-16 
    3065    366.79965       25 2.4221975e-15           13            1           11 1.0239121e-16 
    3070    367.83373       25 2.4302723e-15           13            1           11 1.0236096e-16 
    3075    369.00594       26 2.4383758e-15           14            1           11 1.023311e-16 
    3080    370.09619       26 2.4465082e-15           14            1           11 1.0230162e-16 
    3085    371.24693       26 2.4546695e-15           14            1           11 1.0227253e-16 
    3090    372.30992       26 2.4628598e-15           14            1           11 1.0224384e-16 
    3095    373.33382       26 2.4710792e-15           14            1           11 1.0221555e-16 
    3100    374.38966       26 2.4793278e-15           14            1           11 1.0218766e-16 
    3105    375.48016       26 2.4876058e-15           14            1           11 1.0216018e-16 
    3110    376.55548       26 2.4959133e-15           14            1           11 1.0213311e-16 
    3115    377.68376       26 2.5042502e-15           14            1           11 1.0210646e-16 
    3120     378.7815       26 2.5126169e-15           14            1           11 1.0208023e-16 
    3125    379.84487       26 2.5210133e-15           14            1           11 1.0205443e-16 
    3130    380.89383       26 2.5294395e-15           14            1           11 1.0202906e-16 
    3135    381.92514       26 2.5378958e-15           14            1           11 1.0200413e-16 
    3140    383.05045       26 2.5463821e-15           14            1           11 1.0197964e-16 
    3145     384.1602       26 2.5548986e-15           14            1           11 1.0195559e-16 
    3150    385.29379       27 2.5634455e-15           14            1           12  1.01932e-16 
    3155    386.40852       27 2.5720227e-15           14            1           12 1.0190887e-16 
    3160    387.50538       27 2.5806305e-15           14            1           12 1.018862e-16 
    3165    388.64701       27 2.5892689e-15           14            1           12  1.01864e-16 
    3170    389.81302       27 2.597938e-15           14            1           12 1.0184227e-16 
    3175    390.95305       27 2.606638e-15           14            1           12 1.0182102e-16 
    3180    392.02583       27 2.615369e-15           14            1           12 1.0180026e-16 
    3185    393.09288       27 2.6241311e-15           14            1           12 1.0177999e-16 
    3190    394.19801       27 2.6329243e-15           14            1           12 1.0176023e-16 
    3195      395.298       27 2.6417489e-15           14            1           12 1.0174096e-16 
    3200    396.32017       27 2.6506048e-15           14            1           12 1.0172221e-16 
    3205    397.47182       27 2.6594924e-15           14            1           12 1.0170397e-16 
    3210     398.5862       27 2.6684115e-15           14            1           12 1.0168626e-16 
    3215    399.68933       27 2.6773625e-15           14            1           12 1.0166908e-16 
    3220    400.81124       27 2.6863453e-15           14            1           12 1.0165243e-16 
    3225    401.92326       27 2.6953601e-15           14            1           12 1.0163633e-16 
    3230    403.01124       28 2.7044071e-15           15            1           12 1.0162078e-16 
    3235    404.10242       28 2.7134863e-15           15            1           12 1.0160579e-16 
    3240    405.32127       28 2.7225978e-15           15            1           12 1.0159137e-16 
    3245    406.46054       28 2.7317418e-15           15            1           12 1.0157751e-16 
    3250    407.58963       28 2.7409184e-15           15            1           12 1.0156424e-16 
    3255    408.64762       28 2.7501277e-15           15            1           12 1.0155155e-16 
    3260    409.74772       28 2.7593698e-15           15            1           12 1.0153946e-16 
    3265    410.83946       28 2.7686449e-15           15            1           12 1.0152797e-16 
    3270     411.9864       28 2.777953e-15           15            1           12 1.0151709e-16 
    3275    413.12976       28 2.7872944e-15           15            1           12 1.0150683e-16 
    3280    414.30915       28 2.796669e-15           15            1           12 1.014972e-16 
    3285    415.49189       28 2.8060771e-15           15            1           12 1.014882e-16 
    3290    416.64197       28 2.8155188e-15           15            1           12 1.0147984e-16 
    3295    417.79626       28 2.8249941e-15           15            1           12 1.0147214e-16 
    3300    418.97365       28 2.8345032e-15           15            1           12 1.0146509e-16 
    3305    420.15494       28 2.8440463e-15           15            1           12 1.0145871e-16 
    3310     421.3596       30 2.8536234e-15           15            1           14 1.0145301e-16 
    3315    422.58768       30 2.8632347e-15           15            1           14 1.0144799e-16 
    3320    423.86108       30 2.8728804e-15           15            1           14 1.0144367e-16 
    3325    425.11548       30 2.8825604e-15           15            1           14 1.0144005e-16 
    3330    426.25836       30 2.892275e-15           15            1           14 1.0143714e-16 
    3335    427.43592       30 2.9020244e-15           15            1           14 1.0143496e-16 
    3340    428.65096       30 2.9118085e-15           15            1           14 1.0143351e-16 
    3345    429.86796       30 2.9216276e-15           15            1           14 1.014328e-16 
    3350    431.01648       30 2.9314816e-15           15            1           14 1.0143272e-16 
    3355     432.1703       30 2.9413702e-15           15            1           14 1.0143272e-16 
    3360    433.44935       30 2.9512933e-15           15            1           14 1.0143272e-16 
    3365    434.66803       30 2.9612511e-15           15            1           14 1.0143272e-16 
    3370    435.85321       30 2.9712437e-15           15            1           14 1.0143272e-16 
    3375    437.00043       30 2.9812713e-15           15            1           14 1.0143272e-16 
    3380    438.17193       30 2.9913338e-15           15            1           14 1.0143272e-16 
    3385    439.38429       30 3.0014316e-15           15            1           14 1.0143272e-16 
    3390    440.62615       30 3.0115647e-15           15            1           14 1.0143272e-16 
    3395    441.92128       30 3.0217332e-15           15            1           14 1.0143272e-16 
    3400    443.08817       30 3.0319372e-15           15            1           14 1.0143272e-16 
    3405    444.23496       30 3.0421772e-15           15            1           14 1.0143298e-16 
    3410     445.5846       30 3.0524527e-15           15            1           14 1.0143298e-16 
    3415    446.90553       30 3.0627643e-15           15            1           14 1.0143324e-16 
    3420    448.15807       30 3.0731118e-15           15            1           14 1.0143324e-16 
    3425    449.39904       30 3.0834954e-15           15            1           14 1.0143324e-16 
    3430    450.56623       30 3.0939156e-15           15            1           14 1.014335e-16 
    3435    451.75337       30 3.1043722e-15           15            1           14 1.0143376e-16 
    3440    453.00374       30 3.1148651e-15           15            1           14 1.0143376e-16 
    3445    454.23446       30 3.1253949e-15           15            1           14 1.0143401e-16 
    3450    455.45321       30 3.1359613e-15           15            1           14 1.0143401e-16 
    3455    456.66776       30 3.1465649e-15           15            1           14 1.0143427e-16 
    3460    457.96667       30 3.1572055e-15           15            1           14 1.0143453e-16 
    3465    459.20904       30 3.1678831e-15           15            1           14 1.0143453e-16 
    3470    460.48874       30 3.1785982e-15           15            1           14 1.0143478e-16 
    3475    461.70389       30 3.1893508e-15           15            1           14 1.0143504e-16 
    3480    462.92721       30 3.2001408e-15           15            1           14 1.0143504e-16 
    3485    464.14484       30 3.2109687e-15           15            1           14 1.014353e-16 
    3490    465.39298       30 3.2218344e-15           15            1           14 1.0143556e-16 
    3495    466.65007       30 3.2327382e-15           15            1           14 1.0143582e-16 
    3500     467.9076       30  3.24368e-15           15            1           14 1.0143608e-16 
    3505    469.14854       30 3.2546601e-15           15            1           14 1.0143634e-16 
    3510     470.4212       30 3.2656786e-15           15            1           14 1.014366e-16 
    3515    471.68359       30 3.2767356e-15           15            1           14 1.0143685e-16 
    3520    472.95165       30 3.2878313e-15           15            1           14 1.0143711e-16 
    3525    474.15554       31 3.2989657e-15           15            1           15 1.0143737e-16 
    3530    475.35553       31 3.310139e-15           15            1           15 1.0143763e-16 
    3535    476.59317       31 3.3213515e-15           15            1           15 1.0143789e-16 
    3540    477.83945       31 3.3326031e-15           15            1           15 1.0143817e-16 
    3545    479.14656       31 3.343894e-15           15            1           15 1.0143842e-16 
    3550    480.36907       31 3.3552244e-15           15            1           15 1.014387e-16 
    3555    481.68049       31 3.3665944e-15           15            1           15 1.0143896e-16 
    3560    482.94351       31 3.3780042e-15           15            1           15 1.0143922e-16 
    3565    484.29285       31 3.3894541e-15           15            1           15 1.0143974e-16 
    3570    485.65884       31 3.4009437e-15           15            1           15   1.0144e-16 
    3575    487.03191       31 3.4124736e-15           15            1           15 1.0144027e-16 
    3580    488.39662       31 3.4240437e-15           15            1           15 1.0144053e-16 
    3585    489.72341       31 3.4356545e-15           15            1           15 1.0144106e-16 
    3590    491.08033       31 3.4473057e-15           15            1           15 1.0144133e-16 
    3595    492.36821       31 3.4589978e-15           15            1           15 1.0144187e-16 
    3600    493.70059       32 3.4707306e-15           15            1           16 1.0144215e-16 
    3605    495.01852       32 3.4825046e-15           15            1           16 1.0144266e-16 
    3610    496.32097       32 3.4943195e-15           15            1           16 1.0144294e-16 
    3615    497.57317       32 3.506176e-15           15            1           16 1.0144347e-16 
    3620    498.72176       32 3.5180737e-15           15            1           16 1.0144373e-16 
    3625    499.87946       32 3.5300132e-15           15            1           16 1.0144425e-16 
    3630    501.06883       33 3.5419944e-15           15            1           17 1.0144477e-16 
    3635    502.21142       33 3.5540173e-15           15            1           17 1.0144504e-16 
    3640    503.35988       33 3.5660825e-15           15            1           17 1.0144558e-16 
    3645    504.52588       33 3.5781898e-15           15            1           17 1.0144613e-16 
    3650    505.72692       33 3.5903392e-15           15            1           17 1.0144641e-16 
    3655    506.91789       34 3.6025314e-15           16            1           17 1.0144698e-16 
    3660     508.1032       34 3.6147661e-15           16            1           17 1.0144751e-16 
    3665    509.31364       34 3.6270437e-15           16            1           17 1.0144805e-16 
    3670    510.60193       34 3.6393641e-15           16            1           17 1.0144862e-16 
    3675     511.8419       34 3.6517276e-15           16            1           17 1.0144917e-16 
    3680    513.02424       34 3.6641344e-15           16            1           17 1.0144971e-16 
    3685    514.23983       34 3.6765844e-15           16            1           17 1.0145026e-16 
    3690    515.46462       34 3.6890781e-15           16            1           17 1.0145082e-16 
    3695    516.72776       34 3.7016153e-15           16            1           17 1.0145134e-16 
    3700     518.0191       34 3.7141965e-15           16            1           17 1.0145191e-16 
    3705    519.21856       34 3.7268215e-15           16            1           17 1.0145246e-16 
    3710    520.45194       34 3.739491e-15           16            1           17 1.0145326e-16 
    3715    521.75503       34 3.7522045e-15           16            1           17 1.0145377e-16 
    3720    523.08645       34 3.7649627e-15           16            1           17 1.0145454e-16 
    3725    524.26813       35 3.7777652e-15           17            1           17 1.0145506e-16 
    3730    525.52145       35 3.7906127e-15           17            1           17 1.0145585e-16 
    3735     526.8912       35 3.8035049e-15           17            1           17 1.0145638e-16 
    3740    528.56825       35 3.816442e-15           17            1           17 1.0145665e-16 
    3745    528.83562       36 3.8294239e-15           18            1           17 1.0145665e-16 
    3750    529.10717       37 3.8424521e-15           19            1           17 1.0145742e-16 
    3755     529.3777       37 3.8555258e-15           19            1           17 1.014582e-16 
    3760    529.65794       37 3.8686449e-15           19            1           17 1.0145871e-16 
    3765     529.9363       37 3.8818102e-15           19            1           17 1.0145949e-16 
    3770    530.21606       37 3.8950215e-15           19            1           17 1.0146027e-16 
    3775    530.48747       37 3.908279e-15           19            1           17 1.0146104e-16 
    3780    530.77637       37 3.9215825e-15           19            1           17 1.0146156e-16 
    3785     531.0839       37 3.9349328e-15           19            1           17 1.0146233e-16 
    3790     531.3664       37 3.9483298e-15           19            1           17 1.014631e-16 
    3795    531.65761       37 3.9617737e-15           19            1           17 1.0146388e-16 
    3800    531.95746       37 3.9752645e-15           19            1           17 1.0146465e-16 
    3805    532.25388       37 3.9888022e-15           19            1           17 1.0146517e-16 
    3810    532.55728       37 4.0023876e-15           19            1           17 1.0146595e-16 
    3815    532.88954       38 4.0160204e-15           20            1           17 1.0146672e-16 
    3820     533.1876       38 4.0297009e-15           20            1           17 1.014675e-16 
    3825    533.50431       39 4.0434292e-15           21            1           17 1.0146828e-16 
    3830    533.81405       39 4.0572052e-15           21            1           17 1.0146879e-16 
    3835    534.28105       39 4.0710296e-15           21            1           17 1.0146957e-16 
    3840    535.78222       39 4.0849025e-15           21            1           17 1.0147045e-16 
    3845    537.30509       39 4.0988236e-15           21            1           17 1.0147104e-16 
    3850    538.76195       40 4.1127937e-15           22            1           17 1.0147195e-16 
    3855    540.21091       40 4.1268123e-15           22            1           17 1.0147257e-16 
    3860    541.59951       40 4.1408802e-15           22            1           17 1.0147351e-16 
    3865    543.03533       40 4.154997e-15           22            1           17 1.0147415e-16 
    3870     544.4455       40 4.1691635e-15           22            1           17 1.0147505e-16 
    3875    545.83176       40 4.1833794e-15           22            1           17 1.0147597e-16 
    3880    547.25134       40 4.197645e-15           22            1           17 1.0147685e-16 
    3885    548.61939       40 4.2119605e-15           22            1           17 1.0147772e-16 
    3890    550.02812       40 4.226326e-15           22            1           17 1.0147861e-16 
    3895    551.44551       41 4.2407418e-15           22            1           18 1.0147951e-16 
    3900    552.82433       41 4.2552079e-15           22            1           18 1.0148035e-16 
[...]
    4045    591.22423       44 4.6974277e-15           23            1           20 1.0147532e-16 
    4050    592.66073       44 4.713491e-15           23            1           20 1.0147677e-16 
    4055    594.20578       44 4.7296104e-15           23            1           20 1.0147824e-16 
    4060    595.75848       44 4.7457863e-15           23            1           20 1.0147972e-16 
    4065    599.71655       44 4.7620188e-15           23            1           20 1.0148135e-16 
    4070    600.07823       44 4.778308e-15           23            1           20 1.0148297e-16 
    4075    600.80888       44 4.7946541e-15           23            1           20 1.0148457e-16 
    4080    602.43531       44 4.8110574e-15           23            1           20 1.0148615e-16 
    4085    604.10464       45 4.827518e-15           24            1           20 1.0148774e-16 
    4090    605.64043       45 4.8440362e-15           24            1           20 1.0148935e-16 
    4095    607.26421       45 4.8606122e-15           24            1           20 1.0149098e-16 
    4100     608.8231       45 4.8772461e-15           24            1           20 1.0149264e-16 
    4105    610.48969       45 4.8939382e-15           24            1           20 1.0149431e-16 
    4110    612.01778       46 4.9106887e-15           24            1           21 1.0149601e-16 
    4115    613.68999       46 4.9274977e-15           24            1           21 1.0149773e-16 
    4120    615.37094       46 4.9443655e-15           24            1           21 1.0149947e-16 
    4125    617.11261       46 4.9612923e-15           24            1           21 1.0150124e-16 
    4130    618.93886       47 4.9782783e-15           24            1           22 1.0150302e-16 
    4135    620.63033       49 4.9953237e-15           24            1           24 1.0150483e-16 
    4140    631.61734       50 5.012429e-15           25            1           24 1.0150695e-16 
    4145    633.10886       50 5.0295942e-15           25            1           24 1.0150923e-16 
    4150    634.65575       51 5.0468191e-15           26            1           24 1.0151129e-16 
    4155    636.25434       51 5.0641043e-15           26            1           24 1.0151336e-16 
    4160    637.77217       51  5.08145e-15           26            1           24 1.0151545e-16 
    4165    639.33798       51 5.0988562e-15           26            1           24 1.0151757e-16 
    4170    640.84156       51 5.1163234e-15           26            1           24 1.0151972e-16 
    4175    642.41362       51 5.1338516e-15           26            1           24 1.0152189e-16 
    4180    643.97349       53 5.1514412e-15           28            1           24 1.0152408e-16 
    4185     645.5343       53 5.1690922e-15           28            1           24 1.015263e-16 
    4190     647.1836       53 5.186805e-15           28            1           24 1.0152855e-16 
    4195    648.71326       53 5.2045797e-15           28            1           24 1.0153083e-16 
    4200    650.29231       53 5.2224166e-15           28            1           24 1.0153313e-16 
    4205    651.87554       53 5.2403159e-15           28            1           24 1.0153546e-16 
    4210    653.44323       53 5.2582778e-15           28            1           24 1.0153782e-16 
    4215     655.0105       53 5.2763024e-15           28            1           24 1.0154021e-16 
    4220    656.64749       54 5.2943901e-15           28            1           25 1.0154262e-16 
    4225    658.28069       55 5.3125411e-15           29            1           25 1.0154506e-16 
    4230    659.94224       55 5.3307555e-15           29            1           25 1.0154754e-16 
    4235      661.778       55 5.3490337e-15           29            1           25 1.0155004e-16 
    4240    663.59312       55 5.3673758e-15           29            1           25 1.0155257e-16 
    4245    665.39197       55 5.385782e-15           29            1           25 1.0155513e-16 
    4250    667.20813       55 5.4042525e-15           29            1           25 1.0155772e-16 
    4255    668.88668       55 5.4227877e-15           29            1           25 1.0156035e-16 
    4260    670.81079       55 5.4413877e-15           29            1           25  1.01563e-16 
    4265    672.71016       55 5.4600528e-15           29            1           25 1.0156569e-16 
    4270     674.6975       55 5.4787831e-15           29            1           25 1.015684e-16 
    4275    676.52228       55 5.4975789e-15           29            1           25 1.0157115e-16 
    4280     678.3685       55 5.5164405e-15           29            1           25 1.0157394e-16 
    4285    680.08507       55 5.535368e-15           29            1           25 1.0157675e-16 
    4290    681.73661       55 5.5543617e-15           29            1           25 1.015796e-16 
    4295    683.37477       55 5.5734219e-15           29            1           25 1.0158248e-16 
    4300     685.1022       55 5.5925487e-15           29            1           25 1.015854e-16 
    4305    686.84404       55 5.6117424e-15           29            1           25 1.0158835e-16 
    4310    688.56503       55 5.6310032e-15           29            1           25 1.0159134e-16 
    4315    690.49113       56 5.6503314e-15           29            1           26 1.0159436e-16 
    4320    692.38325       56 5.6697272e-15           29            1           26 1.0159742e-16 
    4325     694.1573       56 5.6891908e-15           29            1           26 1.0160051e-16 
    4330     695.9217       56 5.7087225e-15           29            1           26 1.0160364e-16 
    4335    697.65351       57 5.7283225e-15           30            1           26 1.016068e-16 
    4340    699.37153       57 5.7479911e-15           30            1           26 1.0161001e-16 
    4345    701.12098       57 5.7677284e-15           30            1           26 1.0161325e-16 
    4350    702.98909       57 5.7875348e-15           30            1           26 1.0161652e-16 
    4355    704.76759       57 5.8074104e-15           30            1           26 1.0161984e-16 
    4360    706.68206       57 5.8273556e-15           30            1           26 1.0162319e-16 
    4365    708.68591       57 5.8473705e-15           30            1           26 1.0162659e-16 
    4370    710.57876       57 5.8674554e-15           30            1           26 1.0163002e-16 
    4375    712.44034       57 5.8876105e-15           30            1           26 1.016335e-16 
    4380    714.30777       57 5.9078362e-15           30            1           26 1.0163701e-16 
    4385     716.2068       57 5.9281326e-15           30            1           26 1.0164056e-16 
    4390    718.01997       57 5.9484999e-15           30            1           26 1.0164416e-16 
    4395     719.7925       57 5.9689386e-15           30            1           26 1.016478e-16 
    4400    721.58419       57 5.9894486e-15           30            1           26 1.0165148e-16 
    4405    723.37349       57 6.0100305e-15           30            1           26 1.016552e-16 
    4410    725.22264       57 6.0306843e-15           30            1           26 1.0165896e-16 
    4415    727.01084       57 6.0514103e-15           30            1           26 1.0166277e-16 
    4420    728.76477       59 6.0722089e-15           31            1           27 1.0166662e-16 
    4425    730.51189       59 6.0930802e-15           31            1           27 1.0167052e-16 
    4430    732.26172       59 6.1140245e-15           31            1           27 1.0167446e-16 
    4435    733.90168       59 6.135042e-15           31            1           27 1.0167844e-16 
    4440    735.54217       59 6.156133e-15           31            1           27 1.0168248e-16 
    4445     737.2436       59 6.1772979e-15           31            1           27 1.0168655e-16 
    4450    738.96357       59 6.1985367e-15           31            1           27 1.0169068e-16 
    4455    740.73115       59 6.2198498e-15           31            1           27 1.0169485e-16 
    4460    742.40379       59 6.2412375e-15           31            1           27 1.0169907e-16 
    4465    744.11613       61   6.2627e-15           32            1           28 1.0170333e-16 
    4470    745.81095       61 6.2842375e-15           32            1           28 1.0170765e-16 
    4475       747.66       61 6.3058504e-15           32            1           28 1.0171201e-16 
    4480    749.41531       61 6.3275389e-15           32            1           28 1.0171643e-16 
    4485     751.1276       61 6.3493032e-15           32            1           28 1.0172089e-16 
    4490    752.96227       61 6.3711437e-15           32            1           28 1.017254e-16 
    4495    754.71069       61 6.3930605e-15           32            1           28 1.0172997e-16 
    4500    756.42365       61 6.415054e-15           32            1           28 1.0173459e-16 
    4505    758.15336       61 6.4371245e-15           32            1           28 1.0173926e-16 
    4510     760.0284       61 6.4592721e-15           32            1           28 1.0174398e-16 
    4515    761.91667       61 6.4814972e-15           32            1           28 1.0174875e-16 
    4520     763.6494       61 6.5038001e-15           32            1           28 1.0175358e-16 
    4525     765.3789       61 6.5261809e-15           32            1           28 1.0175846e-16 
    4530    767.23965       61  6.54864e-15           32            1           28 1.017634e-16 
    4535    769.04549       61 6.5711777e-15           32            1           28 1.0176839e-16 
    4540    770.96126       61 6.5937943e-15           32            1           28 1.0177344e-16 
    4545    772.91688       61 6.6164899e-15           32            1           28 1.0177854e-16 
    4550    774.91188       62 6.6392649e-15           32            1           29 1.017837e-16 
    4555    779.49634       63 6.6621196e-15           32            1           30  1.01789e-16 
    4560    780.63715       64 6.6850544e-15           33            1           30 1.0179444e-16 
    4565    781.79698       65 6.7080693e-15           34            1           30 1.0179985e-16 
    4570     782.9562       65 6.7311646e-15           34            1           30 1.0180528e-16 
    4575    784.56994       66 6.7543407e-15           34            1           31 1.0181075e-16 
    4580    786.46584       66 6.7775979e-15           34            1           31 1.0181628e-16 
    4585    788.29359       66 6.8009365e-15           34            1           31 1.0182187e-16 
    4590    790.12355       66 6.8243566e-15           34            1           31 1.0182753e-16 
    4595    791.95769       66 6.8478587e-15           34            1           31 1.0183324e-16 
    4600    793.78686       66 6.871443e-15           34            1           31 1.0183902e-16 
    4605    795.65183       66 6.8951098e-15           34            1           31 1.0184486e-16 
    4610    797.51982       66 6.9188594e-15           34            1           31 1.0185076e-16 
    4615    799.37747       67 6.9426921e-15           35            1           31 1.0185673e-16 
    4620    801.24325       67 6.9666081e-15           35            1           31 1.0186277e-16 
    4625    803.09452       67 6.9906078e-15           35            1           31 1.0186887e-16 
    4630    804.95905       67 7.0146914e-15           35            1           31 1.0187503e-16 
    4635    806.87111       67 7.0388593e-15           35            1           31 1.0188127e-16 
    4640    808.93535       67 7.0631117e-15           35            1           31 1.0188757e-16 
    4645    811.08701       67 7.0874489e-15           35            1           31 1.0189394e-16 
    4650    813.04821       67 7.1118713e-15           35            1           31 1.0190038e-16 
    4655    815.17371       67 7.1363791e-15           35            1           31 1.0190689e-16 
    4660    816.87804       67 7.1609727e-15           35            1           31 1.0191347e-16 
    4665    817.70607       67 7.1856523e-15           35            1           31 1.0192011e-16 
    4670    817.81864       67 7.2104182e-15           35            1           31 1.0192675e-16 
    4675    817.93148       68 7.2352706e-15           35            1           32 1.019334e-16 
    4680    818.04544       69  7.26021e-15           35            1           33 1.0194004e-16 
    4685    818.33189       69 7.2852365e-15           35            1           33 1.0194669e-16 
    4690    819.72162       69 7.3103506e-15           35            1           33 1.0195335e-16 
    4695    820.31271       69 7.3355525e-15           35            1           33 1.0196006e-16 
    4700    820.42242       69 7.3608425e-15           35            1           33 1.0196677e-16 
    4705    820.53228       69 7.3862209e-15           35            1           33 1.0197349e-16 
    4710    822.20691       69 7.411688e-15           35            1           33 1.0198022e-16 
    4715    824.53424       69 7.4372443e-15           35            1           33 1.0198703e-16 
    4720    826.73792       70 7.4628899e-15           36            1           33 1.0199393e-16 
    4725    829.04655       70 7.4886253e-15           36            1           33 1.0200091e-16 
    4730    831.35796       70 7.5144507e-15           36            1           33 1.0200798e-16 
    4735    833.54792       70 7.5403664e-15           36            1           33 1.0201513e-16 
    4740    835.71343       71 7.5663729e-15           36            1           34 1.0202236e-16 
    4745    837.97191       71 7.5924702e-15           36            1           34 1.0202968e-16 
    4750    840.17909       71 7.6186589e-15           36            1           34 1.0203708e-16 
    4755    842.37231       71 7.6449392e-15           36            1           34 1.0204457e-16 
    4760     844.5614       71 7.6713115e-15           36            1           34 1.0205215e-16 
    4765    846.84049       71 7.697776e-15           36            1           34 1.0205981e-16 
    4770    848.98384       72 7.7243331e-15           37            1           34 1.0206756e-16 
    4775    851.15083       72 7.750983e-15           37            1           34 1.0207539e-16 
    4780    853.30815       72 7.7777263e-15           37            1           34 1.0208332e-16 
    4785     855.4527       73 7.804563e-15           37            1           35 1.0209133e-16 
    4790    857.85642       74 7.8314937e-15           38            1           35 1.0209943e-16 
    4795    860.30248       74 7.8585186e-15           38            1           35 1.0210762e-16 
    4800    862.57815       74 7.885638e-15           38            1           35 1.021159e-16 
    4805    864.88868       74 7.9128523e-15           38            1           35 1.0212427e-16 
    4810    867.18684       74 7.9401618e-15           38            1           35 1.0213273e-16 
    4815    869.47661       74 7.9675669e-15           38            1           35 1.0214129e-16 
    4820    872.09575       74 7.9950678e-15           38            1           35 1.0214993e-16 
    4825    875.05144       74 8.0226649e-15           38            1           35 1.0215868e-16 
    4830    877.73396       75 8.0503586e-15           39            1           35 1.0216751e-16 
    4835    880.35117       75 8.0781491e-15           39            1           35 1.0217644e-16 
    4840    883.11069       75 8.1060369e-15           39            1           35 1.0218547e-16 
    4845    885.74809       75 8.1340223e-15           39            1           35 1.0219459e-16 
    4850    888.47823       75 8.1621055e-15           39            1           35 1.0220382e-16 
    4855    891.03131       75 8.190287e-15           39            1           35 1.0221314e-16 
    4860     893.5609       75 8.2185672e-15           39            1           35 1.0222256e-16 
    4865      896.119       75 8.2469462e-15           39            1           35 1.0223208e-16 
    4870    898.71476       75 8.2754245e-15           39            1           35 1.022417e-16 
    4875    901.85573       75 8.3040025e-15           39            1           35 1.0225142e-16 
    4880     905.8456       77 8.3326804e-15           41            1           35 1.0226125e-16 
    4885    909.33981       78 8.3614587e-15           42            1           35 1.0227118e-16 
    4890    914.17989       78 8.3903376e-15           42            1           35 1.0228121e-16 
    4895    920.18951       78 8.4193176e-15           42            1           35 1.0229136e-16 
    4900    926.55702       79 8.448399e-15           43            1           35 1.023016e-16 
    4905     932.4349       79 8.4775821e-15           43            1           35 1.0231196e-16 
    4910    938.65166       81 8.5068673e-15           44            1           36 1.0232242e-16 
    4915    943.78821       82 8.536255e-15           44            1           37 1.0233299e-16 
    4920    949.38349       82 8.5657455e-15           44            1           37 1.0234368e-16 
    4925     954.6567       83 8.5953392e-15           44            1           38 1.0235447e-16 
    4930     959.9842       83 8.6250364e-15           44            1           38 1.0236538e-16 
    4935    965.44987       83 8.6548375e-15           44            1           38 1.023764e-16 
    4940    970.77085       84 8.6847429e-15           44            1           39 1.0238754e-16 
    4945    975.98942       84 8.7147529e-15           44            1           39 1.0239879e-16 
    4950     981.2372       84 8.7448679e-15           44            1           39 1.0241016e-16 
    4955    986.52179       84 8.7750883e-15           44            1           39 1.0242164e-16 
    4960    991.92491       84 8.8054144e-15           44            1           39 1.0243325e-16 
    4965    997.29719       84 8.8358466e-15           44            1           39 1.0244497e-16 
    4970     1002.675       84 8.8663853e-15           44            1           39 1.0245681e-16 
    4975    1008.0705       86 8.8970308e-15           45            1           40 1.0246878e-16 
    4980    1013.4553       87 8.9277836e-15           46            1           40 1.0248087e-16 
    4985    1018.9474       87 8.9586439e-15           46            1           40 1.0249308e-16 
    4990     1024.399       87 8.9896122e-15           46            1           40 1.0250542e-16 
    4995    1029.8768       87 9.0206889e-15           46            1           40 1.0251789e-16 
    5000    1035.3374       87 9.0518743e-15           46            1           40 1.0253048e-16 
Loop time of 1035.34 on 1 procs for 5000 steps with 87 atoms

Performance: 15021182.501 tau/day, 4.829 timesteps/s
99.2% CPU use with 1 MPI tasks x no OpenMP threads

MPI task timing breakdown:
Section |  min time  |  avg time  |  max time  |%varavg| %total
---------------------------------------------------------------
Pair    | 0.056474   | 0.056474   | 0.056474   |   0.0 |  0.01
Neigh   | 10.944     | 10.944     | 10.944     |   0.0 |  1.06
Comm    | 0.078442   | 0.078442   | 0.078442   |   0.0 |  0.01
Output  | 0.045258   | 0.045258   | 0.045258   |   0.0 |  0.00
Modify  | 1024.2     | 1024.2     | 1024.2     |   0.0 | 98.92
Other   |            | 0.02763    |            |       |  0.00

Nlocal:    87 ave 87 max 87 min
Histogram: 1 0 0 0 0 0 0 0 0 0
Nghost:    0 ave 0 max 0 min
Histogram: 1 0 0 0 0 0 0 0 0 0
Neighs:    367 ave 367 max 367 min
Histogram: 1 0 0 0 0 0 0 0 0 0

Total # of neighbors = 367
Ave neighs/atom = 4.21839
Neighbor list builds = 5000
Dangerous builds = 0


Total wall time: 0:17:21
