  Granular Flow Simulation 

       45 atoms 
       2 atom types 
       3 nutrients

   0.0   6.0e-05  xlo xhi 
   0.0   1.0e-04  ylo yhi 
   0.0   1.0e-04  zlo zhi 

 Atoms

     1 1 1.2e-6 290 1e-5 1e-5 5e-7 1.2e-6 hety
     2 2 1.2e-6 290 1e-5 2e-5 5e-7 1.2e-6 hetr
     3 1 1.2e-6 290 1e-5 3e-5 5e-7 1.2e-6 hety
     4 2 1.2e-6 290 1e-5 4e-5 5e-7 1.2e-6 hetr
     5 1 1.2e-6 290 1e-5 5e-5 5e-7 1.2e-6 hety
     6 2 1.2e-6 290 1e-5 6e-5 5e-7 1.2e-6 hetr
     7 1 1.2e-6 290 1e-5 7e-5 5e-7 1.2e-6 hety
     8 2 1.2e-6 290 1e-5 8e-5 5e-7 1.2e-6 hetr
     9 1 1.2e-6 290 1e-5 9e-5 5e-7 1.2e-6 hety
     10 2 1.2e-6 290 2e-5 1e-5 5e-7 1.2e-6 hetr
     11 1 1.2e-6 290 2e-5 2e-5 5e-7 1.2e-6 hety
     12 2 1.2e-6 290 2e-5 3e-5 5e-7 1.2e-6 hetr
     13 1 1.2e-6 290 2e-5 4e-5 5e-7 1.2e-6 hety
     14 2 1.2e-6 290 2e-5 5e-5 5e-7 1.2e-6 hetr
     15 1 1.2e-6 290 2e-5 6e-5 5e-7 1.2e-6 hety
     16 2 1.2e-6 290 2e-5 7e-5 5e-7 1.2e-6 hetr
     17 1 1.2e-6 290 2e-5 8e-5 5e-7 1.2e-6 hety
     18 2 1.2e-6 290 2e-5 9e-5 5e-7 1.2e-6 hetr
     19 1 1.2e-6 290 3e-5 1e-5 5e-7 1.2e-6 hety
     20 2 1.2e-6 290 3e-5 2e-5 5e-7 1.2e-6 hetr
     21 1 1.2e-6 290 3e-5 3e-5 5e-7 1.2e-6 hety
     22 2 1.2e-6 290 3e-5 4e-5 5e-7 1.2e-6 hetr
     23 1 1.2e-6 290 3e-5 5e-5 5e-7 1.2e-6 hety
     24 2 1.2e-6 290 3e-5 6e-5 5e-7 1.2e-6 hetr
     25 1 1.2e-6 290 3e-5 7e-5 5e-7 1.2e-6 hety
     26 2 1.2e-6 290 3e-5 8e-5 5e-7 1.2e-6 hetr
     27 1 1.2e-6 290 3e-5 9e-5 5e-7 1.2e-6 hety
     28 2 1.2e-6 290 4e-5 1e-5 5e-7 1.2e-6 hetr
     29 1 1.2e-6 290 4e-5 2e-5 5e-7 1.2e-6 hety
     30 2 1.2e-6 290 4e-5 3e-5 5e-7 1.2e-6 hetr
     31 1 1.2e-6 290 4e-5 4e-5 5e-7 1.2e-6 hety
     32 2 1.2e-6 290 4e-5 5e-5 5e-7 1.2e-6 hetr
     33 1 1.2e-6 290 4e-5 6e-5 5e-7 1.2e-6 hety
     34 2 1.2e-6 290 4e-5 7e-5 5e-7 1.2e-6 hetr
     35 1 1.2e-6 290 4e-5 8e-5 5e-7 1.2e-6 hety
     36 2 1.2e-6 290 4e-5 9e-5 5e-7 1.2e-6 hetr
     37 1 1.2e-6 290 5e-5 1e-5 5e-7 1.2e-6 hety
     38 2 1.2e-6 290 5e-5 2e-5 5e-7 1.2e-6 hetr
     39 1 1.2e-6 290 5e-5 3e-5 5e-7 1.2e-6 hety
     40 2 1.2e-6 290 5e-5 4e-5 5e-7 1.2e-6 hetr
     41 1 1.2e-6 290 5e-5 5e-5 5e-7 1.2e-6 hety
     42 2 1.2e-6 290 5e-5 6e-5 5e-7 1.2e-6 hetr
     43 1 1.2e-6 290 5e-5 7e-5 5e-7 1.2e-6 hety
     44 2 1.2e-6 290 5e-5 8e-5 5e-7 1.2e-6 hetr
     45 1 1.2e-6 290 5e-5 9e-5 5e-7 1.2e-6 hety


 Nutrients

     1 o2 l 3.13e-5 3.13e-5 3.13e-5 3.13e-5 3.13e-5 3.13e-5 3.13e-5
     2 h2o l 1 1 1 1 1 1 1
     3 h l 0 0 0 0 0 0 0

 Diffusion Coeffs
     
     o2 2e-9
     h2o 0
     h 0 

 Ks
     
     hety 9.38e-6 0 0
     hetr 1.88e-5 0 0

 Consumption Rate

     hety 0.000381111
     hetr 0.001524167

 Yield
    
     hety 0.0598373984
     hetr 0.0299186992

 Maintenance
 
     hety 0
     hetr 0

 eD
    
     hety 0
     hetr 0

 Decay

     hety 0
     hetr 0

 Catabolism Coeffs
         
     hety -1 1 0
     hetr -1 1 0

 Anabolism Coeffs
          
     hety 0 0 0
     hetr 0 0 0
 
 Decay Coeffs
           
     hety 0 0 0
     hetr 0 0 0
 
 Nutrient Energy

    o2 inf 16.4 inf inf inf 2
    h2o inf -237.18 -157.3 inf inf 2
    h inf 0 inf inf inf 2

 Type Energy

     hety inf -68 inf inf inf 2 
     hetr inf -67 inf inf inf 2

 Dissipation

     hety 0
     hetr 0


