NUFEB Simulation 

       41 atoms 
       3 atom types 

   0.000000e-04   1e-04  xlo xhi 
   0.000000e-04   0.4e-04  ylo yhi 
   0.000000e-04   1e-04  zlo zhi 

 Atoms 

     1 1 1.0e-6 150 0.5e-5 0.5e-5 1e-6 1.0e-6 1
     2 2 1.0e-6 150 1.5e-5 0.5e-5 1e-6 1.0e-6 1
     3 1 1.0e-6 150 2.5e-5 0.5e-5 1e-6 1.0e-6 1
     4 2 1.0e-6 150 3.5e-5 0.5e-5 1e-6 1.0e-6 1
     5 1 1.0e-6 150 4.5e-5 0.5e-5 1e-6 1.0e-6 1 
     6 2 1.0e-6 150 5.5e-5 0.5e-5 1e-6 1.0e-6 1
     7 1 1.0e-6 150 6.5e-5 0.5e-5 1e-6 1.0e-6 1
     8 2 1.0e-6 150 7.5e-5 0.5e-5 1e-6 1.0e-6 1
     9 1 1.0e-6 150 8.5e-5 0.5e-5 1e-6 1.0e-6 1
     10 2 1.0e-6 150 9.5e-5 0.5e-5 1e-6 1.0e-6 1
     11 1 1.0e-6 150 0.5e-5 1.5e-5 1e-6 1.0e-6 1
     12 2 1.0e-6 150 1.5e-5 1.5e-5 1e-6 1.0e-6 1
     13 1 1.0e-6 150 2.5e-5 1.5e-5 1e-6 1.0e-6 1
     14 2 1.0e-6 150 3.5e-5 1.5e-5 1e-6 1.0e-6 1
     15 1 1.0e-6 150 4.5e-5 1.5e-5 1e-6 1.0e-6 1
     16 2 1.0e-6 150 5.5e-5 1.5e-5 1e-6 1.0e-6 1
     17 1 1.0e-6 150 6.5e-5 1.5e-5 1e-6 1.0e-6 1
     18 2 1.0e-6 150 7.5e-5 1.5e-5 1e-6 1.0e-6 1
     19 1 1.0e-6 150 8.5e-5 1.5e-5 1e-6 1.0e-6 1
     20 2 1.0e-6 150 9.5e-5 1.5e-5 1e-6 1.0e-6 1
     21 1 1.0e-6 150 0.5e-5 2.5e-5 1e-6 1.0e-6 1
     22 2 1.0e-6 150 1.5e-5 2.5e-5 1e-6 1.0e-6 1
     23 1 1.0e-6 150 2.5e-5 2.5e-5 1e-6 1.0e-6 1
     24 2 1.0e-6 150 3.5e-5 2.5e-5 1e-6 1.0e-6 1
     25 1 1.0e-6 150 4.5e-5 2.5e-5 1e-6 1.0e-6 1
     26 2 1.0e-6 150 5.5e-5 2.5e-5 1e-6 1.0e-6 1
     27 1 1.0e-6 150 6.5e-5 2.5e-5 1e-6 1.0e-6 1
     28 2 1.0e-6 150 7.5e-5 2.5e-5 1e-6 1.0e-6 1
     29 1 1.0e-6 150 8.5e-5 2.5e-5 1e-6 1.0e-6 1
     30 2 1.0e-6 150 9.5e-5 2.5e-5 1e-6 1.0e-6 1
     31 1 1.0e-6 150 0.5e-5 3.5e-5 1e-6 1.0e-6 1
     32 2 1.0e-6 150 1.5e-5 3.5e-5 1e-6 1.0e-6 1
     33 1 1.0e-6 150 2.5e-5 3.5e-5 1e-6 1.0e-6 1
     34 2 1.0e-6 150 3.5e-5 3.5e-5 1e-6 1.0e-6 1
     35 1 1.0e-6 150 4.5e-5 3.5e-5 1e-6 1.0e-6 1
     36 2 1.0e-6 150 5.5e-5 3.5e-5 1e-6 1.0e-6 1
     37 1 1.0e-6 150 6.5e-5 3.5e-5 1e-6 1.0e-6 1
     38 2 1.0e-6 150 7.5e-5 3.5e-5 1e-6 1.0e-6 1
     39 1 1.0e-6 150 8.5e-5 3.5e-5 1e-6 1.0e-6 1
     40 2 1.0e-6 150 9.5e-5 3.5e-5 1e-6 1.0e-6 1
     41 2 1.0e-8 150 0.6e-5 0.5e-5 1e-6 1.0e-8 1  

