/*--------------------------------*- C++ -*----------------------------------*\
| =========                 |                                                 |
| \\      /  F ield         | OpenFOAM: The Open Source CFD Toolbox           |
|  \\    /   O peration     | Version:  2.3.0                                 |
|   \\  /    A nd           | Web:      www.OpenFOAM.org                      |
|    \\/     M anipulation  |                                                 |
\*---------------------------------------------------------------------------*/
FoamFile
{
    version     2.0;
    format      ascii;
    class       volVectorField;
    location    "0.0001";
    object      A_Source;
}
// * * * * * * * * * * * * * * * * * * * * * * * * * * * * * * * * * * * * * //

dimensions      [1 -2 -2 0 0 0 0];

internalField   nonuniform List<vector> 
100
(
(5688.64 1583.52 0)
(15052.8 4418.71 0)
(42911.3 13474.9 0)
(105654 36448.9 0)
(210452 83459.2 0)
(319088 156054 0)
(355984 232227 0)
(312162 273068 0)
(227756 251148 0)
(159453 200011 0)
(12725.3 3451.48 0)
(36208.4 10309.6 0)
(110504 33491.7 0)
(290179 96181 0)
(611300 232424 0)
(959352 453018 0)
(1.07052e+06 691115 0)
(926140 821586 0)
(656716 743775 0)
(435992 561159 0)
(29623.5 7848.79 0)
(90358.6 25023.9 0)
(294552 86411.2 0)
(824507 263224 0)
(1.83901e+06 671308 0)
(2.99116e+06 1.3638e+06 0)
(3.33455e+06 2.13118e+06 0)
(2.84868e+06 2.56369e+06 0)
(1.96819e+06 2.28929e+06 0)
(1.23573e+06 1.62876e+06 0)
(55488.9 14418.9 0)
(180289 48746.5 0)
(625540 178224 0)
(1.86605e+06 575168 0)
(4.41822e+06 1.54942e+06 0)
(7.46853e+06 3.28447e+06 0)
(8.3061e+06 5.25551e+06 0)
(7.01053e+06 6.40509e+06 0)
(4.72952e+06 5.65296e+06 0)
(2.79552e+06 3.76671e+06 0)
(72849 18711.4 0)
(247026 65759.4 0)
(897429 250508 0)
(2.81832e+06 845839 0)
(7.03327e+06 2.38626e+06 0)
(1.23217e+07 5.24926e+06 0)
(1.36549e+07 8.5659e+06 0)
(1.14117e+07 1.05672e+07 0)
(7.56016e+06 9.2526e+06 0)
(4.22792e+06 5.79275e+06 0)
(55467.9 14412.6 0)
(180244 48731.8 0)
(625432 178186 0)
(1.86582e+06 575080 0)
(4.41782e+06 1.54925e+06 0)
(7.46798e+06 3.28417e+06 0)
(8.30548e+06 5.2551e+06 0)
(7.00998e+06 6.40461e+06 0)
(4.72908e+06 5.65251e+06 0)
(2.79517e+06 3.76631e+06 0)
(29532.6 7821.95 0)
(90151.5 24958.8 0)
(294038 86236.8 0)
(823392 262805 0)
(1.83701e+06 670445 0)
(2.98831e+06 1.36231e+06 0)
(3.33139e+06 2.12908e+06 0)
(2.84583e+06 2.56125e+06 0)
(1.96597e+06 2.28696e+06 0)
(1.23403e+06 1.62673e+06 0)
(12373.8 3349.96 0)
(35363.6 10050.7 0)
(108303 32765.5 0)
(285193 94363.6 0)
(602044 228542 0)
(945907 446138 0)
(1.05554e+06 681210 0)
(912760 810083 0)
(646552 732947 0)
(428400 551974 0)
(4442.35 1231.78 0)
(11879 3471.35 0)
(34192 10681.9 0)
(84931.2 29135.3 0)
(170429 67201.4 0)
(259552 126353 0)
(289598 188657 0)
(253480 222134 0)
(184209 203846 0)
(128080 161242 0)
(1717.42 488.853 0)
(4287.2 1291.25 0)
(11577.8 3744.11 0)
(27122.1 9665.51 0)
(51788.6 21232.3 0)
(76534 38449.7 0)
(85306.2 56111.5 0)
(75634.3 65479 0)
(56501.5 61039.6 0)
(41130.7 50510.8 0)
)
;

boundaryField
{
    bottom_wall
    {
        type            zeroGradient;
    }
    top_wall
    {
        type            zeroGradient;
    }
    right_wall
    {
        type            zeroGradient;
    }
    left_wall
    {
        type            zeroGradient;
    }
    defaultFaces
    {
        type            empty;
    }
}


// ************************************************************************* //
