/*--------------------------------*- C++ -*----------------------------------*\
| =========                 |                                                 |
| \\      /  F ield         | OpenFOAM: The Open Source CFD Toolbox           |
|  \\    /   O peration     | Version:  2.3.0                                 |
|   \\  /    A nd           | Web:      www.OpenFOAM.org                      |
|    \\/     M anipulation  |                                                 |
\*---------------------------------------------------------------------------*/
FoamFile
{
    version     2.0;
    format      ascii;
    class       volSymmTensorField;
    location    "0.0001";
    object      B;
}
// * * * * * * * * * * * * * * * * * * * * * * * * * * * * * * * * * * * * * //

dimensions      [0 2 -2 0 0 0 0];

internalField   nonuniform List<symmTensor> 
100
(
(2.08888e-05 -0.000160866 -0 -0.00029482 -0 1.07568e-07)
(3.75341e-05 2.7849e-05 -0 -0.000399025 -0 8.33947e-08)
(3.82826e-05 0.000114363 -0 -0.000341339 -0 9.57207e-08)
(2.46437e-05 0.0001623 -0 -0.000224431 -0 1.03232e-07)
(8.63997e-06 0.000185289 -0 -8.07234e-05 -0 1.47552e-07)
(-6.90558e-06 0.000186635 -0 7.26907e-05 -0 3.1458e-07)
(-2.30547e-05 0.000165826 -0 0.000220086 -0 6.94825e-07)
(-3.70275e-05 0.000118759 -0 0.000342845 -0 1.21214e-06)
(-3.67695e-05 3.11155e-05 -0 0.000406354 -0 1.54898e-06)
(-2.08695e-05 -0.000163137 -0 0.000303798 -0 1.12921e-06)
(7.036e-05 -0.00016811 -0 -3.77962e-05 -0 2.2653e-07)
(9.31889e-05 2.53152e-05 -0 -6.55991e-05 -0 5.92509e-08)
(8.54088e-05 0.000109208 -0 -5.25186e-05 -0 1.30885e-07)
(5.53843e-05 0.00014807 -0 -3.15372e-05 -0 1.67584e-07)
(1.9814e-05 0.000165692 -0 -1.10667e-05 -0 1.74641e-07)
(-1.64605e-05 0.000166746 -0 9.01552e-06 -0 1.59126e-07)
(-5.31203e-05 0.000150885 -0 3.02225e-05 -0 1.25425e-07)
(-8.50068e-05 0.000112924 -0 5.24743e-05 -0 8.08571e-08)
(-9.49552e-05 2.83504e-05 -0 6.7248e-05 -0 3.16756e-08)
(-7.32869e-05 -0.000171379 -0 4.12735e-05 -0 1.6186e-07)
(0.000119257 -0.000208921 -0 -0.000102847 -0 3.5896e-07)
(0.000143422 2.70234e-05 -0 -0.000142172 -0 1.27163e-07)
(0.000122229 0.000127772 -0 -0.000114197 -0 1.89758e-07)
(7.74693e-05 0.000168929 -0 -6.95015e-05 -0 2.11846e-07)
(2.69214e-05 0.000184966 -0 -2.33393e-05 -0 2.11998e-07)
(-2.39874e-05 0.000185337 -0 2.21559e-05 -0 2.05809e-07)
(-7.50411e-05 0.000170171 -0 6.81687e-05 -0 1.95383e-07)
(-0.000121108 0.000130025 -0 0.000113516 -0 1.74694e-07)
(-0.000144711 2.93867e-05 -0 0.000143322 -0 1.27599e-07)
(-0.000122317 -0.000214289 -0 0.000107004 -0 3.29225e-07)
(0.000182423 -0.000284514 -0 -0.00017585 -0 6.8628e-07)
(0.000209198 4.34467e-05 -0 -0.000224843 -0 2.70972e-07)
(0.000167958 0.000177646 -0 -0.000171802 -0 3.53959e-07)
(0.000101281 0.000226129 -0 -0.00010005 -0 3.66837e-07)
(3.24045e-05 0.000241534 -0 -3.07866e-05 -0 3.55926e-07)
(-3.36268e-05 0.00024083 -0 3.45997e-05 -0 3.5389e-07)
(-0.000100445 0.000225086 -0 0.000100732 -0 3.62467e-07)
(-0.000165433 0.00017801 -0 0.000170234 -0 3.64009e-07)
(-0.000207627 4.51961e-05 -0 0.000223626 -0 3.12442e-07)
(-0.000182023 -0.000291435 -0 0.00017812 -0 6.89537e-07)
(0.00027882 -0.000393497 -0 -0.000273708 -0 1.38702e-06)
(0.000301171 8.29498e-05 -0 -0.000321954 -0 5.77921e-07)
(0.000224419 0.000259971 -0 -0.000227234 -0 6.99141e-07)
(0.000126412 0.000311126 -0 -0.000123628 -0 6.74613e-07)
(3.69245e-05 0.000322526 -0 -3.54425e-05 -0 6.29643e-07)
(-4.35684e-05 0.0003221 -0 4.32406e-05 -0 6.27724e-07)
(-0.000127791 0.000311465 -0 0.000126228 -0 6.69657e-07)
(-0.000220275 0.000263183 -0 0.000225341 -0 7.18222e-07)
(-0.000295779 8.81025e-05 -0 0.000319243 -0 6.58062e-07)
(-0.000272315 -0.000398258 -0 0.000274397 -0 1.39069e-06)
(0.000436812 -0.000552662 -0 -0.000455065 -0 2.90211e-06)
(0.000432897 0.000163262 -0 -0.000462537 -0 1.26272e-06)
(0.000287171 0.000382887 -0 -0.000282039 -0 1.3661e-06)
(0.000148606 0.000416754 -0 -0.000138465 -0 1.18207e-06)
(4.41408e-05 0.000412108 -0 -3.93872e-05 -0 1.0317e-06)
(-4.38322e-05 0.000412958 -0 4.25971e-05 -0 1.02096e-06)
(-0.000145901 0.000421313 -0 0.000139023 -0 1.15554e-06)
(-0.00028218 0.000393297 -0 0.000281202 -0 1.38583e-06)
(-0.000429705 0.000175725 -0 0.000463499 -0 1.47269e-06)
(-0.000432131 -0.000552699 -0 0.000463376 -0 3.13284e-06)
(0.000697446 -0.000801398 -0 -0.000813936 -0 6.39073e-06)
(0.000610975 0.000295467 -0 -0.000645415 -0 2.70595e-06)
(0.000324472 0.000508531 -0 -0.000299003 -0 2.20405e-06)
(0.000137751 0.000462366 -0 -0.000114275 -0 1.43506e-06)
(4.02049e-05 0.000413339 -0 -3.06594e-05 -0 1.0473e-06)
(-2.69915e-05 0.000413561 -0 2.50739e-05 -0 1.01485e-06)
(-0.00012552 0.000466234 -0 0.000110086 -0 1.32653e-06)
(-0.000316328 0.000519385 -0 0.000301089 -0 2.1054e-06)
(-0.000612801 0.000309492 -0 0.000663364 -0 3.20611e-06)
(-0.000699477 -0.000803834 -0 0.000856528 -0 8.52173e-06)
(0.00106298 -0.00134559 -0 -0.00104139 -0 1.72018e-05)
(0.000723649 0.000249581 -0 -0.000584719 -0 3.57723e-06)
(0.000213499 0.000240768 -0 -0.000129568 -0 7.04698e-07)
(2.16224e-05 -1.31638e-05 -0 8.36248e-06 -0 9.21109e-09)
(-4.71872e-07 -0.000149527 -0 1.01145e-05 -0 1.4305e-07)
(1.52605e-05 -0.00015164 -0 -1.98796e-05 -0 1.34659e-07)
(-9.84858e-06 -1.518e-05 -0 -1.61401e-05 -0 4.08607e-10)
(-0.000209655 0.000247698 -0 0.000133056 -0 4.15186e-07)
(-0.000727199 0.000265563 -0 0.000607804 -0 2.56796e-06)
(-0.00104673 -0.00137932 -0 0.00110084 -0 1.83464e-05)
(0.000723374 -0.00304804 -0 0.000288969 -0 7.45866e-05)
(0.00023211 -0.00134681 -0 0.000559472 -0 1.98832e-05)
(-0.000341845 -0.00179973 -0 0.000509666 -0 2.18065e-05)
(-0.000269794 -0.00228334 -0 0.000322915 -0 3.12819e-05)
(-6.26808e-05 -0.00247894 -0 0.000128687 -0 3.63482e-05)
(0.000140657 -0.00248234 -0 -6.03888e-05 -0 3.66654e-05)
(0.000335322 -0.00229224 -0 -0.000268657 -0 3.17247e-05)
(0.000383591 -0.00181044 -0 -0.000490499 -0 1.89736e-05)
(-0.000226872 -0.00135974 -0 -0.00057424 -0 6.25046e-06)
(-0.0005921 -0.00310079 -0 -0.000211354 -0 4.25176e-05)
(-0.00495346 -0.0100886 -0 0.00362808 -0 0.000542936)
(-0.000925628 -0.00859073 -0 0.00286925 -0 0.000493695)
(-0.000921359 -0.00815861 -0 0.00154533 -0 0.000381037)
(-0.000294012 -0.00799802 -0 0.000879341 -0 0.000360081)
(0.000177215 -0.00792365 -0 0.00051365 -0 0.00035692)
(0.000522663 -0.00792757 -0 0.000227703 -0 0.00035979)
(0.000990012 -0.00800238 -0 -0.000113068 -0 0.000372962)
(0.00165585 -0.00814885 -0 -0.000738976 -0 0.000392867)
(0.00177945 -0.00853552 -0 -0.00196983 -0 0.000387754)
(0.00651508 -0.0100855 -0 -0.00226095 -0 0.000868802)
)
;

boundaryField
{
    bottom_wall
    {
        type            calculated;
        value           nonuniform List<symmTensor> 10((2.07758e-05 -0.000163449 -0 -0.000581259 -0 2.02731e-27) (3.74427e-05 2.65789e-05 -0 -0.000767276 -0 2.63947e-27) (3.81788e-05 0.000121319 -0 -0.000660101 -0 2.31891e-27) (2.45354e-05 0.000175642 -0 -0.000436747 -0 1.59584e-27) (8.49039e-06 0.000201428 -0 -0.000157299 -0 1.46712e-27) (-7.21748e-06 0.000202859 -0 0.000142085 -0 5.47663e-27) (-2.37356e-05 0.000179392 -0 0.000427397 -0 2.09533e-26) (-3.82088e-05 0.00012597 -0 0.000660111 -0 4.4072e-26) (-3.8282e-05 2.99715e-05 -0 0.00077675 -0 5.94699e-26) (-2.19792e-05 -0.000165621 -0 0.000594115 -0 3.78544e-26));
    }
    top_wall
    {
        type            calculated;
        value           nonuniform List<symmTensor> 10((-0.00535563 -0.0161784 -0 0.0045346 -0 1.62571e-23) (-0.00138308 -0.0136678 -0 0.00312623 -0 1.31299e-23) (-0.00127122 -0.0121311 -0 0.00133337 -0 8.9496e-24) (-0.000638596 -0.0113793 -0 0.000538012 -0 7.69121e-24) (-0.000175449 -0.0110958 -0 0.000163617 -0 7.35533e-24) (0.00015901 -0.0110964 -0 -0.000115236 -0 7.39478e-24) (0.000602275 -0.0113573 -0 -0.000461961 -0 7.83207e-24) (0.00123246 -0.012061 -0 -0.00122051 -0 8.79763e-24) (0.00135914 -0.0135494 -0 -0.00300694 -0 9.928e-24) (0.00547109 -0.0160368 -0 -0.00450815 -0 1.79307e-23));
    }
    right_wall
    {
        type            calculated;
        value           nonuniform List<symmTensor> 10((-1.14749e-05 -0.000288691 -0 0.0003024 -0 1.66176e-26) (-5.54565e-05 -0.000297013 -0 4.10979e-05 -0 5.1479e-27) (-9.73164e-05 -0.000367937 -0 0.000106627 -0 8.94602e-27) (-0.000145988 -0.000505308 -0 0.000177321 -0 1.79252e-26) (-0.000222832 -0.000706022 -0 0.000272769 -0 3.59497e-26) (-0.000368972 -0.00101601 -0 0.000459664 -0 7.86363e-26) (-0.000627069 -0.00156898 -0 0.000846281 -0 2.05712e-25) (-0.00104292 -0.00277861 -0 0.001079 -0 5.35842e-25) (-0.000470967 -0.00516723 -0 -0.000252511 -0 1.37924e-24) (0.00980516 -0.0110873 -0 -0.00303265 -0 1.73741e-23));
    }
    left_wall
    {
        type            calculated;
        value           nonuniform List<symmTensor> 10((1.02349e-05 -0.000282886 -0 -0.00029485 -0 2.72313e-27) (5.17125e-05 -0.000288749 -0 -3.80088e-05 -0 5.3676e-27) (9.28024e-05 -0.000355076 -0 -0.000103159 -0 7.875e-27) (0.000144282 -0.000488643 -0 -0.000176426 -0 1.48047e-26) (0.00022676 -0.000691529 -0 -0.000274856 -0 3.01979e-26) (0.000368045 -0.00100739 -0 -0.000457406 -0 6.49928e-26) (0.000608441 -0.00155274 -0 -0.000818883 -0 1.53438e-25) (0.00102061 -0.00270147 -0 -0.00105533 -0 4.9448e-25) (0.000539604 -0.00506734 -0 0.000212782 -0 1.80217e-24) (-0.00955839 -0.01114 -0 0.00300613 -0 5.87138e-24));
    }
    defaultFaces
    {
        type            empty;
    }
}


// ************************************************************************* //
