/*--------------------------------*- C++ -*----------------------------------*\
| =========                 |                                                 |
| \\      /  F ield         | OpenFOAM: The Open Source CFD Toolbox           |
|  \\    /   O peration     | Version:  2.3.0                                 |
|   \\  /    A nd           | Web:      www.OpenFOAM.org                      |
|    \\/     M anipulation  |                                                 |
\*---------------------------------------------------------------------------*/
FoamFile
{
    version     2.0;
    format      ascii;
    class       volVectorField;
    location    "0.0001";
    object      gradp;
}
// * * * * * * * * * * * * * * * * * * * * * * * * * * * * * * * * * * * * * //

dimensions      [1 -2 -2 0 0 0 0];

internalField   nonuniform List<vector> 
100
(
(-1373.8 -67021.6 0)
(2251.35 -67190.2 0)
(11058 -56848.9 0)
(16860.1 -37816.6 0)
(19576.3 -13813.2 0)
(19804.6 12117.1 0)
(17447.5 36907 0)
(11764.6 57154 0)
(2796.5 68682.3 0)
(-1176.1 69293.2 0)
(1205.15 -33662 0)
(7921.32 -29201.7 0)
(18315.6 -23351.7 0)
(26175.5 -15461.5 0)
(30357.3 -5871.83 0)
(30915.6 4643.74 0)
(27589.4 15055.6 0)
(20010.7 24121.7 0)
(9342.76 31109.4 0)
(1787.02 36493.4 0)
(3086.52 -38700.2 0)
(12561.7 -34839 0)
(24798.2 -27866.8 0)
(34340 -18154.1 0)
(39681.6 -6719.36 0)
(40732 5813.6 0)
(36925.5 18544 0)
(27818.4 29938.7 0)
(15168.2 38428.6 0)
(4207.92 43564.5 0)
(5066.35 -57647.7 0)
(18754.8 -52172.3 0)
(35000.5 -41129.2 0)
(47322.9 -26070.3 0)
(54325 -8945.48 0)
(56179 9540.61 0)
(51714.5 28415.7 0)
(39895.3 45605.4 0)
(22968.5 58425.6 0)
(6922.83 65261.1 0)
(8561.95 -85854.3 0)
(29080.2 -75579.9 0)
(50900.2 -57517.6 0)
(66523.7 -35022.1 0)
(75292.5 -10895.2 0)
(78093.2 14096.4 0)
(72990.2 39511.8 0)
(57828.3 63821.3 0)
(34824 83486.4 0)
(11043.5 94729.8 0)
(15340.8 -128733 0)
(47091.5 -108565 0)
(75558.4 -78863.5 0)
(93945.3 -46153.3 0)
(103443 -13946.2 0)
(106586 17708.5 0)
(101439 50021.5 0)
(83870 83577.1 0)
(53877 114675 0)
(18166.2 135852 0)
(28729.8 -208434 0)
(78950 -159026 0)
(113312 -105860 0)
(131441 -59267.6 0)
(139154 -18868.1 0)
(142061 18804.7 0)
(138859 58463 0)
(122482 105201 0)
(87099.2 160437 0)
(32220.8 212789 0)
(64748.5 -415222 0)
(149666 -244779 0)
(175317 -133731 0)
(180937 -68673.1 0)
(181516 -22736.7 0)
(183917 17526.2 0)
(187836 62180 0)
(185844 127642 0)
(161464 243760 0)
(70517.5 424454 0)
(199173 -811791 0)
(360441 -342595 0)
(289419 -142221 0)
(242435 -64050 0)
(225354 -20594.5 0)
(226978 14233 0)
(248975 56772.6 0)
(304061 138258 0)
(383911 350183 0)
(212915 836032 0)
(533945 -527628 0)
(819235 -192856 0)
(453861 -68833.8 0)
(302564 -28413.1 0)
(259799 -8705.54 0)
(261284 6032.16 0)
(311861 25601.1 0)
(479254 68918.4 0)
(859239 200794 0)
(556367 544246 0)
)
;

boundaryField
{
    bottom_wall
    {
        type            zeroGradient;
    }
    top_wall
    {
        type            zeroGradient;
    }
    right_wall
    {
        type            zeroGradient;
    }
    left_wall
    {
        type            zeroGradient;
    }
    defaultFaces
    {
        type            empty;
    }
}


// ************************************************************************* //
