/*--------------------------------*- C++ -*----------------------------------*\
| =========                 |                                                 |
| \\      /  F ield         | OpenFOAM: The Open Source CFD Toolbox           |
|  \\    /   O peration     | Version:  2.3.0                                 |
|   \\  /    A nd           | Web:      www.OpenFOAM.org                      |
|    \\/     M anipulation  |                                                 |
\*---------------------------------------------------------------------------*/
FoamFile
{
    version     2.0;
    format      ascii;
    class       volScalarField;
    location    "0.0001";
    object      nut;
}
// * * * * * * * * * * * * * * * * * * * * * * * * * * * * * * * * * * * * * //

dimensions      [0 2 -1 0 0 0 0];

internalField   nonuniform List<scalar> 
100
(
3.77586e-10
3.32463e-10
3.56186e-10
3.69896e-10
4.42228e-10
6.45712e-10
9.59646e-10
1.2675e-09
1.43283e-09
1.22338e-09
5.47944e-10
2.80234e-10
4.16504e-10
4.71292e-10
4.81113e-10
4.59245e-10
4.07724e-10
3.27365e-10
2.04897e-10
4.63174e-10
6.89758e-10
4.10538e-10
5.01503e-10
5.29887e-10
5.30078e-10
5.22282e-10
5.08882e-10
4.81186e-10
4.11242e-10
6.60571e-10
9.53727e-10
5.99288e-10
6.84936e-10
6.97285e-10
6.86836e-10
6.84869e-10
6.93119e-10
6.94591e-10
6.43514e-10
9.55988e-10
1.35586e-09
8.75201e-10
9.62622e-10
9.45585e-10
9.13526e-10
9.12132e-10
9.42106e-10
9.7567e-10
9.33914e-10
1.35765e-09
1.96124e-09
1.29368e-09
1.3456e-09
1.25169e-09
1.16937e-09
1.16326e-09
1.23756e-09
1.35528e-09
1.3971e-09
2.03771e-09
2.91037e-09
1.8938e-09
1.70917e-09
1.37914e-09
1.17817e-09
1.15978e-09
1.32596e-09
1.67048e-09
2.0614e-09
3.36076e-09
4.77485e-09
2.17744e-09
9.6644e-10
1.10492e-10
4.35429e-10
4.22465e-10
2.32716e-11
7.41814e-10
1.84488e-09
4.93116e-09
9.94269e-09
5.13354e-09
5.37609e-09
6.43902e-09
6.94089e-09
6.9711e-09
6.48444e-09
5.01474e-09
2.87826e-09
7.50685e-09
2.68255e-08
2.55801e-08
2.24728e-08
2.18461e-08
2.175e-08
2.18372e-08
2.22334e-08
2.2819e-08
2.267e-08
3.39339e-08
)
;

boundaryField
{
    bottom_wall
    {
        type            calculated;
        value           nonuniform List<scalar> 10(5.18363e-30 5.91469e-30 5.5439e-30 4.59906e-30 4.40968e-30 8.51981e-30 1.66648e-29 2.41688e-29 2.80751e-29 2.23991e-29);
    }
    top_wall
    {
        type            calculated;
        value           nonuniform List<scalar> 10(4.64189e-28 4.17162e-28 3.4441e-28 3.19279e-28 3.1223e-28 3.13066e-28 3.2219e-28 3.41473e-28 3.62747e-28 4.87497e-28);
    }
    right_wall
    {
        type            calculated;
        value           nonuniform List<scalar> 10(1.48408e-29 8.26016e-30 1.0889e-29 1.54136e-29 2.18284e-29 3.22838e-29 5.22159e-29 8.42737e-29 1.35205e-28 4.79872e-28);
    }
    left_wall
    {
        type            calculated;
        value           nonuniform List<scalar> 10(6.00769e-30 8.43458e-30 1.02164e-29 1.40079e-29 2.00061e-29 2.93499e-29 4.50961e-29 8.09558e-29 1.54551e-28 2.78961e-28);
    }
    defaultFaces
    {
        type            empty;
    }
}


// ************************************************************************* //
