/*--------------------------------*- C++ -*----------------------------------*\
| =========                 |                                                 |
| \\      /  F ield         | OpenFOAM: The Open Source CFD Toolbox           |
|  \\    /   O peration     | Version:  2.3.0                                 |
|   \\  /    A nd           | Web:      www.OpenFOAM.org                      |
|    \\/     M anipulation  |                                                 |
\*---------------------------------------------------------------------------*/
FoamFile
{
    version     2.0;
    format      ascii;
    class       volScalarField;
    location    "0.0001";
    object      p;
}
// * * * * * * * * * * * * * * * * * * * * * * * * * * * * * * * * * * * * * //

dimensions      [1 -1 -2 0 0 0 0];

internalField   nonuniform List<scalar> 
100
(
-0.489076
-0.516552
-0.444049
-0.295391
-0.106846
0.0961353
0.289245
0.445085
0.524537
0.501015
-0.851355
-0.827252
-0.692928
-0.46094
-0.169419
0.146206
0.448894
0.697994
0.849109
0.884849
-1.16232
-1.10059
-0.911082
-0.604622
-0.224283
0.18901
0.590357
0.927519
1.14673
1.23088
-1.62536
-1.52403
-1.25026
-0.824022
-0.303806
0.262478
0.819775
1.29677
1.61768
1.75614
-2.31527
-2.14403
-1.73367
-1.12603
-0.403193
0.379822
1.15867
1.83963
2.31524
2.53611
-3.34245
-3.03563
-2.40062
-1.52446
-0.52171
0.544406
1.61001
2.57319
3.28741
3.65073
-4.88994
-4.31534
-3.31094
-2.04909
-0.682116
0.733992
2.1591
3.51117
4.60874
5.25315
-7.51112
-6.21615
-4.51781
-2.70982
-0.899072
0.920499
2.77927
4.67722
6.49616
7.90651
-13.1944
-9.21093
-5.98556
-3.42255
-1.13685
1.08452
3.4027
6.06401
9.48393
13.7422
-23.7469
-13.068
-7.36223
-3.99082
-1.31096
1.20516
3.91472
7.44238
13.4998
24.6272
)
;

boundaryField
{
    bottom_wall
    {
        type            fixedValue;
        value           uniform 0;
    }
    top_wall
    {
        type            zeroGradient;
    }
    right_wall
    {
        type            zeroGradient;
    }
    left_wall
    {
        type            zeroGradient;
    }
    defaultFaces
    {
        type            empty;
    }
}


// ************************************************************************* //
