/*--------------------------------*- C++ -*----------------------------------*\
| =========                 |                                                 |
| \\      /  F ield         | OpenFOAM: The Open Source CFD Toolbox           |
|  \\    /   O peration     | Version:  2.3.0                                 |
|   \\  /    A nd           | Web:      www.OpenFOAM.org                      |
|    \\/     M anipulation  |                                                 |
\*---------------------------------------------------------------------------*/
FoamFile
{
    version     2.0;
    format      ascii;
    class       surfaceScalarField;
    location    "0.0001";
    object      phia;
}
// * * * * * * * * * * * * * * * * * * * * * * * * * * * * * * * * * * * * * //

dimensions      [0 3 -1 0 0 0 0];

internalField   nonuniform List<scalar> 
180
(
-1.55771e-13
-4.36063e-14
-1.55027e-13
-4.52924e-14
-1.54031e-13
-4.75281e-14
-1.52509e-13
-5.08739e-14
-1.49858e-13
-5.63991e-14
-1.44717e-13
-6.64721e-14
-1.35942e-13
-8.57949e-14
-1.24717e-13
-1.09657e-13
-1.15422e-13
-1.31277e-13
-1.4292e-13
-1.56492e-13
-4.30825e-14
-1.55797e-13
-4.45851e-14
-1.54876e-13
-4.65964e-14
-1.53467e-13
-4.96639e-14
-1.50964e-13
-5.48634e-14
-1.45796e-13
-6.48038e-14
-1.36526e-13
-8.57086e-14
-1.2441e-13
-1.11544e-13
-1.14616e-13
-1.34531e-13
-1.46032e-13
-1.57349e-13
-4.28476e-14
-1.56685e-13
-4.41908e-14
-1.55819e-13
-4.60023e-14
-1.54506e-13
-4.88091e-14
-1.52151e-13
-5.3679e-14
-1.46989e-13
-6.34232e-14
-1.37275e-13
-8.60866e-14
-1.24293e-13
-1.14003e-13
-1.14067e-13
-1.38331e-13
-1.49527e-13
-1.58512e-13
-4.31546e-14
-1.5788e-13
-4.44055e-14
-1.57063e-13
-4.60871e-14
-1.55839e-13
-4.87071e-14
-1.5364e-13
-5.33213e-14
-1.48534e-13
-6.29135e-14
-1.38453e-13
-8.76132e-14
-1.24626e-13
-1.17784e-13
-1.14037e-13
-1.43376e-13
-1.54124e-13
-1.60395e-13
-4.4605e-14
-1.59847e-13
-4.60952e-14
-1.59115e-13
-4.80694e-14
-1.57999e-13
-5.10972e-14
-1.55973e-13
-5.63324e-14
-1.51025e-13
-6.69696e-14
-1.40797e-13
-9.35291e-14
-1.26327e-13
-1.25511e-13
-1.15483e-13
-1.51837e-13
-1.61819e-13
-1.63864e-13
-4.69487e-14
-1.63821e-13
-4.89262e-14
-1.63657e-13
-5.15053e-14
-1.63182e-13
-5.53686e-14
-1.61811e-13
-6.18192e-14
-1.57462e-13
-7.41323e-14
-1.47699e-13
-1.01021e-13
-1.33601e-13
-1.32901e-13
-1.22505e-13
-1.58801e-13
-1.68586e-13
-1.66536e-13
-4.93624e-14
-1.66635e-13
-5.17604e-14
-1.66559e-13
-5.48443e-14
-1.66081e-13
-5.93653e-14
-1.64554e-13
-6.6688e-14
-1.60053e-13
-7.99113e-14
-1.50537e-13
-1.05658e-13
-1.37253e-13
-1.35798e-13
-1.26609e-13
-1.60446e-13
-1.70836e-13
-1.68397e-13
-5.17235e-14
-1.68464e-13
-5.44801e-14
-1.68295e-13
-5.79907e-14
-1.6763e-13
-6.3043e-14
-1.65795e-13
-7.101e-14
-1.61086e-13
-8.47034e-14
-1.5188e-13
-1.08989e-13
-1.39488e-13
-1.37111e-13
-1.29407e-13
-1.60377e-13
-1.71226e-13
-1.69708e-13
-5.40888e-14
-1.69667e-13
-5.71853e-14
-1.69338e-13
-6.10965e-14
-1.68435e-13
-6.66186e-14
-1.6629e-13
-7.50939e-14
-1.61425e-13
-8.89847e-14
-1.52584e-13
-1.11728e-13
-1.41068e-13
-1.3778e-13
-1.31572e-13
-1.59634e-13
-1.7072e-13
-1.70665e-13
-1.70485e-13
-1.69968e-13
-1.68812e-13
-1.66372e-13
-1.61406e-13
-1.52986e-13
-1.42355e-13
-1.33476e-13
)
;

boundaryField
{
    bottom_wall
    {
        type            calculated;
        value           uniform 0;
    }
    top_wall
    {
        type            calculated;
        value           uniform 0;
    }
    right_wall
    {
        type            calculated;
        value           uniform 0;
    }
    left_wall
    {
        type            calculated;
        value           uniform 0;
    }
    defaultFaces
    {
        type            empty;
        value           nonuniform 0();
    }
}


// ************************************************************************* //
