/*--------------------------------*- C++ -*----------------------------------*\
| =========                 |                                                 |
| \\      /  F ield         | OpenFOAM: The Open Source CFD Toolbox           |
|  \\    /   O peration     | Version:  2.3.0                                 |
|   \\  /    A nd           | Web:      www.OpenFOAM.org                      |
|    \\/     M anipulation  |                                                 |
\*---------------------------------------------------------------------------*/
FoamFile
{
    version     2.0;
    format      ascii;
    class       surfaceScalarField;
    location    "0.0001";
    object      phib;
}
// * * * * * * * * * * * * * * * * * * * * * * * * * * * * * * * * * * * * * //

dimensions      [0 3 -1 0 0 0 0];

internalField   nonuniform List<scalar> 
180
(
-5.62694e-15
1.27959e-13
-3.01027e-14
1.7216e-13
-4.96899e-14
1.46529e-13
-6.15412e-14
9.6277e-14
-6.57248e-14
3.47136e-14
-6.2215e-14
-3.09672e-14
-5.07966e-14
-9.40055e-14
-3.12155e-14
-1.46614e-13
-6.22379e-15
-1.74674e-13
-1.31377e-13
-3.07651e-14
1.58725e-13
-8.25761e-14
2.23972e-13
-1.26305e-13
1.90259e-13
-1.53794e-13
1.23768e-13
-1.63615e-13
4.45367e-14
-1.55401e-13
-3.91793e-14
-1.2896e-13
-1.20449e-13
-8.53559e-14
-1.90222e-13
-3.25375e-14
-2.27497e-13
-1.63918e-13
-5.5691e-14
2.14416e-13
-1.32298e-13
3.00579e-13
-1.94625e-13
2.52588e-13
-2.33152e-13
1.62298e-13
-2.46442e-13
5.78289e-14
-2.34455e-13
-5.11684e-14
-1.97012e-13
-1.57904e-13
-1.3514e-13
-2.52113e-13
-5.78193e-14
-3.04837e-13
-2.21751e-13
-8.64909e-14
3.00907e-13
-1.97459e-13
4.11549e-13
-2.82736e-13
3.37865e-13
-3.32712e-13
2.12271e-13
-3.4838e-13
7.3485e-14
-3.31501e-13
-6.80693e-14
-2.8168e-13
-2.07759e-13
-1.97501e-13
-3.36335e-13
-8.73309e-14
-4.15052e-13
-3.09117e-13
-1.33937e-13
4.34845e-13
-2.92931e-13
5.70541e-13
-4.06e-13
4.50926e-13
-4.67641e-13
2.73878e-13
-4.8494e-13
9.07144e-14
-4.62956e-13
-9.01196e-14
-4.0015e-13
-2.70589e-13
-2.88831e-13
-4.47663e-13
-1.32276e-13
-5.71618e-13
-4.41432e-13
-2.13588e-13
6.48432e-13
-4.39914e-13
7.96863e-13
-5.82251e-13
5.93246e-13
-6.53283e-13
3.44856e-13
-6.73857e-13
1.11185e-13
-6.52182e-13
-1.1188e-13
-5.81376e-13
-3.41384e-13
-4.40387e-13
-5.88565e-13
-2.14392e-13
-7.97513e-13
-6.55815e-13
-3.49424e-13
9.97855e-13
-6.62608e-13
1.11004e-12
-8.18442e-13
7.49062e-13
-8.81332e-13
4.07701e-13
-8.9958e-13
1.29355e-13
-8.8716e-13
-1.24358e-13
-8.2908e-13
-3.9943e-13
-6.75623e-13
-7.41895e-13
-3.58795e-13
-1.11418e-12
-1.01455e-12
-5.60372e-13
1.55823e-12
-9.0488e-13
1.45455e-12
-9.92969e-13
8.37142e-13
-9.97599e-13
4.12307e-13
-9.95851e-13
1.27573e-13
-1.00482e-12
-1.15417e-13
-1.00676e-12
-3.97461e-13
-9.20706e-13
-8.27864e-13
-5.7268e-13
-1.46208e-12
-1.58716e-12
-5.27714e-13
2.08594e-12
-4.4116e-13
1.36799e-12
-2.27146e-13
6.23125e-13
-8.52376e-14
2.70395e-13
-3.82341e-14
8.05671e-14
-8.60886e-14
-6.75612e-14
-2.30148e-13
-2.5339e-13
-4.47081e-13
-6.109e-13
-5.33401e-13
-1.37571e-12
-2.12052e-12
2.08594e-12
3.45393e-12
4.07706e-12
4.34746e-12
4.42804e-12
4.36049e-12
4.10711e-12
3.49621e-12
2.12051e-12
)
;

boundaryField
{
    bottom_wall
    {
        type            fixedValue;
        value           uniform 0;
    }
    top_wall
    {
        type            fixedValue;
        value           uniform 0;
    }
    right_wall
    {
        type            fixedValue;
        value           uniform 0;
    }
    left_wall
    {
        type            fixedValue;
        value           uniform 0;
    }
    defaultFaces
    {
        type            empty;
        value           nonuniform 0();
    }
}


// ************************************************************************* //
