/*--------------------------------*- C++ -*----------------------------------*\
| =========                 |                                                 |
| \\      /  F ield         | OpenFOAM: The Open Source CFD Toolbox           |
|  \\    /   O peration     | Version:  2.3.0                                 |
|   \\  /    A nd           | Web:      www.OpenFOAM.org                      |
|    \\/     M anipulation  |                                                 |
\*---------------------------------------------------------------------------*/
FoamFile
{
    version     2.0;
    format      ascii;
    class       volVectorField;
    location    "0.0001";
    object      U;
}
// * * * * * * * * * * * * * * * * * * * * * * * * * * * * * * * * * * * * * //

dimensions      [0 1 -1 0 0 0 0];

internalField   nonuniform List<vector> 
100
(
(-2.55874e-05 0.00145315 0)
(-0.000182171 0.00191819 0)
(-0.000400015 0.00165025 0)
(-0.000563962 0.00109186 0)
(-0.000645375 0.000393239 0)
(-0.000648873 -0.000355218 0)
(-0.000573206 -0.00106849 0)
(-0.000411519 -0.00165027 0)
(-0.000191116 -0.00194187 0)
(-2.8697e-05 -0.00148529 0)
(-0.000129282 0.00149535 0)
(-0.000571796 0.00207203 0)
(-0.00106044 0.00176337 0)
(-0.00142437 0.001153 0)
(-0.00161245 0.00041525 0)
(-0.0016207 -0.00036829 0)
(-0.0014463 -0.00112412 0)
(-0.00108839 -0.00176328 0)
(-0.000595622 -0.00210229 0)
(-0.000138666 -0.00153871 0)
(-0.000232007 0.00183323 0)
(-0.000956424 0.00257467 0)
(-0.00166463 0.0021766 0)
(-0.00217643 0.00140878 0)
(-0.0024369 0.00050556 0)
(-0.00244334 -0.000443777 0)
(-0.00219499 -0.00136931 0)
(-0.00169128 -0.00217396 0)
(-0.000982646 -0.00261381 0)
(-0.000243356 -0.00189624 0)
(-0.000360707 0.00252693 0)
(-0.00145553 0.00349468 0)
(-0.00244925 0.00290684 0)
(-0.00313079 0.00184979 0)
(-0.00345768 0.00065052 0)
(-0.00345064 -0.000587721 0)
(-0.00311769 -0.0018033 0)
(-0.00244319 -0.00289578 0)
(-0.00146095 -0.00353332 0)
(-0.000365105 -0.00260479 0)
(-0.000566902 0.00359749 0)
(-0.00220502 0.004825 0)
(-0.00357127 0.00389736 0)
(-0.00444069 0.00241231 0)
(-0.00482716 0.000816569 0)
(-0.00480193 -0.000785985 0)
(-0.00438432 -0.00237167 0)
(-0.00351845 -0.00387046 0)
(-0.0021771 -0.00484454 0)
(-0.000557258 -0.00366882 0)
(-0.000920113 0.00527549 0)
(-0.00341366 0.00671835 0)
(-0.00523318 0.0051848 0)
(-0.00626909 0.003092 0)
(-0.00670537 0.0010109 0)
(-0.00669802 -0.00101348 0)
(-0.00625549 -0.00305736 0)
(-0.00522856 -0.00513919 0)
(-0.00342373 -0.00671562 0)
(-0.000922507 -0.00533161 0)
(-0.0015211 0.00817155 0)
(-0.00537727 0.00945956 0)
(-0.0075968 0.00672919 0)
(-0.00859609 0.00380787 0)
(-0.00895801 0.00122064 0)
(-0.00898607 -0.00120147 0)
(-0.00867692 -0.00374961 0)
(-0.00771846 -0.00666659 0)
(-0.00549692 -0.00946088 0)
(-0.00156762 -0.00826508 0)
(-0.00255152 0.0134643 0)
(-0.007874 0.0131922 0)
(-0.00974095 0.0081936 0)
(-0.00999978 0.00424825 0)
(-0.0099567 0.00132797 0)
(-0.00999312 -0.00125398 0)
(-0.0101074 -0.0041449 0)
(-0.00989441 -0.00812737 0)
(-0.00800847 -0.0133105 0)
(-0.00260722 -0.0137947 0)
(-0.00134901 0.0187248 0)
(-0.00509043 0.0153334 0)
(-0.00346372 0.00803075 0)
(-0.00146762 0.00372453 0)
(-0.000466423 0.00112112 0)
(-0.000482047 -0.00100144 0)
(-0.00150138 -0.00358895 0)
(-0.00350428 -0.00799336 0)
(-0.00513463 -0.0155067 0)
(-0.00117742 -0.0190557 0)
(0.023896 0.0113365 0)
(0.0296603 0.00781558 0)
(0.0377267 0.00333342 0)
(0.0423725 0.00134503 0)
(0.0441125 0.000409038 0)
(0.0441267 -0.000288094 0)
(0.0425222 -0.0011549 0)
(0.0381039 -0.00305126 0)
(0.0301977 -0.0075173 0)
(0.0245127 -0.0112703 0)
)
;

boundaryField
{
    bottom_wall
    {
        type            calculated;
        value           uniform (0 0 0);
    }
    top_wall
    {
        type            calculated;
        value           uniform (0.1 0 0);
    }
    right_wall
    {
        type            calculated;
        value           uniform (0 0 0);
    }
    left_wall
    {
        type            calculated;
        value           uniform (0 0 0);
    }
    defaultFaces
    {
        type            empty;
    }
}


// ************************************************************************* //
