/*--------------------------------*- C++ -*----------------------------------*\
| =========                 |                                                 |
| \\      /  F ield         | OpenFOAM: The Open Source CFD Toolbox           |
|  \\    /   O peration     | Version:  2.3.0                                 |
|   \\  /    A nd           | Web:      www.OpenFOAM.org                      |
|    \\/     M anipulation  |                                                 |
\*---------------------------------------------------------------------------*/
FoamFile
{
    version     2.0;
    format      ascii;
    class       volVectorField;
    location    "0.0001";
    object      Ua;
}
// * * * * * * * * * * * * * * * * * * * * * * * * * * * * * * * * * * * * * //

dimensions      [0 1 -1 0 0 0 0];

internalField   nonuniform List<vector> 
100
(
(0.946904 0.264236 0)
(0.940951 0.276804 0)
(0.932859 0.293455 0)
(0.920528 0.317999 0)
(0.899924 0.357211 0)
(0.863333 0.422444 0)
(0.800905 0.522647 0)
(0.720794 0.63073 0)
(0.64845 0.715289 0)
(0.606637 0.761192 0)
(0.949722 0.258275 0)
(0.944482 0.269544 0)
(0.937301 0.28463 0)
(0.926109 0.307424 0)
(0.906793 0.345122 0)
(0.870605 0.411334 0)
(0.804556 0.519584 0)
(0.717477 0.636689 0)
(0.640166 0.725278 0)
(0.598307 0.770326 0)
(0.95218 0.252991 0)
(0.947571 0.263073 0)
(0.941206 0.276701 0)
(0.931095 0.297745 0)
(0.913117 0.333693 0)
(0.87761 0.400369 0)
(0.808165 0.516681 0)
(0.714032 0.642811 0)
(0.631799 0.735124 0)
(0.59057 0.778654 0)
(0.954152 0.248673 0)
(0.950138 0.257578 0)
(0.944557 0.269731 0)
(0.935538 0.288883 0)
(0.919027 0.322689 0)
(0.884534 0.389227 0)
(0.81186 0.513848 0)
(0.710376 0.649245 0)
(0.62313 0.745051 0)
(0.583352 0.786268 0)
(0.955297 0.246119 0)
(0.951747 0.25406 0)
(0.946808 0.264931 0)
(0.938749 0.28229 0)
(0.923645 0.313796 0)
(0.890361 0.379546 0)
(0.815115 0.511489 0)
(0.707089 0.65499 0)
(0.61549 0.753534 0)
(0.577837 0.791958 0)
(0.954158 0.24866 0)
(0.950143 0.257568 0)
(0.944562 0.269722 0)
(0.935542 0.288875 0)
(0.91903 0.322683 0)
(0.884537 0.389222 0)
(0.811862 0.513847 0)
(0.710374 0.649248 0)
(0.623126 0.745056 0)
(0.583346 0.786274 0)
(0.952218 0.252913 0)
(0.947606 0.263002 0)
(0.941239 0.276635 0)
(0.931127 0.297685 0)
(0.913148 0.333638 0)
(0.877639 0.400326 0)
(0.808179 0.516669 0)
(0.714019 0.642833 0)
(0.631764 0.735167 0)
(0.590526 0.778704 0)
(0.949922 0.257856 0)
(0.944693 0.269116 0)
(0.937526 0.284188 0)
(0.926352 0.306972 0)
(0.907052 0.344674 0)
(0.870852 0.410962 0)
(0.804677 0.51948 0)
(0.717371 0.636882 0)
(0.639879 0.725629 0)
(0.597966 0.770705 0)
(0.947334 0.263333 0)
(0.941483 0.275721 0)
(0.933517 0.292164 0)
(0.921332 0.316495 0)
(0.90088 0.355554 0)
(0.864307 0.420977 0)
(0.801387 0.522233 0)
(0.720372 0.631494 0)
(0.647366 0.716616 0)
(0.605469 0.762487 0)
(0.944397 0.269444 0)
(0.937859 0.283037 0)
(0.929019 0.300926 0)
(0.915791 0.326772 0)
(0.894263 0.366942 0)
(0.857579 0.431055 0)
(0.798065 0.525117 0)
(0.723218 0.626316 0)
(0.654732 0.707556 0)
(0.613447 0.753597 0)
)
;

boundaryField
{
    bottom_wall
    {
        type            calculated;
        value           uniform (0 0 0);
    }
    top_wall
    {
        type            calculated;
        value           uniform (0 0 0);
    }
    right_wall
    {
        type            calculated;
        value           uniform (0 0 0);
    }
    left_wall
    {
        type            calculated;
        value           uniform (0 0 0);
    }
    defaultFaces
    {
        type            empty;
    }
}


// ************************************************************************* //
