/*--------------------------------*- C++ -*----------------------------------*\
| =========                 |                                                 |
| \\      /  F ield         | OpenFOAM: The Open Source CFD Toolbox           |
|  \\    /   O peration     | Version:  2.3.0                                 |
|   \\  /    A nd           | Web:      www.OpenFOAM.org                      |
|    \\/     M anipulation  |                                                 |
\*---------------------------------------------------------------------------*/
FoamFile
{
    version     2.0;
    format      ascii;
    class       volVectorField;
    location    "0.0001";
    object      Ub;
}
// * * * * * * * * * * * * * * * * * * * * * * * * * * * * * * * * * * * * * //

dimensions      [0 1 -1 0 0 0 0];

internalField   nonuniform List<vector> 
100
(
(-2.55872e-05 0.00145315 0)
(-0.000182171 0.00191819 0)
(-0.000400014 0.00165025 0)
(-0.000563959 0.00109187 0)
(-0.000645368 0.000393246 0)
(-0.000648863 -0.000355214 0)
(-0.000573193 -0.00106849 0)
(-0.000411507 -0.00165028 0)
(-0.000191105 -0.00194188 0)
(-2.86872e-05 -0.00148529 0)
(-0.000129281 0.00149535 0)
(-0.000571795 0.00207204 0)
(-0.00106044 0.00176337 0)
(-0.00142437 0.00115302 0)
(-0.00161245 0.000415271 0)
(-0.00162071 -0.000368279 0)
(-0.0014463 -0.00112413 0)
(-0.00108838 -0.0017633 0)
(-0.000595602 -0.00210232 0)
(-0.000138641 -0.00153872 0)
(-0.000232006 0.00183324 0)
(-0.000956422 0.00257467 0)
(-0.00166463 0.00217662 0)
(-0.00217645 0.00140883 0)
(-0.00243696 0.000505628 0)
(-0.00244346 -0.000443753 0)
(-0.0021951 -0.00136939 0)
(-0.00169133 -0.0021741 0)
(-0.000982625 -0.00261395 0)
(-0.000243291 -0.00189627 0)
(-0.000360705 0.00252694 0)
(-0.00145553 0.0034947 0)
(-0.00244926 0.0029069 0)
(-0.00313088 0.00184993 0)
(-0.00345798 0.000650707 0)
(-0.00345124 -0.000587709 0)
(-0.00311832 -0.00180365 0)
(-0.00244357 -0.00289638 0)
(-0.00146103 -0.00353391 0)
(-0.000364969 -0.00260499 0)
(-0.000566899 0.0035975 0)
(-0.00220502 0.00482504 0)
(-0.00357133 0.00389748 0)
(-0.00444095 0.00241258 0)
(-0.00482801 0.000816925 0)
(-0.00480371 -0.00078607 0)
(-0.00438628 -0.00237267 0)
(-0.00351979 -0.00387211 0)
(-0.0021776 -0.00484623 0)
(-0.00055708 -0.00366948 0)
(-0.000920112 0.0052755 0)
(-0.00341367 0.0067184 0)
(-0.00523326 0.00518493 0)
(-0.00626945 0.00309228 0)
(-0.00670645 0.00101124 0)
(-0.00670025 -0.00101361 0)
(-0.00625821 -0.00305856 0)
(-0.0052307 -0.00514135 0)
(-0.00342473 -0.00671798 0)
(-0.000922429 -0.00533268 0)
(-0.0015211 0.00817156 0)
(-0.00537729 0.0094596 0)
(-0.00759687 0.00672928 0)
(-0.00859637 0.00380805 0)
(-0.0089588 0.00122084 0)
(-0.00898764 -0.00120156 0)
(-0.00867895 -0.00375039 0)
(-0.00772027 -0.00666812 0)
(-0.00549791 -0.00946275 0)
(-0.00156767 -0.00826612 0)
(-0.00255152 0.0134643 0)
(-0.00787401 0.0131922 0)
(-0.00974099 0.00819364 0)
(-0.00999992 0.00424833 0)
(-0.00995703 0.00132805 0)
(-0.00999377 -0.00125402 0)
(-0.0101083 -0.00414522 0)
(-0.00989531 -0.00812809 0)
(-0.00800907 -0.0133116 0)
(-0.00260731 -0.0137955 0)
(-0.00134901 0.0187248 0)
(-0.00509043 0.0153334 0)
(-0.00346372 0.00803077 0)
(-0.00146761 0.00372455 0)
(-0.000466407 0.00112115 0)
(-0.000482019 -0.00100145 0)
(-0.00150138 -0.00358903 0)
(-0.00350435 -0.00799358 0)
(-0.00513474 -0.0155071 0)
(-0.00117742 -0.0190561 0)
(0.023896 0.0113365 0)
(0.0296603 0.00781558 0)
(0.0377268 0.00333343 0)
(0.0423726 0.00134503 0)
(0.0441127 0.000409044 0)
(0.0441271 -0.000288089 0)
(0.0425226 -0.0011549 0)
(0.0381043 -0.00305127 0)
(0.030198 -0.00751735 0)
(0.0245129 -0.0112704 0)
)
;

boundaryField
{
    bottom_wall
    {
        type            fixedValue;
        value           uniform (0 0 0);
    }
    top_wall
    {
        type            fixedValue;
        value           uniform (0.1 0 0);
    }
    right_wall
    {
        type            fixedValue;
        value           uniform (0 0 0);
    }
    left_wall
    {
        type            fixedValue;
        value           uniform (0 0 0);
    }
    defaultFaces
    {
        type            empty;
    }
}


// ************************************************************************* //
