/*--------------------------------*- C++ -*----------------------------------*\
| =========                 |                                                 |
| \\      /  F ield         | OpenFOAM: The Open Source CFD Toolbox           |
|  \\    /   O peration     | Version:  2.3.0                                 |
|   \\  /    A nd           | Web:      www.OpenFOAM.org                      |
|    \\/     M anipulation  |                                                 |
\*---------------------------------------------------------------------------*/
FoamFile
{
    version     2.0;
    format      ascii;
    class       volVectorField;
    location    "0.0001";
    object      Uc;
}
// * * * * * * * * * * * * * * * * * * * * * * * * * * * * * * * * * * * * * //

dimensions      [0 1 -1 0 0 0 0];

internalField   nonuniform List<vector> 
100
(
(2.5541e-07 7.12731e-08 0)
(6.75806e-07 1.98805e-07 0)
(1.92639e-06 6.05995e-07 0)
(4.74262e-06 1.63835e-06 0)
(9.44551e-06 3.74925e-06 0)
(1.43188e-05 7.00645e-06 0)
(1.59717e-05 1.04227e-05 0)
(1.4004e-05 1.22541e-05 0)
(1.02174e-05 1.12705e-05 0)
(7.15341e-06 8.9759e-06 0)
(5.71359e-07 1.5538e-07 0)
(1.62565e-06 4.6394e-07 0)
(4.96094e-06 1.50649e-06 0)
(1.30259e-05 4.32398e-06 0)
(2.74366e-05 1.04423e-05 0)
(4.30493e-05 2.03395e-05 0)
(4.8028e-05 3.10166e-05 0)
(4.15454e-05 3.68674e-05 0)
(2.94599e-05 3.33766e-05 0)
(1.95592e-05 2.51827e-05 0)
(1.33011e-06 3.53407e-07 0)
(4.05694e-06 1.12632e-06 0)
(1.32238e-05 3.88762e-06 0)
(3.70116e-05 1.18356e-05 0)
(8.25365e-05 3.01625e-05 0)
(0.000134211 6.12275e-05 0)
(0.000149583 9.56321e-05 0)
(0.00012777 0.000115026 0)
(8.82832e-05 0.000102721 0)
(5.54338e-05 7.30883e-05 0)
(2.49154e-06 6.49351e-07 0)
(8.09485e-06 2.19448e-06 0)
(2.80839e-05 8.01973e-06 0)
(8.37644e-05 2.58654e-05 0)
(0.000198275 6.96184e-05 0)
(0.000335035 0.000147428 0)
(0.000372493 0.000235761 0)
(0.000314351 0.000287299 0)
(0.000212101 0.0002536 0)
(0.00012539 0.000169006 0)
(3.27109e-06 8.42752e-07 0)
(1.10914e-05 2.96075e-06 0)
(4.02908e-05 1.1274e-05 0)
(0.000126508 3.80421e-05 0)
(0.000315599 0.00010722 0)
(0.000552618 0.000235572 0)
(0.00061218 0.000384146 0)
(0.000511545 0.000473854 0)
(0.000338973 0.000414999 0)
(0.000189619 0.000259883 0)
(2.4906e-06 6.49067e-07 0)
(8.0928e-06 2.19382e-06 0)
(2.8079e-05 8.01804e-06 0)
(8.37543e-05 2.58615e-05 0)
(0.000198257 6.96105e-05 0)
(0.00033501 0.000147414 0)
(0.000372466 0.000235742 0)
(0.000314325 0.000287278 0)
(0.000212081 0.00025358 0)
(0.000125374 0.000168988 0)
(1.32603e-06 3.52199e-07 0)
(4.04764e-06 1.12339e-06 0)
(1.32008e-05 3.87978e-06 0)
(3.69616e-05 1.18167e-05 0)
(8.24468e-05 3.01237e-05 0)
(0.000134083 6.11607e-05 0)
(0.000149441 9.55375e-05 0)
(0.000127642 0.000114917 0)
(8.81837e-05 0.000102617 0)
(5.53571e-05 7.29974e-05 0)
(5.55578e-07 1.50812e-07 0)
(1.58772e-06 4.52296e-07 0)
(4.86214e-06 1.47384e-06 0)
(1.28021e-05 4.24231e-06 0)
(2.70213e-05 1.02679e-05 0)
(4.2446e-05 2.00306e-05 0)
(4.73563e-05 3.05721e-05 0)
(4.09452e-05 3.63512e-05 0)
(2.90039e-05 3.28907e-05 0)
(1.92187e-05 2.47705e-05 0)
(1.99455e-07 5.5443e-08 0)
(5.33318e-07 1.56186e-07 0)
(1.53497e-06 4.80401e-07 0)
(3.81242e-06 1.30964e-06 0)
(7.64924e-06 3.01896e-06 0)
(1.16473e-05 5.67302e-06 0)
(1.29933e-05 8.46722e-06 0)
(1.13715e-05 9.96846e-06 0)
(8.26382e-06 9.14783e-06 0)
(5.74594e-06 7.23605e-06 0)
(7.71077e-08 2.19994e-08 0)
(1.92472e-07 5.80862e-08 0)
(5.19745e-07 1.68355e-07 0)
(1.21743e-06 4.34402e-07 0)
(2.32435e-06 9.53748e-07 0)
(3.43442e-06 1.72628e-06 0)
(3.82747e-06 2.51842e-06 0)
(3.39314e-06 2.9385e-06 0)
(2.53475e-06 2.73925e-06 0)
(1.84522e-06 2.26679e-06 0)
)
;

boundaryField
{
    bottom_wall
    {
        type            calculated;
        value           uniform (0 0 0);
    }
    top_wall
    {
        type            calculated;
        value           uniform (0 0 0);
    }
    right_wall
    {
        type            calculated;
        value           uniform (0 0 0);
    }
    left_wall
    {
        type            calculated;
        value           uniform (0 0 0);
    }
    defaultFaces
    {
        type            empty;
    }
}


// ************************************************************************* //
