/*--------------------------------*- C++ -*----------------------------------*\
| =========                 |                                                 |
| \\      /  F ield         | OpenFOAM: The Open Source CFD Toolbox           |
|  \\    /   O peration     | Version:  2.3.0                                 |
|   \\  /    A nd           | Web:      www.OpenFOAM.org                      |
|    \\/     M anipulation  |                                                 |
\*---------------------------------------------------------------------------*/
FoamFile
{
    version     2.0;
    format      ascii;
    class       volVectorField;
    location    "0.0001";
    object      Ur;
}
// * * * * * * * * * * * * * * * * * * * * * * * * * * * * * * * * * * * * * //

dimensions      [0 1 -1 0 0 0 0];

internalField   nonuniform List<vector> 
100
(
(0.946929 0.262783 0)
(0.941133 0.274886 0)
(0.933259 0.291804 0)
(0.921092 0.316907 0)
(0.900569 0.356818 0)
(0.863982 0.422799 0)
(0.801478 0.523715 0)
(0.721206 0.63238 0)
(0.648641 0.717231 0)
(0.606666 0.762677 0)
(0.949851 0.25678 0)
(0.945054 0.267472 0)
(0.938361 0.282867 0)
(0.927533 0.306271 0)
(0.908405 0.344707 0)
(0.872226 0.411703 0)
(0.806002 0.520709 0)
(0.718566 0.638452 0)
(0.640762 0.72738 0)
(0.598445 0.771865 0)
(0.952412 0.251158 0)
(0.948527 0.260498 0)
(0.94287 0.274524 0)
(0.933271 0.296336 0)
(0.915554 0.333187 0)
(0.880054 0.400813 0)
(0.81036 0.518051 0)
(0.715723 0.644985 0)
(0.632782 0.737738 0)
(0.590813 0.780551 0)
(0.954513 0.246146 0)
(0.951594 0.254084 0)
(0.947006 0.266824 0)
(0.938669 0.287033 0)
(0.922485 0.322038 0)
(0.887985 0.389815 0)
(0.814979 0.515652 0)
(0.712819 0.652142 0)
(0.624591 0.748585 0)
(0.583717 0.788873 0)
(0.955864 0.242522 0)
(0.953952 0.249235 0)
(0.950379 0.261033 0)
(0.94319 0.279877 0)
(0.928473 0.312979 0)
(0.895164 0.380332 0)
(0.819501 0.513862 0)
(0.710609 0.658862 0)
(0.617667 0.75838 0)
(0.578394 0.795627 0)
(0.955078 0.243384 0)
(0.953557 0.250849 0)
(0.949795 0.264537 0)
(0.941812 0.285783 0)
(0.925737 0.321671 0)
(0.891238 0.390236 0)
(0.81812 0.516905 0)
(0.715605 0.654389 0)
(0.626551 0.751774 0)
(0.584269 0.791607 0)
(0.953739 0.244741 0)
(0.952983 0.253542 0)
(0.948836 0.269906 0)
(0.939724 0.293877 0)
(0.922107 0.332417 0)
(0.886627 0.401528 0)
(0.816858 0.52042 0)
(0.721739 0.649501 0)
(0.637262 0.744629 0)
(0.592093 0.78697 0)
(0.952474 0.244392 0)
(0.952567 0.255924 0)
(0.947267 0.275995 0)
(0.936352 0.302723 0)
(0.917009 0.343346 0)
(0.880846 0.412216 0)
(0.814786 0.523625 0)
(0.727266 0.64501 0)
(0.647888 0.73894 0)
(0.600573 0.7845 0)
(0.948683 0.244608 0)
(0.946574 0.260387 0)
(0.936981 0.284133 0)
(0.9228 0.312771 0)
(0.901347 0.354433 0)
(0.864789 0.421979 0)
(0.802888 0.525822 0)
(0.723877 0.639487 0)
(0.6525 0.732124 0)
(0.606646 0.781543 0)
(0.920501 0.258107 0)
(0.908199 0.275222 0)
(0.891292 0.297593 0)
(0.873419 0.325427 0)
(0.85015 0.366533 0)
(0.813452 0.431343 0)
(0.755542 0.526272 0)
(0.685114 0.629367 0)
(0.624534 0.715073 0)
(0.588934 0.764868 0)
)
;

boundaryField
{
    bottom_wall
    {
        type            calculated;
        value           uniform (0 0 0);
    }
    top_wall
    {
        type            calculated;
        value           uniform (-0.1 0 0);
    }
    right_wall
    {
        type            calculated;
        value           uniform (0 0 0);
    }
    left_wall
    {
        type            calculated;
        value           uniform (0 0 0);
    }
    defaultFaces
    {
        type            empty;
    }
}


// ************************************************************************* //
