ITEM: TIMESTEP
0
ITEM: NUMBER OF ATOMS
10
ITEM: BOX BOUNDS ff ff ff
0.0000000000000000e+00 2.0000000000000001e-04
0.0000000000000000e+00 2.0000000000000001e-04
0.0000000000000000e+00 2.0000000000000001e-04
ITEM: ATOMS id type diameter x y z vx vy vz fx fy fz 
1 1 7.8e-07 0.0001 1e-05 3.9e-07 0 0 0 0 0 0 
2 2 7.8e-07 0.0001 3e-05 3.9e-07 0 0 0 0 0 0 
3 1 7.8e-07 0.0001 5e-05 3.9e-07 0 0 0 0 0 0 
4 2 7.8e-07 0.0001 7e-05 3.9e-07 0 0 0 0 0 0 
5 1 7.8e-07 0.0001 9e-05 3.9e-07 0 0 0 0 0 0 
6 2 7.8e-07 0.0001 0.00011 3.9e-07 0 0 0 0 0 0 
7 1 7.8e-07 0.0001 0.00013 3.9e-07 0 0 0 0 0 0 
8 2 7.8e-07 0.0001 0.00015 3.9e-07 0 0 0 0 0 0 
9 1 7.8e-07 0.0001 0.00017 3.9e-07 0 0 0 0 0 0 
10 2 7.8e-07 0.0001 0.00019 3.9e-07 0 0 0 0 0 0 
ITEM: TIMESTEP
1
ITEM: NUMBER OF ATOMS
10
ITEM: BOX BOUNDS ff ff ff
0.0000000000000000e+00 2.0000000000000001e-04
0.0000000000000000e+00 2.0000000000000001e-04
0.0000000000000000e+00 2.0000000000000001e-04
ITEM: ATOMS id type diameter x y z vx vy vz fx fy fz 
1 1 7.96079e-07 0.0001 1e-05 3.9e-07 0 0 2.77778e-12 0 0 1.60794e-05 
2 2 8.05787e-07 0.0001 3e-05 3.9e-07 0 0 2.77778e-12 0 0 2.57874e-05 
3 1 7.96079e-07 0.0001 5e-05 3.9e-07 0 0 2.77778e-12 0 0 1.60794e-05 
4 2 8.05787e-07 0.0001 7e-05 3.9e-07 0 0 2.77778e-12 0 0 2.57874e-05 
5 1 7.96079e-07 0.0001 9e-05 3.9e-07 0 0 2.77778e-12 0 0 1.60794e-05 
6 2 8.05787e-07 0.0001 0.00011 3.9e-07 0 0 2.77778e-12 0 0 2.57874e-05 
7 1 7.96079e-07 0.0001 0.00013 3.9e-07 0 0 2.77778e-12 0 0 1.60794e-05 
8 2 8.05787e-07 0.0001 0.00015 3.9e-07 0 0 2.77778e-12 0 0 2.57874e-05 
9 1 7.96079e-07 0.0001 0.00017 3.9e-07 0 0 2.77778e-12 0 0 1.60794e-05 
10 2 8.05787e-07 0.0001 0.00019 3.9e-07 0 0 2.77778e-12 0 0 2.57874e-05 
ITEM: TIMESTEP
2
ITEM: NUMBER OF ATOMS
20
ITEM: BOX BOUNDS ff ff ff
0.0000000000000000e+00 2.0000000000000001e-04
0.0000000000000000e+00 2.0000000000000001e-04
0.0000000000000000e+00 2.0000000000000001e-04
ITEM: ATOMS id type diameter x y z vx vy vz fx fy fz 
1 1 6.01077e-07 0.000100064 9.76749e-06 3.45145e-07 5.94669e-13 -2.17308e-12 -1.62485e-12 1.14156e-12 -4.17157e-12 -3.11916e-12 
2 2 6.48526e-07 0.00010011 2.98055e-05 3.94865e-07 1.08149e-12 -1.90766e-12 -1.70507e-12 7.00841e-12 -1.23623e-11 -1.10494e-11 
3 1 6.79161e-07 0.00010032 5.02158e-05 4.70202e-07 0 0 -2.77778e-12 0 0 -2.77778e-13 
4 2 6.17996e-07 9.993e-05 6.98582e-05 7.43505e-07 -8.98584e-13 -1.8194e-12 1.89694e-12 -1.25444e-11 -2.53992e-11 2.64816e-11 
5 1 6.08925e-07 0.000100042 8.99915e-05 3.49651e-07 5.5264e-13 -1.10103e-13 -2.72002e-12 7.83113e-12 -1.56021e-12 -3.85438e-11 
6 2 6.38247e-07 0.000100051 0.00011 7.87244e-07 7.56911e-13 -2.25201e-15 2.67266e-12 1.48228e-11 -4.41018e-14 5.23396e-11 
7 1 6.36783e-07 9.99978e-05 0.000129792 3.65647e-07 -2.26389e-14 -2.12912e-12 -1.78393e-12 -1.65417e-13 -1.55569e-11 -1.30347e-11 
8 2 6.85413e-07 9.97936e-05 0.000150209 4.17324e-07 -1.74632e-12 1.76717e-12 -1.24238e-12 -4.81792e-12 4.87544e-12 -3.42759e-12 
9 1 6.51613e-07 9.98151e-05 0.000169868 6.99745e-07 -1.8341e-12 -1.30758e-12 1.62554e-12 -1.11508e-11 -7.94971e-12 9.8828e-12 
10 2 6.32072e-07 0.000100105 0.000190181 3.84846e-07 1.0576e-12 1.81401e-12 -1.81849e-12 6.78759e-12 1.16421e-11 -1.16709e-11 
11 1 6.83415e-07 9.99277e-05 1.02644e-05 6.83582e-07 -6.30713e-13 2.3048e-12 1.41639e-12 -1.14156e-12 4.17157e-12 2.56361e-12 
12 2 6.72437e-07 9.98857e-05 3.02016e-05 7.39984e-07 -1.10203e-12 1.9439e-12 1.6501e-12 -7.00841e-12 1.23623e-11 1.04939e-11 
13 1 6.06493e-07 9.97146e-05 4.98073e-05 3.48255e-07 0 0 -2.77778e-12 0 0 -2.77778e-13 
14 2 6.98496e-07 0.000100079 7.01603e-05 4.25289e-07 8.8983e-13 1.80168e-12 -1.91787e-12 1.25444e-11 2.53992e-11 -2.70372e-11 
15 1 6.77208e-07 9.99528e-05 9.00094e-05 7.87827e-07 -5.60382e-13 1.11646e-13 2.71837e-12 -7.83113e-12 1.56021e-12 3.79883e-11 
16 2 6.81719e-07 9.99459e-05 0.00011 4.15075e-07 -7.49543e-13 2.23009e-15 -2.67474e-12 -1.48228e-11 4.41018e-14 -5.28951e-11 
17 1 6.52767e-07 0.000100002 0.000130213 7.10692e-07 2.30387e-14 2.16672e-12 1.73806e-12 1.65417e-13 1.55569e-11 1.24791e-11 
18 2 6.33981e-07 0.000100191 0.000149807 6.77035e-07 1.8008e-12 -1.8223e-12 1.07348e-12 4.81792e-12 -4.87544e-12 2.87203e-12 
19 1 6.37991e-07 0.000100181 0.000170129 3.66341e-07 1.79884e-12 1.28244e-12 -1.68391e-12 1.11508e-11 7.94971e-12 -1.04384e-11 
20 2 6.87038e-07 9.98855e-05 0.000189804 7.53699e-07 -1.07932e-12 -1.85125e-12 1.76748e-12 -6.78759e-12 -1.16421e-11 1.11153e-11 
ITEM: TIMESTEP
3
ITEM: NUMBER OF ATOMS
20
ITEM: BOX BOUNDS ff ff ff
0.0000000000000000e+00 2.0000000000000001e-04
0.0000000000000000e+00 2.0000000000000001e-04
0.0000000000000000e+00 2.0000000000000001e-04
ITEM: ATOMS id type diameter x y z vx vy vz fx fy fz 
1 1 6.13468e-07 0.000100066 9.75966e-06 3.39295e-07 6.14163e-13 -2.24432e-12 -1.5172e-12 7.84741e-13 -2.86765e-12 -1.93858e-12 
2 2 6.69967e-07 0.000100114 2.97987e-05 3.88726e-07 1.09191e-12 -1.92604e-12 -1.67754e-12 7.04472e-12 -1.24264e-11 -1.08231e-11 
3 1 6.93161e-07 0.00010032 5.02158e-05 4.60202e-07 0 0 2.77778e-12 0 0 2.77778e-13 
4 2 6.38427e-07 9.99267e-05 6.98517e-05 7.50334e-07 -8.94168e-13 -1.81046e-12 1.90755e-12 -1.2568e-11 -2.5447e-11 2.68117e-11 
5 1 6.21477e-07 0.000100044 8.99911e-05 3.39859e-07 5.56514e-13 -1.10875e-13 -2.7192e-12 7.50569e-12 -1.49537e-12 -3.66738e-11 
6 2 6.59348e-07 0.000100053 0.00011 7.96866e-07 7.53192e-13 -2.24095e-15 2.67371e-12 1.48458e-11 -4.41703e-14 5.27004e-11 
7 1 6.4991e-07 9.99977e-05 0.000129785 3.59225e-07 -2.28414e-14 -2.14816e-12 -1.76094e-12 -1.52124e-13 -1.43068e-11 -1.17279e-11 
8 2 7.08073e-07 9.97873e-05 0.000150215 4.12851e-07 -1.77513e-12 1.79632e-12 -1.15681e-12 -4.87597e-12 4.93418e-12 -3.17755e-12 
9 1 6.65046e-07 9.98085e-05 0.000169863 7.05597e-07 -1.81614e-12 -1.29477e-12 1.65567e-12 -1.00904e-11 -7.19371e-12 9.19882e-12 
10 2 6.52968e-07 0.000100109 0.000190187 3.78299e-07 1.0686e-12 1.83287e-12 -1.79297e-12 6.82085e-12 1.16991e-11 -1.14445e-11 
11 1 6.97503e-07 9.99254e-05 1.02727e-05 6.88681e-07 -6.11336e-13 2.23399e-12 1.5335e-12 -7.81136e-13 2.85448e-12 1.95943e-12 
12 2 6.94668e-07 9.98817e-05 3.02086e-05 7.45924e-07 -1.09159e-12 1.92548e-12 1.67839e-12 -7.04267e-12 1.24227e-11 1.08286e-11 
13 1 6.18996e-07 9.97146e-05 4.98073e-05 3.38255e-07 0 0 2.77778e-12 0 0 2.77778e-13 
14 2 7.21589e-07 0.000100082 7.01667e-05 4.18385e-07 8.9423e-13 1.81058e-12 -1.9074e-12 1.25689e-11 2.54488e-11 -2.68096e-11 
15 1 6.91169e-07 9.99508e-05 9.00098e-05 7.97614e-07 -5.56457e-13 1.10864e-13 2.71921e-12 -7.50492e-12 1.49521e-12 3.6674e-11 
16 2 7.04257e-07 9.99432e-05 0.00011 4.05445e-07 -7.53229e-13 2.24106e-15 -2.6737e-12 -1.48466e-11 4.41724e-14 -5.27002e-11 
17 1 6.66223e-07 0.000100002 0.000130221 7.16949e-07 2.28354e-14 2.1476e-12 1.76163e-12 1.52084e-13 1.4303e-11 1.17325e-11 
18 2 6.54941e-07 0.000100197 0.0001498 6.80899e-07 1.77314e-12 -1.79431e-12 1.16296e-12 4.87052e-12 -4.92867e-12 3.19444e-12 
19 1 6.51143e-07 0.000100187 0.000170134 3.60279e-07 1.81678e-12 1.29523e-12 -1.65462e-12 1.00939e-11 7.19623e-12 -9.19298e-12 
20 2 7.09752e-07 9.98817e-05 0.000189797 7.60062e-07 -1.06826e-12 -1.83228e-12 1.79377e-12 -6.81868e-12 -1.16954e-11 1.14496e-11 
ITEM: TIMESTEP
4
ITEM: NUMBER OF ATOMS
20
ITEM: BOX BOUNDS ff ff ff
0.0000000000000000e+00 2.0000000000000001e-04
0.0000000000000000e+00 2.0000000000000001e-04
0.0000000000000000e+00 2.0000000000000001e-04
ITEM: ATOMS id type diameter x y z vx vy vz fx fy fz 
1 1 6.26114e-07 0.000100068 9.75158e-06 3.33833e-07 6.12623e-13 -2.23869e-12 -1.52611e-12 4.96563e-13 -1.81457e-12 -1.23699e-12 
2 2 6.92117e-07 0.000100118 2.97917e-05 3.82687e-07 1.09175e-12 -1.92576e-12 -1.67797e-12 7.24475e-12 -1.27792e-11 -1.11349e-11 
3 1 7.0745e-07 0.00010032 5.02158e-05 4.70202e-07 0 0 -2.77778e-12 0 0 -2.77778e-13 
4 2 6.59534e-07 9.99235e-05 6.98451e-05 7.57201e-07 -8.94199e-13 -1.81052e-12 1.90748e-12 -1.27282e-11 -2.57714e-11 2.71515e-11 
5 1 6.34289e-07 0.000100046 8.99907e-05 3.3007e-07 5.56485e-13 -1.10869e-13 -2.71921e-12 7.24607e-12 -1.44364e-12 -3.54071e-11 
6 2 6.81146e-07 0.000100056 0.00011 8.06491e-07 7.53211e-13 -2.241e-15 2.67371e-12 1.4984e-11 -4.45813e-14 5.31894e-11 
7 1 6.63308e-07 9.99976e-05 0.000129777 3.52886e-07 -2.28384e-14 -2.14788e-12 -1.76129e-12 -1.41524e-13 -1.33099e-11 -1.09143e-11 
8 2 7.31483e-07 9.9781e-05 0.000150222 4.08687e-07 -1.77412e-12 1.7953e-12 -1.15994e-12 -5.19641e-12 5.25845e-12 -3.39748e-12 
9 1 6.78755e-07 9.9802e-05 0.000169859 7.11558e-07 -1.81647e-12 -1.29501e-12 1.65513e-12 -9.25078e-12 -6.59512e-12 8.42911e-12 
10 2 6.74556e-07 0.000100113 0.000190194 3.71845e-07 1.06843e-12 1.83257e-12 -1.79337e-12 7.01409e-12 1.20306e-11 -1.17732e-11 
11 1 7.11882e-07 9.99232e-05 1.02807e-05 6.94201e-07 -6.12972e-13 2.23996e-12 1.5241e-12 -4.96846e-13 1.81561e-12 1.23536e-12 
12 2 7.17634e-07 9.98778e-05 3.02156e-05 7.51966e-07 -1.09175e-12 1.92577e-12 1.67796e-12 -7.24478e-12 1.27792e-11 1.11348e-11 
13 1 6.31756e-07 9.97146e-05 4.98073e-05 3.48255e-07 0 0 -2.77778e-12 0 0 -2.77778e-13 
14 2 7.45445e-07 0.000100086 7.01733e-05 4.11519e-07 8.94199e-13 1.81052e-12 -1.90748e-12 1.27282e-11 2.57714e-11 -2.71515e-11 
15 1 7.05417e-07 9.99488e-05 9.00102e-05 8.07403e-07 -5.56486e-13 1.10869e-13 2.71921e-12 -7.24607e-12 1.44364e-12 3.54071e-11 
16 2 7.2754e-07 9.99404e-05 0.00011 3.9582e-07 -7.5321e-13 2.241e-15 -2.67371e-12 -1.4984e-11 4.45813e-14 -5.31894e-11 
17 1 6.79957e-07 0.000100002 0.000130229 7.23291e-07 2.28385e-14 2.14789e-12 1.76128e-12 1.41524e-13 1.33099e-11 1.09142e-11 
18 2 6.76594e-07 0.000100204 0.000149794 6.85086e-07 1.77419e-12 -1.79537e-12 1.15973e-12 5.19661e-12 -5.25865e-12 3.39687e-12 
19 1 6.64566e-07 0.000100194 0.000170138 3.54322e-07 1.81646e-12 1.295e-12 -1.65515e-12 9.25071e-12 6.59507e-12 -8.42922e-12 
20 2 7.33217e-07 9.98778e-05 0.00018979 7.66519e-07 -1.06843e-12 -1.83258e-12 1.79336e-12 -7.01412e-12 -1.20307e-11 1.17732e-11 
ITEM: TIMESTEP
5
ITEM: NUMBER OF ATOMS
20
ITEM: BOX BOUNDS ff ff ff
0.0000000000000000e+00 2.0000000000000001e-04
0.0000000000000000e+00 2.0000000000000001e-04
0.0000000000000000e+00 2.0000000000000001e-04
ITEM: ATOMS id type diameter x y z vx vy vz fx fy fz 
1 1 6.39021e-07 0.00010007 9.74353e-06 3.28339e-07 6.12839e-13 -2.23948e-12 -1.52486e-12 2.22775e-13 -8.14081e-13 -5.54308e-13 
2 2 7.14999e-07 0.000100122 2.97848e-05 3.76647e-07 1.09175e-12 -1.92576e-12 -1.67796e-12 7.50446e-12 -1.32373e-11 -1.1534e-11 
3 1 7.22034e-07 0.00010032 5.02158e-05 4.60202e-07 0 0 2.77778e-12 0 0 2.77778e-13 
4 2 6.81339e-07 9.99203e-05 6.98386e-05 7.64068e-07 -8.94199e-13 -1.81052e-12 1.90748e-12 -1.29358e-11 -2.61917e-11 2.75944e-11 
5 1 6.47364e-07 0.000100048 8.99903e-05 3.2028e-07 -4.60666e-13 9.17791e-14 2.73778e-12 -1.14476e-06 2.28073e-07 6.80341e-06 
6 2 7.03665e-07 0.000100059 0.00011 8.16117e-07 7.53211e-13 -2.241e-15 2.67371e-12 1.51622e-11 -4.51116e-14 5.3822e-11 
7 1 6.76982e-07 9.99975e-05 0.000129769 3.46545e-07 -2.28384e-14 -2.14788e-12 -1.76129e-12 -1.31404e-13 -1.23581e-11 -1.01338e-11 
8 2 7.55666e-07 9.97746e-05 0.000150228 4.04511e-07 -1.77415e-12 1.79533e-12 -1.15983e-12 -5.61499e-12 5.68202e-12 -3.67075e-12 
9 1 6.92748e-07 9.97954e-05 0.000169854 7.17516e-07 -1.81646e-12 -1.295e-12 1.65514e-12 -8.44589e-12 -6.0213e-12 7.6958e-12 
10 2 6.96857e-07 0.000100117 0.0001902 3.65389e-07 1.06843e-12 1.83258e-12 -1.79337e-12 7.26573e-12 1.24622e-11 -1.21956e-11 
11 1 7.26557e-07 9.9921e-05 1.02888e-05 6.99688e-07 -6.12744e-13 2.23913e-12 1.52542e-12 -2.22741e-13 8.13954e-13 5.54509e-13 
12 2 7.4136e-07 9.98739e-05 3.02225e-05 7.58007e-07 -1.09175e-12 1.92576e-12 1.67796e-12 -7.50445e-12 1.32373e-11 1.1534e-11 
13 1 6.44779e-07 9.97146e-05 4.98073e-05 3.38255e-07 0 0 2.77778e-12 0 0 2.77778e-13 
14 2 7.7009e-07 0.000100089 7.01798e-05 4.04652e-07 8.94199e-13 1.81052e-12 -1.90748e-12 1.29359e-11 2.61917e-11 -2.75944e-11 
15 1 7.19959e-07 9.99468e-05 9.00106e-05 8.17192e-07 -5.56486e-13 1.10869e-13 2.71921e-12 -6.99801e-12 1.39422e-12 3.4195e-11 
16 2 7.51593e-07 9.99377e-05 0.00011 3.86195e-07 -7.53211e-13 2.241e-15 -2.67371e-12 -1.51622e-11 4.51116e-14 -5.3822e-11 
17 1 6.93974e-07 0.000100003 0.000130236 7.29632e-07 2.28384e-14 2.14788e-12 1.76129e-12 1.31404e-13 1.23581e-11 1.01338e-11 
18 2 6.98963e-07 0.00010021 0.000149787 6.89261e-07 1.77415e-12 -1.79533e-12 1.15984e-12 5.61498e-12 -5.68202e-12 3.67077e-12 
19 1 6.78266e-07 0.000100201 0.000170143 3.48364e-07 1.81646e-12 1.295e-12 -1.65514e-12 8.4459e-12 6.0213e-12 -7.6958e-12 
20 2 7.57458e-07 9.9874e-05 0.000189784 7.72975e-07 -1.06843e-12 -1.83258e-12 1.79337e-12 -7.26573e-12 -1.24622e-11 1.21956e-11 
