ITEM: TIMESTEP
0
ITEM: NUMBER OF ATOMS
10
ITEM: BOX BOUNDS ff ff ff
0.0000000000000000e+00 2.0000000000000001e-04
0.0000000000000000e+00 2.0000000000000001e-04
0.0000000000000000e+00 2.0000000000000001e-04
ITEM: ATOMS id type diameter x y z vx vy vz fx fy fz 
1 1 7.8e-07 0.0001 1e-05 3.9e-07 0 0 0 0 0 0 
2 2 7.8e-07 0.0001 3e-05 3.9e-07 0 0 0 0 0 0 
3 1 7.8e-07 0.0001 5e-05 3.9e-07 0 0 0 0 0 0 
4 2 7.8e-07 0.0001 7e-05 3.9e-07 0 0 0 0 0 0 
5 1 7.8e-07 0.0001 9e-05 3.9e-07 0 0 0 0 0 0 
6 2 7.8e-07 0.0001 0.00011 3.9e-07 0 0 0 0 0 0 
7 1 7.8e-07 0.0001 0.00013 3.9e-07 0 0 0 0 0 0 
8 2 7.8e-07 0.0001 0.00015 3.9e-07 0 0 0 0 0 0 
9 1 7.8e-07 0.0001 0.00017 3.9e-07 0 0 0 0 0 0 
10 2 7.8e-07 0.0001 0.00019 3.9e-07 0 0 0 0 0 0 
ITEM: TIMESTEP
1
ITEM: NUMBER OF ATOMS
10
ITEM: BOX BOUNDS ff ff ff
0.0000000000000000e+00 2.0000000000000001e-04
0.0000000000000000e+00 2.0000000000000001e-04
0.0000000000000000e+00 2.0000000000000001e-04
ITEM: ATOMS id type diameter x y z vx vy vz fx fy fz 
1 1 7.8e-07 0.0001 1e-05 3.9e-07 0 0 2.77778e-12 0 0 6.35275e-19 
2 2 7.8e-07 0.0001 3e-05 3.9e-07 0 0 2.77778e-12 0 0 6.35275e-19 
3 1 7.8e-07 0.0001 5e-05 3.9e-07 0 0 2.77778e-12 0 0 6.35275e-19 
4 2 7.8e-07 0.0001 7e-05 3.9e-07 0 0 2.77778e-12 0 0 6.35275e-19 
5 1 7.8e-07 0.0001 9e-05 3.9e-07 0 0 2.77778e-12 0 0 6.35275e-19 
6 2 7.8e-07 0.0001 0.00011 3.9e-07 0 0 2.77778e-12 0 0 6.35275e-19 
7 1 7.8e-07 0.0001 0.00013 3.9e-07 0 0 2.77778e-12 0 0 6.35275e-19 
8 2 7.8e-07 0.0001 0.00015 3.9e-07 0 0 2.77778e-12 0 0 6.35275e-19 
9 1 7.8e-07 0.0001 0.00017 3.9e-07 0 0 2.77778e-12 0 0 6.35275e-19 
10 2 7.8e-07 0.0001 0.00019 3.9e-07 0 0 2.77778e-12 0 0 6.35275e-19 
ITEM: TIMESTEP
2
ITEM: NUMBER OF ATOMS
10
ITEM: BOX BOUNDS ff ff ff
0.0000000000000000e+00 2.0000000000000001e-04
0.0000000000000000e+00 2.0000000000000001e-04
0.0000000000000000e+00 2.0000000000000001e-04
ITEM: ATOMS id type diameter x y z vx vy vz fx fy fz 
1 1 7.8e-07 0.0001 1e-05 4e-07 0 0 -2.77778e-12 0 0 -2.77778e-13 
2 2 7.8e-07 0.0001 3e-05 4e-07 0 0 -2.77778e-12 0 0 -2.77778e-13 
3 1 7.8e-07 0.0001 5e-05 4e-07 0 0 -2.77778e-12 0 0 -2.77778e-13 
4 2 7.8e-07 0.0001 7e-05 4e-07 0 0 -2.77778e-12 0 0 -2.77778e-13 
5 1 7.8e-07 0.0001 9e-05 4e-07 0 0 -2.77778e-12 0 0 -2.77778e-13 
6 2 7.8e-07 0.0001 0.00011 4e-07 0 0 -2.77778e-12 0 0 -2.77778e-13 
7 1 7.8e-07 0.0001 0.00013 4e-07 0 0 -2.77778e-12 0 0 -2.77778e-13 
8 2 7.8e-07 0.0001 0.00015 4e-07 0 0 -2.77778e-12 0 0 -2.77778e-13 
9 1 7.8e-07 0.0001 0.00017 4e-07 0 0 -2.77778e-12 0 0 -2.77778e-13 
10 2 7.8e-07 0.0001 0.00019 4e-07 0 0 -2.77778e-12 0 0 -2.77778e-13 
ITEM: TIMESTEP
3
ITEM: NUMBER OF ATOMS
10
ITEM: BOX BOUNDS ff ff ff
0.0000000000000000e+00 2.0000000000000001e-04
0.0000000000000000e+00 2.0000000000000001e-04
0.0000000000000000e+00 2.0000000000000001e-04
ITEM: ATOMS id type diameter x y z vx vy vz fx fy fz 
1 1 7.8e-07 0.0001 1e-05 3.9e-07 0 0 2.77778e-12 0 0 2.7778e-13 
2 2 7.8e-07 0.0001 3e-05 3.9e-07 0 0 2.77778e-12 0 0 2.7778e-13 
3 1 7.8e-07 0.0001 5e-05 3.9e-07 0 0 2.77778e-12 0 0 2.7778e-13 
4 2 7.8e-07 0.0001 7e-05 3.9e-07 0 0 2.77778e-12 0 0 2.7778e-13 
5 1 7.8e-07 0.0001 9e-05 3.9e-07 0 0 2.77778e-12 0 0 2.7778e-13 
6 2 7.8e-07 0.0001 0.00011 3.9e-07 0 0 2.77778e-12 0 0 2.7778e-13 
7 1 7.8e-07 0.0001 0.00013 3.9e-07 0 0 2.77778e-12 0 0 2.7778e-13 
8 2 7.8e-07 0.0001 0.00015 3.9e-07 0 0 2.77778e-12 0 0 2.7778e-13 
9 1 7.8e-07 0.0001 0.00017 3.9e-07 0 0 2.77778e-12 0 0 2.7778e-13 
10 2 7.8e-07 0.0001 0.00019 3.9e-07 0 0 2.77778e-12 0 0 2.7778e-13 
ITEM: TIMESTEP
4
ITEM: NUMBER OF ATOMS
10
ITEM: BOX BOUNDS ff ff ff
0.0000000000000000e+00 2.0000000000000001e-04
0.0000000000000000e+00 2.0000000000000001e-04
0.0000000000000000e+00 2.0000000000000001e-04
ITEM: ATOMS id type diameter x y z vx vy vz fx fy fz 
1 1 7.8e-07 0.0001 1e-05 4e-07 0 0 -2.77778e-12 0 0 -2.77778e-13 
2 2 7.8e-07 0.0001 3e-05 4e-07 0 0 -2.77778e-12 0 0 -2.77778e-13 
3 1 7.8e-07 0.0001 5e-05 4e-07 0 0 -2.77778e-12 0 0 -2.77778e-13 
4 2 7.8e-07 0.0001 7e-05 4e-07 0 0 -2.77778e-12 0 0 -2.77778e-13 
5 1 7.8e-07 0.0001 9e-05 4e-07 0 0 -2.77778e-12 0 0 -2.77778e-13 
6 2 7.8e-07 0.0001 0.00011 4e-07 0 0 -2.77778e-12 0 0 -2.77778e-13 
7 1 7.8e-07 0.0001 0.00013 4e-07 0 0 -2.77778e-12 0 0 -2.77778e-13 
8 2 7.8e-07 0.0001 0.00015 4e-07 0 0 -2.77778e-12 0 0 -2.77778e-13 
9 1 7.8e-07 0.0001 0.00017 4e-07 0 0 -2.77778e-12 0 0 -2.77778e-13 
10 2 7.8e-07 0.0001 0.00019 4e-07 0 0 -2.77778e-12 0 0 -2.77778e-13 
ITEM: TIMESTEP
5
ITEM: NUMBER OF ATOMS
10
ITEM: BOX BOUNDS ff ff ff
0.0000000000000000e+00 2.0000000000000001e-04
0.0000000000000000e+00 2.0000000000000001e-04
0.0000000000000000e+00 2.0000000000000001e-04
ITEM: ATOMS id type diameter x y z vx vy vz fx fy fz 
1 1 7.8e-07 0.0001 1e-05 3.9e-07 0 0 2.77778e-12 0 0 2.77781e-13 
2 2 7.8e-07 0.0001 3e-05 3.9e-07 0 0 2.77778e-12 0 0 2.77781e-13 
3 1 7.8e-07 0.0001 5e-05 3.9e-07 0 0 2.77778e-12 0 0 2.77781e-13 
4 2 7.8e-07 0.0001 7e-05 3.9e-07 0 0 2.77778e-12 0 0 2.77781e-13 
5 1 7.8e-07 0.0001 9e-05 3.9e-07 0 0 2.77778e-12 0 0 2.77781e-13 
6 2 7.8e-07 0.0001 0.00011 3.9e-07 0 0 2.77778e-12 0 0 2.77781e-13 
7 1 7.8e-07 0.0001 0.00013 3.9e-07 0 0 2.77778e-12 0 0 2.77781e-13 
8 2 7.8e-07 0.0001 0.00015 3.9e-07 0 0 2.77778e-12 0 0 2.77781e-13 
9 1 7.8e-07 0.0001 0.00017 3.9e-07 0 0 2.77778e-12 0 0 2.77781e-13 
10 2 7.8e-07 0.0001 0.00019 3.9e-07 0 0 2.77778e-12 0 0 2.77781e-13 
