ITEM: TIMESTEP
0
ITEM: NUMBER OF ATOMS
12
ITEM: BOX BOUNDS ff ff ff
0.0000000000000000e+00 1.0000000000000000e-04
0.0000000000000000e+00 1.0000000000000000e-04
0.0000000000000000e+00 1.0000000000000000e-04
ITEM: ATOMS id type diameter x y z 
1 1 9.66e-07 5e-05 1.03e-05 5e-07 
2 2 9.66e-07 5e-05 1.36e-05 5e-07 
3 3 9.66e-07 5e-05 2.49e-05 5e-07 
4 1 9.66e-07 5e-05 3.32e-05 5e-07 
5 2 9.66e-07 5e-05 3.65e-05 5e-07 
6 3 9.66e-07 5e-05 4.9e-05 5e-07 
7 1 9.66e-07 5e-05 5.81e-05 5e-07 
8 2 9.66e-07 5e-05 6.14e-05 5e-07 
9 3 9.66e-07 5e-05 7.47e-05 5e-07 
10 1 9.66e-07 5e-05 8.3e-05 5e-07 
11 2 9.66e-07 5e-05 8.63e-05 5e-07 
12 3 9.66e-07 5e-05 9.4e-05 5e-07 
