
       112 atoms 
       4 atom types 
       10 nutrients

   0.0   8.0e-05  xlo xhi 
   0.0   2.0e-04  ylo yhi 
   0.0   2.0e-04  zlo zhi 

 Atoms

1	1	9.66E-007	290	1.50E-005	1.00E-005	5.00E-007	9.66E-007	aob
2	1	9.66E-007	290	1.50E-005	3.80E-005	5.00E-007	9.66E-007	aob
3	1	9.66E-007	290	1.50E-005	6.60E-005	5.00E-007	9.66E-007	aob
4	1	9.66E-007	290	1.50E-005	9.40E-005	5.00E-007	9.66E-007	aob
5	1	9.66E-007	290	1.50E-005	1.22E-004	5.00E-007	9.66E-007	aob
6	1	9.66E-007	290	1.50E-005	1.50E-004	5.00E-007	9.66E-007	aob
7	1	9.66E-007	290	1.50E-005	1.78E-004	5.00E-007	9.66E-007	aob
8	1	9.66E-007	290	3.00E-005	1.00E-005	5.00E-007	9.66E-007	aob
9	1	9.66E-007	290	3.00E-005	3.80E-005	5.00E-007	9.66E-007	aob
10	1	9.66E-007	290	3.00E-005	6.60E-005	5.00E-007	9.66E-007	aob
11	1	9.66E-007	290	3.00E-005	9.40E-005	5.00E-007	9.66E-007	aob
12	1	9.66E-007	290	3.00E-005	1.22E-004	5.00E-007	9.66E-007	aob
13	1	9.66E-007	290	3.00E-005	1.50E-004	5.00E-007	9.66E-007	aob
14	1	9.66E-007	290	3.00E-005	1.78E-004	5.00E-007	9.66E-007	aob
15	1	9.66E-007	290	4.50E-005	1.00E-005	5.00E-007	9.66E-007	aob
16	1	9.66E-007	290	4.50E-005	3.80E-005	5.00E-007	9.66E-007	aob
17	1	9.66E-007	290	4.50E-005	6.60E-005	5.00E-007	9.66E-007	aob
18	1	9.66E-007	290	4.50E-005	9.40E-005	5.00E-007	9.66E-007	aob
19	1	9.66E-007	290	4.50E-005	1.22E-004	5.00E-007	9.66E-007	aob
20	1	9.66E-007	290	4.50E-005	1.50E-004	5.00E-007	9.66E-007	aob
21	1	9.66E-007	290	4.50E-005	1.78E-004	5.00E-007	9.66E-007	aob
22	1	9.66E-007	290	6.00E-005	1.00E-005	5.00E-007	9.66E-007	aob
23	1	9.66E-007	290	6.00E-005	3.80E-005	5.00E-007	9.66E-007	aob
24	1	9.66E-007	290	6.00E-005	6.60E-005	5.00E-007	9.66E-007	aob
25	1	9.66E-007	290	6.00E-005	9.40E-005	5.00E-007	9.66E-007	aob
26	1	9.66E-007	290	6.00E-005	1.22E-004	5.00E-007	9.66E-007	aob
27	1	9.66E-007	290	6.00E-005	1.50E-004	5.00E-007	9.66E-007	aob
28	1	9.66E-007	290	6.00E-005	1.78E-004	5.00E-007	9.66E-007	aob
29	2	9.66E-007	290	1.50E-005	3.00E-006	5.00E-007	9.66E-007	nob
30	2	9.66E-007	290	1.50E-005	3.10E-005	5.00E-007	9.66E-007	nob
31	2	9.66E-007	290	1.50E-005	5.90E-005	5.00E-007	9.66E-007	nob
32	2	9.66E-007	290	1.50E-005	8.70E-005	5.00E-007	9.66E-007	nob
33	2	9.66E-007	290	1.50E-005	1.15E-004	5.00E-007	9.66E-007	nob
34	2	9.66E-007	290	1.50E-005	1.43E-004	5.00E-007	9.66E-007	nob
35	2	9.66E-007	290	1.50E-005	1.71E-004	5.00E-007	9.66E-007	nob
36	2	9.66E-007	290	3.00E-005	3.00E-006	5.00E-007	9.66E-007	nob
37	2	9.66E-007	290	3.00E-005	3.10E-005	5.00E-007	9.66E-007	nob
38	2	9.66E-007	290	3.00E-005	5.90E-005	5.00E-007	9.66E-007	nob
39	2	9.66E-007	290	3.00E-005	8.70E-005	5.00E-007	9.66E-007	nob
40	2	9.66E-007	290	3.00E-005	1.15E-004	5.00E-007	9.66E-007	nob
41	2	9.66E-007	290	3.00E-005	1.43E-004	5.00E-007	9.66E-007	nob
42	2	9.66E-007	290	3.00E-005	1.71E-004	5.00E-007	9.66E-007	nob
43	2	9.66E-007	290	4.50E-005	3.00E-006	5.00E-007	9.66E-007	nob
44	2	9.66E-007	290	4.50E-005	3.10E-005	5.00E-007	9.66E-007	nob
45	2	9.66E-007	290	4.50E-005	5.90E-005	5.00E-007	9.66E-007	nob
46	2	9.66E-007	290	4.50E-005	8.70E-005	5.00E-007	9.66E-007	nob
47	2	9.66E-007	290	4.50E-005	1.15E-004	5.00E-007	9.66E-007	nob
48	2	9.66E-007	290	4.50E-005	1.43E-004	5.00E-007	9.66E-007	nob
49	2	9.66E-007	290	4.50E-005	1.71E-004	5.00E-007	9.66E-007	nob
50	2	9.66E-007	290	6.00E-005	3.00E-006	5.00E-007	9.66E-007	nob
51	2	9.66E-007	290	6.00E-005	3.10E-005	5.00E-007	9.66E-007	nob
52	2	9.66E-007	290	6.00E-005	5.90E-005	5.00E-007	9.66E-007	nob
53	2	9.66E-007	290	6.00E-005	8.70E-005	5.00E-007	9.66E-007	nob
54	2	9.66E-007	290	6.00E-005	1.15E-004	5.00E-007	9.66E-007	nob
55	2	9.66E-007	290	6.00E-005	1.43E-004	5.00E-007	9.66E-007	nob
56	2	9.66E-007	290	6.00E-005	1.71E-004	5.00E-007	9.66E-007	nob
57	3	9.66E-007	290	1.50E-005	2.40E-005	5.00E-007	9.66E-007	comm
58	3	9.66E-007	290	1.50E-005	5.20E-005	5.00E-007	9.66E-007	comm
59	3	9.66E-007	290	1.50E-005	8.00E-005	5.00E-007	9.66E-007	comm
60	3	9.66E-007	290	1.50E-005	1.08E-004	5.00E-007	9.66E-007	comm
61	3	9.66E-007	290	1.50E-005	1.36E-004	5.00E-007	9.66E-007	comm
62	3	9.66E-007	290	1.50E-005	1.64E-004	5.00E-007	9.66E-007	comm
63	3	9.66E-007	290	1.50E-005	1.92E-004	5.00E-007	9.66E-007	comm
64	3	9.66E-007	290	3.00E-005	2.40E-005	5.00E-007	9.66E-007	comm
65	3	9.66E-007	290	3.00E-005	5.20E-005	5.00E-007	9.66E-007	comm
66	3	9.66E-007	290	3.00E-005	8.00E-005	5.00E-007	9.66E-007	comm
67	3	9.66E-007	290	3.00E-005	1.08E-004	5.00E-007	9.66E-007	comm
68	3	9.66E-007	290	3.00E-005	1.36E-004	5.00E-007	9.66E-007	comm
69	3	9.66E-007	290	3.00E-005	1.64E-004	5.00E-007	9.66E-007	comm
70	3	9.66E-007	290	3.00E-005	1.92E-004	5.00E-007	9.66E-007	comm
71	3	9.66E-007	290	4.50E-005	2.40E-005	5.00E-007	9.66E-007	comm
72	3	9.66E-007	290	4.50E-005	5.20E-005	5.00E-007	9.66E-007	comm
73	3	9.66E-007	290	4.50E-005	8.00E-005	5.00E-007	9.66E-007	comm
74	3	9.66E-007	290	4.50E-005	1.08E-004	5.00E-007	9.66E-007	comm
75	3	9.66E-007	290	4.50E-005	1.36E-004	5.00E-007	9.66E-007	comm
76	3	9.66E-007	290	4.50E-005	1.64E-004	5.00E-007	9.66E-007	comm
77	3	9.66E-007	290	4.50E-005	1.92E-004	5.00E-007	9.66E-007	comm
78	3	9.66E-007	290	6.00E-005	2.40E-005	5.00E-007	9.66E-007	comm
79	3	9.66E-007	290	6.00E-005	5.20E-005	5.00E-007	9.66E-007	comm
80	3	9.66E-007	290	6.00E-005	8.00E-005	5.00E-007	9.66E-007	comm
81	3	9.66E-007	290	6.00E-005	1.08E-004	5.00E-007	9.66E-007	comm
82	3	9.66E-007	290	6.00E-005	1.36E-004	5.00E-007	9.66E-007	comm
83	3	9.66E-007	290	6.00E-005	1.64E-004	5.00E-007	9.66E-007	comm
84	3	9.66E-007	290	6.00E-005	1.92E-004	5.00E-007	9.66E-007	comm
85	4	9.66E-007	290	1.50E-005	1.70E-005	5.00E-007	9.66E-007	ana
86	4	9.66E-007	290	1.50E-005	4.50E-005	5.00E-007	9.66E-007	ana
87	4	9.66E-007	290	1.50E-005	7.30E-005	5.00E-007	9.66E-007	ana
88	4	9.66E-007	290	1.50E-005	1.01E-004	5.00E-007	9.66E-007	ana
89	4	9.66E-007	290	1.50E-005	1.29E-004	5.00E-007	9.66E-007	ana
90	4	9.66E-007	290	1.50E-005	1.57E-004	5.00E-007	9.66E-007	ana
91	4	9.66E-007	290	1.50E-005	1.85E-004	5.00E-007	9.66E-007	ana
92	4	9.66E-007	290	3.00E-005	1.70E-005	5.00E-007	9.66E-007	ana
93	4	9.66E-007	290	3.00E-005	4.50E-005	5.00E-007	9.66E-007	ana
94	4	9.66E-007	290	3.00E-005	7.30E-005	5.00E-007	9.66E-007	ana
95	4	9.66E-007	290	3.00E-005	1.01E-004	5.00E-007	9.66E-007	ana
96	4	9.66E-007	290	3.00E-005	1.29E-004	5.00E-007	9.66E-007	ana
97	4	9.66E-007	290	3.00E-005	1.57E-004	5.00E-007	9.66E-007	ana
98	4	9.66E-007	290	3.00E-005	1.85E-004	5.00E-007	9.66E-007	ana
99	4	9.66E-007	290	4.50E-005	1.70E-005	5.00E-007	9.66E-007	ana
100	4	9.66E-007	290	4.50E-005	4.50E-005	5.00E-007	9.66E-007	ana
101	4	9.66E-007	290	4.50E-005	7.30E-005	5.00E-007	9.66E-007	ana
102	4	9.66E-007	290	4.50E-005	1.01E-004	5.00E-007	9.66E-007	ana
103	4	9.66E-007	290	4.50E-005	1.29E-004	5.00E-007	9.66E-007	ana
104	4	9.66E-007	290	4.50E-005	1.57E-004	5.00E-007	9.66E-007	ana
105	4	9.66E-007	290	4.50E-005	1.85E-004	5.00E-007	9.66E-007	ana
106	4	9.66E-007	290	6.00E-005	1.70E-005	5.00E-007	9.66E-007	ana
107	4	9.66E-007	290	6.00E-005	4.50E-005	5.00E-007	9.66E-007	ana
108	4	9.66E-007	290	6.00E-005	7.30E-005	5.00E-007	9.66E-007	ana
109	4	9.66E-007	290	6.00E-005	1.01E-004	5.00E-007	9.66E-007	ana
110	4	9.66E-007	290	6.00E-005	1.29E-004	5.00E-007	9.66E-007	ana
111	4	9.66E-007	290	6.00E-005	1.57E-004	5.00E-007	9.66E-007	ana
112	4	9.66E-007	290	6.00E-005	1.85E-004	5.00E-007	9.66E-007	ana


 Nutrients

     1 nh3 l 0.002 0.002 0.002 0.002 0.002 0.002 0.002
     2 no2 l 1e-20 1e-20 1e-20 1e-20 1e-20 1e-20 1e-20
     3 no3 l 1e-20 1e-20 1e-20 1e-20 1e-20 1e-20 1e-20
     4 o2 l 2.81e-4 2.81e-4 2.81e-4 2.81e-4 2.81e-4 2.81e-4 2.81e-4
     5 co2 l 0.005 0.005 0.005 0.005 0.005 0.005 0.005
     6 go2 g 0.21 0.21 0.21 0.21 0.21 0.21 0.21
     7 gco2 g 3.09e-3 3.09e-3 3.09e-3 3.09e-3 3.09e-3 3.09e-3 3.09e-3
     8 gn2 g 0.787 0.787 0.787 0.787 0.787 0.787 0.787
     9 h2o l 1 1 1 1 1 1 1
     10 h l 0 0 0 0 0 0 0

 Diffusion Coeffs
     
     nh3 1.639e-9
     no2 1.7e-9
     no3 1.7e-9
     o2 2e-9
     co2 1.919e-9
     go2 0 
     gco2 0
     gn2 0
     h2o 0
     h 0 

 Ks
     
     aob 1.71e-04 0 0 1.88e-05 0 0 0 0 0 0
     nob 0 3.93e-04 0 6.88e-05 0 0 0 0 0 0
     comm 1.65e-04 0 0 1.81e-05 0 0 0 0 0 0
     ana  5.00e-06 3.57e-06 0 3.13e-07 0 0 0 0 0 0

 Consumption Rate

     aob 0.000283611
     nob 0.000702222
     comm 0.000212778
     ana  0.000006389

 Yield Coeffs
    
     aob 0.11660122
     nob 0.031871
     comm 0.14847222
     ana  0.12359729

 Maintenance
 
     aob 0
     nob 0
     comm 0
     ana  0

 Electron Donor
    
     aob 0.9
     nob 2.9
     comm 0.725
     ana  1.6

 Mass Transfer Coeffs
          
     nh3 0
     no2 0
     no3 0
     o2 0
     co2 0
     go2 0 
     gco2 0
     gn2 0
     h2o 0
     h 0 

 Decay Rate

     aob 0
     nob 0
     comm 0
     ana  0

 Catabolism Coeffs
         
     aob -1 1 0 -1.5 0 0 0 0 1 1
     nob 0 -1 1 -0.5 0 0 0 0 0 0
     comm -1 0 1 -2 0 0 0 0 1 1
     ana  -1 -1 0 0 0 0 0 1 2 1

 Anabolism Coeffs
          
     aob -0.9 0.7 0 0 -1 0 0 0 1.1 -0.3
     nob 0 -2.9 2.7 0 -1 0 0 0 0.2 -1.2
     comm -0.725 0 0.525 0 -1 0 0 0 0.925 -0.475
     ana -1.6 0 0 0 -1 0.7 0 0 2.5 -1
 
 Decay Coeffs
           
     aob 0 0 0 0 1 0 0 0 0 0
     nob 0 0 0 0 1 0 0 0 0 0
     comm 0 0 0 0 1 0 0 0 0 0
     ana  0 0 0 0 1 0 0 0 0 0
 
 Nutrient Activity Coeffs

    nh3 inf -79.37 -26.57 inf inf 3
    no2 inf -50.60 -32.20 inf inf 3
    no3 inf -103.70 -111.30 inf	inf 3
    o2 inf 16.4 inf inf inf 2
    co2 -386.00	-623.16	-586.85	-527.80	inf 3
    go2 inf 0 inf inf inf 2
    gco2 inf -394.36 inf inf inf 2
    gn2 inf 0 inf inf inf 2
    h2o inf -237.18 -157.3 inf inf 2
    h inf 0 inf inf inf 2

 Type Activity Coeffs

    aob inf -67 inf inf inf 2
    nob inf -67 inf inf inf 2
    comm inf -67 inf inf inf 2
    ana inf -67 inf inf inf 2

 Dissipation

    aob 3500
    nob 3500
    comm 3500
    ana 3500

 Charge Number
  
    nh3 na 1 0 na na
    no2 na 0 -1 na na
    no3 na 0 -1 na na
    o2 na 0 na na na
    co2 0 0 -1 -2 na
    go2 na 0 na na na
    gco2 na 0 na na na
    gn2 na 0 na na na
    h2o na 0 -1 na na
    h na 1 na na na

