LAMMPS (5 Nov 2016)
# NUFEB simulation

atom_style	bio
atom_modify	map array sort 1000 5.0e-7
boundary	ff ff ff
newton		off
#processors  2 1 1

comm_modify	vel yes
read_data_bio atom.in
  orthogonal box = (0 0 0) to (0.0001 0.0001 0.0001)
  1 by 1 by 1 MPI processor grid
  reading atoms ...
  3 atoms
  10 nutrients

group AOB type 1
1 atoms in group AOB
group NOB type 2
1 atoms in group NOB
group COMM type 3
1 atoms in group COMM

neighbor	5.0e-7 bin
neigh_modify	delay 0 one 5000

#pair_style none
pair_style  gran/hooke/history 0.000200 NULL 0.000050 NULL 0.0 1

pair_coeff  * *
timestep 36

fix 1 all nve/limit 1e-8

#fix	 2 all gravity 1.47 vector 0 0 -1 # spherical 90.0 -180.0
#fix     3 all fdrag
fix 10 all viscous 0.1


fix xw all wall/gran hooke/history 2000 NULL 500.0 NULL 1.5 0 xplane  0.0   1.0e-04
fix yw all wall/gran hooke/history 2000 NULL 500.0 NULL 1.5 0 yplane  0.0   1.0e-04
fix zw all wall/gran hooke/history 2000 NULL 500.0 NULL 1.5 0 zplane  0.0   1.0e-04

variable kanc equal 50

fix xwa all walladh v_kanc xplane  0.0   1.0e-04
fix ywa all walladh v_kanc yplane  0.0   1.0e-04
fix zwa all walladh v_kanc zplane  0.0   1.0e-04

##############Ibm Variable Definitions##############

#Defining EPS density and ratio variables
variable EPSdens equal 30
variable EPSratio equal 1.25

variable ke equal 5e+10

#Defining kinetics variables
variable temp equal 298.15
variable gasTran equal 0.08205746
variable gvol equal 8e-14
variable rth equal 0.0083144
variable pressure equal 1
variable ph equal 7.0

#Defining diffusion variables
variable diffT equal 1e-7
variable tol equal 2e-11

##############Ibm functions##############

fix k1 all kinetics 25 25 25 v_temp v_rth v_gvol v_gasTran v_ph
fix g1 all diffusion exp v_diffT v_tol pp pp nd
#fix ki3 all kinetics/ph 1
fix ki2 all kinetics/thermo 1 fix open v_pressure
fix ki1 all kinetics/monod 1 v_EPSdens
fix d1 all divide 1 v_EPSdens 1 31231

#fix j1 all epsadh 1 v_ke 1
#fix e1 HET eps_extract 16 v_EPSratio v_EPSdens 1242242

##############Ibm compute##############

compute myMass all biomass
compute myNtypes all ntypes

##############Simulation outputs##############

#dump		id all custom 250 snapshot.bubblemd id type diameter x y z
dump            d0 all bio 500 biomass
thermo_style    custom step cpu atoms biomass c_myNtypes[*] c_myMass[2]
thermo		5
thermo_modify	lost ignore

run  5000
Neighbor list info ...
  2 neighbor list requests
  update every 1 steps, delay 0 steps, check yes
  max neighbors/atom: 5000, page size: 100000
  master list distance cutoff = 1.466e-06
  ghost atom cutoff = 1.466e-06
  binsize = 7.33e-07 -> bins = 137 137 137
Memory usage per processor = 18.9946 Mbytes
Step CPU Atoms biomass c_myNtypes[1] c_myNtypes[2] c_myNtypes[3] c_myMass[2] 
       0            0        3 4.1062866e-16            1            1            1 1.3687622e-16 
       5    347.39492        3 4.115293e-16            1            1            1 1.3682131e-16 
      10       347.53        3 4.1243595e-16            1            1            1 1.3676907e-16 
      15    348.14567        3 4.1334596e-16            1            1            1 1.3671685e-16 
      20    350.57644        3 4.1425917e-16            1            1            1 1.3666446e-16 
      25     352.9426        3 4.1517554e-16            1            1            1 1.3661186e-16 
      30     355.2334        3 4.1609519e-16            1            1            1 1.3655916e-16 
      35    357.42573        3 4.1701821e-16            1            1            1 1.3650643e-16 
      40    359.54871        3 4.1794468e-16            1            1            1 1.3645375e-16 
      45    361.58031        3 4.1887465e-16            1            1            1 1.3640115e-16 
      50    363.61484        3 4.1980819e-16            1            1            1 1.3634869e-16 
      55    365.63786        3 4.2074534e-16            1            1            1 1.3629638e-16 
      60    367.58474        3 4.2168612e-16            1            1            1 1.3624426e-16 
      65    369.57297        3 4.2263058e-16            1            1            1 1.3619235e-16 
      70    371.42481        3 4.2357875e-16            1            1            1 1.3614067e-16 
      75    373.33114        3 4.2453065e-16            1            1            1 1.3608922e-16 
      80    375.19147        3 4.2548631e-16            1            1            1 1.3603804e-16 
      85    376.95365        3 4.2644574e-16            1            1            1 1.3598711e-16 
      90    378.75705        3 4.2740898e-16            1            1            1 1.3593646e-16 
      95     380.5942        3 4.2837604e-16            1            1            1 1.3588608e-16 
     100    382.31918        3 4.2934694e-16            1            1            1 1.3583599e-16 
     105    384.05049        3 4.3032169e-16            1            1            1 1.357862e-16 
     110    385.73273        3 4.3130032e-16            1            1            1 1.357367e-16 
     115    387.36507        3 4.3228285e-16            1            1            1 1.3568751e-16 
     120    389.06275        3 4.3326928e-16            1            1            1 1.3563862e-16 
     125    390.74574        3 4.3425963e-16            1            1            1 1.3559003e-16 
     130    392.34665        3 4.3525393e-16            1            1            1 1.3554176e-16 
     135    393.88248        3 4.3625218e-16            1            1            1 1.3549381e-16 
     140    395.52459        3 4.372544e-16            1            1            1 1.3544617e-16 
     145    397.06438        3 4.3826061e-16            1            1            1 1.3539885e-16 
     150    398.61221        4 4.3927081e-16            2            1            1 1.3535185e-16 
     155    400.20409        5 4.4028503e-16            2            1            2 1.3530517e-16 
     160    401.76972        5 4.4130329e-16            2            1            2 1.3525882e-16 
     165    403.37609        5 4.4232558e-16            2            1            2 1.3521279e-16 
     170    404.97175        5 4.4335193e-16            2            1            2 1.3516709e-16 
     175    406.47122        5 4.4438236e-16            2            1            2 1.3512172e-16 
     180    408.06814        5 4.4541688e-16            2            1            2 1.3507668e-16 
     185    409.59932        5 4.4645549e-16            2            1            2 1.3503198e-16 
     190    411.10837        5 4.4749823e-16            2            1            2 1.349876e-16 
     195    412.62041        5 4.4854509e-16            2            1            2 1.3494356e-16 
     200    414.15581        5 4.495961e-16            2            1            2 1.3489986e-16 
     205    415.66276        5 4.5065127e-16            2            1            2 1.3485649e-16 
     210    417.13238        5 4.5171061e-16            2            1            2 1.3481346e-16 
     215    418.54433        5 4.5277414e-16            2            1            2 1.3477077e-16 
     220    420.12152        5 4.5384188e-16            2            1            2 1.3472842e-16 
     225    421.55196        5 4.5491383e-16            2            1            2 1.3468641e-16 
     230    422.98375        5 4.5599002e-16            2            1            2 1.3464474e-16 
     235    424.44402        5 4.5707045e-16            2            1            2 1.3460342e-16 
     240    425.87573        5 4.5815515e-16            2            1            2 1.3456244e-16 
     245    427.30522        5 4.5924412e-16            2            1            2 1.3452181e-16 
     250    428.71286        5 4.6033738e-16            2            1            2 1.3448152e-16 
     255    430.24365        5 4.6143495e-16            2            1            2 1.3444158e-16 
     260    431.66421        5 4.6253684e-16            2            1            2 1.3440199e-16 
     265    433.09115        5 4.6364307e-16            2            1            2 1.3436274e-16 
     270    434.51696        5 4.6475365e-16            2            1            2 1.3432385e-16 
     275    435.91867        5 4.6586859e-16            2            1            2 1.3428531e-16 
     280    437.36113        5 4.6698792e-16            2            1            2 1.3424712e-16 
     285    438.74632        5 4.6811164e-16            2            1            2 1.3420929e-16 
     290    440.11555        5 4.6923977e-16            2            1            2 1.3417181e-16 
     295    441.56849        5 4.7037233e-16            2            1            2 1.3413469e-16 
     300    442.94279        5 4.7150934e-16            2            1            2 1.3409792e-16 
     305    444.36668        5 4.726508e-16            2            1            2 1.3406152e-16 
     310     445.7891        5 4.7379673e-16            2            1            2 1.3402547e-16 
     315    447.16272        5 4.7494715e-16            2            1            2 1.3398978e-16 
     320    448.56933        5 4.7610208e-16            2            1            2 1.3395445e-16 
     325    449.95737        5 4.7726152e-16            2            1            2 1.3391949e-16 
     330     451.3141        5 4.784255e-16            2            1            2 1.3388489e-16 
     335     452.7222        5 4.7959404e-16            2            1            2 1.3385066e-16 
     340    454.05498        5 4.8076714e-16            2            1            2 1.3381679e-16 
     345    455.52435        5 4.8194482e-16            2            1            2 1.3378329e-16 
     350    456.88496        5 4.831271e-16            2            1            2 1.3375016e-16 
     355    458.28996        5 4.8431399e-16            2            1            2 1.337174e-16 
     360    459.58772        5 4.8550552e-16            2            1            2  1.33685e-16 
     365    461.07182        5 4.8670169e-16            2            1            2 1.3365299e-16 
     370     462.4805        5 4.8790253e-16            2            1            2 1.3362134e-16 
     375    463.89203        5 4.8910804e-16            2            1            2 1.3359007e-16 
     380     465.3006        5 4.9031825e-16            2            1            2 1.3355917e-16 
     385    466.64485        5 4.9153317e-16            2            1            2 1.3352866e-16 
     390    467.93146        5 4.9275282e-16            2            1            2 1.3349852e-16 
     395    469.29054        5 4.9397721e-16            2            1            2 1.3346875e-16 
     400    470.63951        5 4.9520637e-16            2            1            2 1.3343938e-16 
     405    472.02209        5 4.964403e-16            2            1            2 1.3341038e-16 
     410     473.3902        5 4.9767903e-16            2            1            2 1.3338176e-16 
     415    474.75819        5 4.9892257e-16            2            1            2 1.3335354e-16 
     420     476.1173        5 5.0017093e-16            2            1            2 1.3332569e-16 
     425    477.46808        5 5.0142415e-16            2            1            2 1.3329824e-16 
     430    478.84028        5 5.0268222e-16            2            1            2 1.3327117e-16 
     435    480.13018        5 5.0394517e-16            2            1            2 1.3324449e-16 
     440    481.42518        5 5.0521302e-16            2            1            2 1.3321821e-16 
     445    482.69724        5 5.0648577e-16            2            1            2 1.3319232e-16 
     450    484.03764        5 5.0776346e-16            2            1            2 1.3316682e-16 
     455    485.39136        5 5.090461e-16            2            1            2 1.3314171e-16 
     460    486.81616        5 5.103337e-16            2            1            2 1.3311701e-16 
     465    488.14654        5 5.1162628e-16            2            1            2 1.330927e-16 
     470    489.51746        5 5.1292387e-16            2            1            2 1.3306879e-16 
     475    490.90221        5 5.1422646e-16            2            1            2 1.3304529e-16 
     480    492.21285        5 5.155341e-16            2            1            2 1.3302218e-16 
     485    493.59794        5 5.1684678e-16            2            1            2 1.3299948e-16 
     490    494.88178        5 5.1816454e-16            2            1            2 1.3297719e-16 
     495    496.23134        5 5.1948738e-16            2            1            2 1.329553e-16 
     500    497.56304        5 5.2081532e-16            2            1            2 1.3293382e-16 
     505    498.97404        5 5.2214839e-16            2            1            2 1.3291275e-16 
     510    500.31765        5 5.234866e-16            2            1            2 1.328921e-16 
     515    501.65289        5 5.2482997e-16            2            1            2 1.3287185e-16 
     520     502.9501        5 5.2617852e-16            2            1            2 1.3285202e-16 
     525     504.2615        5 5.2753226e-16            2            1            2 1.3283261e-16 
     530    505.54526        5 5.2889122e-16            2            1            2 1.3281361e-16 
     535      506.848        5 5.3025541e-16            2            1            2 1.3279503e-16 
     540    508.17113        5 5.3162485e-16            2            1            2 1.3277688e-16 
     545    509.45014        5 5.3299955e-16            2            1            2 1.3275914e-16 
     550     510.7865        5 5.3437955e-16            2            1            2 1.3274183e-16 
     555    512.07425        5 5.3576485e-16            2            1            2 1.3272495e-16 
     560     513.3345        5 5.3715547e-16            2            1            2 1.3270849e-16 
     565    514.69102        5 5.3855144e-16            2            1            2 1.3269246e-16 
     570    516.03099        5 5.3995277e-16            2            1            2 1.3267686e-16 
     575    517.47016        5 5.4135948e-16            2            1            2 1.3266169e-16 
     580    518.80159        5 5.4277159e-16            2            1            2 1.3264696e-16 
     585    520.22004        5 5.4418912e-16            2            1            2 1.3263266e-16 
     590    521.65992        5 5.4561209e-16            2            1            2 1.326188e-16 
     595    522.99192        5 5.4704051e-16            2            1            2 1.3260537e-16 
     600    524.36062        5 5.4847441e-16            2            1            2 1.3259239e-16 
     605    525.72717        5 5.4991381e-16            2            1            2 1.3257985e-16 
     610    527.06925        5 5.5135872e-16            2            1            2 1.3256775e-16 
     615    528.49673        5 5.5280916e-16            2            1            2 1.325561e-16 
     620    529.88612        5 5.5426516e-16            2            1            2 1.3254489e-16 
     625     531.1971        5 5.5572674e-16            2            1            2 1.3253414e-16 
     630     532.5183        5 5.571939e-16            2            1            2 1.3252383e-16 
     635    533.80341        5 5.5866668e-16            2            1            2 1.3251398e-16 
     640    535.13182        5 5.601451e-16            2            1            2 1.3250458e-16 
     645    536.50474        5 5.6162916e-16            2            1            2 1.3249564e-16 
     650    537.83601        5 5.631189e-16            2            1            2 1.3248715e-16 
     655    539.20621        5 5.6461433e-16            2            1            2 1.3247913e-16 
     660    540.53012        5 5.6611547e-16            2            1            2 1.3247157e-16 
     665     541.8521        5 5.6762235e-16            2            1            2 1.3246447e-16 
     670    543.16958        5 5.6913498e-16            2            1            2 1.3245783e-16 
     675    544.46329        5 5.7065338e-16            2            1            2 1.3245166e-16 
     680    545.80389        5 5.7217758e-16            2            1            2 1.3244596e-16 
     685    547.09018        5 5.7370759e-16            2            1            2 1.3244074e-16 
     690    548.41122        5 5.7524344e-16            2            1            2 1.3243598e-16 
     695    549.88308        5 5.7678514e-16            2            1            2 1.324317e-16 
     700    551.14639        5 5.7833272e-16            2            1            2 1.324279e-16 
     705    552.49065        5 5.798862e-16            2            1            2 1.3242457e-16 
     710    553.89256        5 5.814456e-16            2            1            2 1.3242173e-16 
     715    555.25577        5 5.8301093e-16            2            1            2 1.3241937e-16 
     720      556.628        5 5.8458223e-16            2            1            2 1.3241749e-16 
     725    557.93537        5 5.8615951e-16            2            1            2 1.324161e-16 
     730    559.34768        5 5.8774279e-16            2            1            2 1.324152e-16 
     735    560.71453        5 5.8933209e-16            2            1            2 1.3241479e-16 
     740    562.08051        5 5.9092734e-16            2            1            2 1.3241476e-16 
     745    563.41518        5 5.9252818e-16            2            1            2 1.3241476e-16 
     750    564.82578        5 5.9413461e-16            2            1            2 1.3241476e-16 
     755    566.22759        5 5.9574665e-16            2            1            2 1.3241476e-16 
     760     567.6127        5 5.9736433e-16            2            1            2 1.3241476e-16 
     765    568.98673        5 5.9898765e-16            2            1            2 1.3241476e-16 
     770    570.34002        5 6.0061665e-16            2            1            2 1.3241476e-16 
     775    571.72181        5 6.0225133e-16            2            1            2 1.3241476e-16 
     780    573.05851        5 6.0389173e-16            2            1            2 1.3241476e-16 
     785    574.41238        5 6.0553785e-16            2            1            2 1.3241476e-16 
     790    575.70381        5 6.0718972e-16            2            1            2 1.3241476e-16 
     795    576.99042        5 6.0884737e-16            2            1            2 1.3241476e-16 
     800    578.39683        5 6.105108e-16            2            1            2 1.3241476e-16 
     805    579.86565        5 6.1218005e-16            2            1            2 1.3241476e-16 
     810    581.36688        5 6.1385513e-16            2            1            2 1.3241476e-16 
     815    582.78626        5 6.1553605e-16            2            1            2 1.3241476e-16 
     820    584.21314        5 6.1722285e-16            2            1            2 1.3241476e-16 
     825     585.5496        5 6.1891554e-16            2            1            2 1.3241476e-16 
     830    586.91575        5 6.2061414e-16            2            1            2 1.3241476e-16 
     835    588.34421        5 6.2231901e-16            2            1            2 1.324151e-16 
     840    589.71578        5 6.240295e-16            2            1            2 1.324151e-16 
     845    591.11043        5 6.2574597e-16            2            1            2 1.324151e-16 
     850    592.42175        5 6.2746843e-16            2            1            2 1.324151e-16 
     855    593.79017        5 6.2919691e-16            2            1            2 1.324151e-16 
     860    595.22158        5 6.3093176e-16            2            1            2 1.3241543e-16 
     865    596.62016        5 6.3267233e-16            2            1            2 1.3241543e-16 
     870    598.01556        5 6.3441899e-16            2            1            2 1.3241543e-16 
     875    599.47086        5 6.3617174e-16            2            1            2 1.3241543e-16 
     880    600.87692        5 6.3793095e-16            2            1            2 1.3241577e-16 
     885    602.24739        5 6.3969598e-16            2            1            2 1.3241577e-16 
     890    603.67103        5 6.4146716e-16            2            1            2 1.3241577e-16 
     895    605.08088        5 6.4324454e-16            2            1            2 1.3241577e-16 
     900     606.4841        5 6.4502846e-16            2            1            2 1.3241611e-16 
     905    607.89323        5 6.4681827e-16            2            1            2 1.3241611e-16 
     910    609.41264        5 6.4861433e-16            2            1            2 1.3241611e-16 
     915      610.828        5 6.5041701e-16            2            1            2 1.3241644e-16 
     920    612.22758        5 6.5222564e-16            2            1            2 1.3241644e-16 
     925    613.65941        5 6.5404059e-16            2            1            2 1.3241644e-16 
     930     615.0502        5 6.5586222e-16            2            1            2 1.3241677e-16 
     935    616.44902        5 6.5768987e-16            2            1            2 1.3241677e-16 
     940    617.85012        5 6.5952391e-16            2            1            2 1.3241677e-16 
     945    619.23869        5 6.6136469e-16            2            1            2 1.3241711e-16 
     950    620.60385        5 6.6321156e-16            2            1            2 1.3241711e-16 
     955    621.97697        6 6.6506489e-16            2            1            3 1.3241711e-16 
     960    623.40694        6 6.6692502e-16            2            1            3 1.3241744e-16 
     965    624.83014        6 6.6879131e-16            2            1            3 1.3241744e-16 
     970    626.24546        6 6.7066447e-16            2            1            3 1.3241778e-16 
     975    627.65705        6 6.7254383e-16            2            1            3 1.3241778e-16 
     980    629.07607        6 6.7442975e-16            2            1            3 1.3241778e-16 
     985    630.43263        6 6.763226e-16            2            1            3 1.3241812e-16 
     990    631.84112        7 6.7822173e-16            3            1            3 1.3241812e-16 
     995     633.2464        7 6.8012782e-16            3            1            3 1.3241846e-16 
    1000    634.79548        7 6.8204023e-16            3            1            3 1.3241846e-16 
    1005    636.22699        7 6.8395966e-16            3            1            3 1.324188e-16 
    1010      637.697        7 6.8588546e-16            3            1            3 1.324188e-16 
    1015    639.13645        7 6.8781832e-16            3            1            3 1.3241914e-16 
    1020    640.51223        7 6.8975759e-16            3            1            3 1.3241914e-16 
    1025    642.00891        7 6.9170398e-16            3            1            3 1.3241948e-16 
    1030    643.39501        7 6.9365683e-16            3            1            3 1.3241948e-16 
    1035    644.82765        7 6.9561684e-16            3            1            3 1.3241982e-16 
    1040    646.31971        7 6.9758336e-16            3            1            3 1.3241982e-16 
    1045    647.77298        7 6.9955708e-16            3            1            3 1.3242016e-16 
    1050    649.24923        7 7.0153736e-16            3            1            3 1.3242016e-16 
    1055     650.7097        7 7.0352489e-16            3            1            3 1.324205e-16 
    1060    652.17206        7 7.0551903e-16            3            1            3 1.324205e-16 
    1065    653.58141        7 7.0752048e-16            3            1            3 1.3242085e-16 
    1070    655.01913        7 7.095289e-16            3            1            3 1.3242118e-16 
    1075    656.47869        7 7.1154401e-16            3            1            3 1.3242118e-16 
    1080    657.92205        7 7.1356649e-16            3            1            3 1.3242151e-16 
    1085    659.35996        7 7.1559604e-16            3            1            3 1.3242185e-16 
    1090    660.80835        7 7.1763234e-16            3            1            3 1.3242185e-16 
    1095    662.29028        7 7.1967609e-16            3            1            3 1.3242219e-16 
    1100    663.77786        7 7.2172665e-16            3            1            3 1.3242219e-16 
    1105    665.29001        7 7.2378471e-16            3            1            3 1.3242254e-16 
    1110    666.78587        7 7.2584995e-16            3            1            3 1.3242287e-16 
    1115    668.29674        7 7.2792206e-16            3            1            3 1.3242287e-16 
    1120    669.86553        7 7.3000177e-16            3            1            3 1.3242323e-16 
    1125    671.37624        7 7.3208873e-16            3            1            3 1.3242357e-16 
    1130    672.87711        7 7.3418298e-16            3            1            3 1.3242391e-16 
    1135    674.37478        7 7.3628421e-16            3            1            3 1.3242391e-16 
    1140    675.87506        7 7.3839312e-16            3            1            3 1.3242426e-16 
    1145    677.29689        7 7.4050939e-16            3            1            3 1.3242461e-16 
    1150    678.72789        7 7.4263272e-16            3            1            3 1.3242461e-16 
    1155     680.3259        7 7.4476381e-16            3            1            3 1.3242496e-16 
    1160    681.75092        7 7.4690233e-16            3            1            3 1.324253e-16 
    1165    683.23068        7 7.4904833e-16            3            1            3 1.3242565e-16 
    1170    684.70208        7 7.5120182e-16            3            1            3 1.3242599e-16 
    1175    686.22102        7 7.5336249e-16            3            1            3 1.3242599e-16 
    1180     687.7193        7 7.5553104e-16            3            1            3 1.3242633e-16 
    1185     689.2303        7 7.5770717e-16            3            1            3 1.3242667e-16 
    1190     690.7867        7 7.5989091e-16            3            1            3 1.3242701e-16 
    1195    692.29141        7 7.6208227e-16            3            1            3 1.3242735e-16 
    1200    693.85547        7 7.642813e-16            3            1            3 1.324277e-16 
    1205    695.35838        7 7.6648765e-16            3            1            3 1.324277e-16 
    1210    696.82874        7 7.6870207e-16            3            1            3 1.3242806e-16 
    1215    698.32815        7 7.7092422e-16            3            1            3 1.3242842e-16 
    1220    699.92396        7 7.7315412e-16            3            1            3 1.3242875e-16 
    1225    701.42229        7 7.7539182e-16            3            1            3 1.324291e-16 
    1230    702.98159        7 7.7763732e-16            3            1            3 1.3242944e-16 
    1235    704.58176        7 7.7989069e-16            3            1            3 1.324298e-16 
    1240    706.06006        7 7.8215191e-16            3            1            3 1.3243014e-16 
    1245    707.56957        7 7.8442102e-16            3            1            3 1.3243048e-16 
    1250    709.08247        7 7.8669806e-16            3            1            3 1.3243082e-16 
    1255     710.5914        7 7.8898305e-16            3            1            3 1.3243116e-16 
    1260    712.15408        7 7.9127603e-16            3            1            3 1.324315e-16 
    1265    713.73087        7 7.9357702e-16            3            1            3 1.3243184e-16 
    1270    715.32799        7 7.9588605e-16            3            1            3 1.3243219e-16 
    1275    716.91615        8 7.9820315e-16            4            1            3 1.3243254e-16 
    1280      718.528        8 8.0052835e-16            4            1            3 1.3243289e-16 
    1285    720.08366        8 8.0286167e-16            4            1            3 1.3243325e-16 
    1290    721.65225        8 8.0520315e-16            4            1            3 1.3243361e-16 
    1295    723.22871        8 8.075528e-16            4            1            3 1.3243397e-16 
    1300    724.82566        8 8.0991067e-16            4            1            3 1.3243434e-16 
    1305    726.41404        8 8.1227674e-16            4            1            3 1.3243468e-16 
    1310    727.96572        8 8.1465111e-16            4            1            3 1.3243504e-16 
    1315    729.52505        8 8.1703373e-16            4            1            3 1.3243537e-16 
    1320    731.11359        8 8.1942471e-16            4            1            3 1.3243573e-16 
    1325    732.70158        8 8.2182402e-16            4            1            3 1.3243607e-16 
    1330    734.26331        8 8.2423208e-16            4            1            3 1.3243678e-16 
    1335    735.90677        8 8.2664818e-16            4            1            3 1.3243712e-16 
    1340    737.50435        8 8.2907275e-16            4            1            3 1.3243749e-16 
    1345    739.10719        8 8.3150577e-16            4            1            3 1.3243784e-16 
    1350    740.69834        8 8.3394728e-16            4            1            3 1.3243818e-16 
    1355    742.25626        8 8.3639765e-16            4            1            3 1.3243886e-16 
    1360    743.82429        8 8.3885625e-16            4            1            3 1.324392e-16 
    1365    745.41734        8 8.4132344e-16            4            1            3 1.3243954e-16 
    1370    747.03304        8 8.4379924e-16            4            1            3 1.3243989e-16 
    1375    748.70562        8 8.4628405e-16            4            1            3 1.3244059e-16 
    1380    750.33487        8 8.4877719e-16            4            1            3 1.3244094e-16 
    1385    751.95832        8 8.5127904e-16            4            1            3 1.324413e-16 
    1390     753.4987        8 8.5378964e-16            4            1            3 1.3244166e-16 
    1395    755.09021        8 8.5630937e-16            4            1            3 1.3244238e-16 
    1400    756.67472        8 8.5883754e-16            4            1            3 1.3244275e-16 
    1405    758.30132        8 8.6137454e-16            4            1            3 1.3244311e-16 
    1410    759.85791        8 8.6392042e-16            4            1            3 1.3244349e-16 
    1415    761.44851        8 8.6647556e-16            4            1            3 1.3244424e-16 
    1420    763.06258        8 8.6903925e-16            4            1            3 1.3244462e-16 
    1425     764.7371        8 8.7161191e-16            4            1            3  1.32445e-16 
    1430    766.37288        9 8.7419386e-16            4            1            4 1.324457e-16 
    1435    768.01622        9 8.7678452e-16            4            1            4 1.3244608e-16 
    1440    769.62438        9 8.7938418e-16            4            1            4 1.3244641e-16 
    1445    771.23567        9 8.819933e-16            4            1            4 1.3244712e-16 
    1450    772.90443        9 8.8461119e-16            4            1            4 1.324475e-16 
    1455    774.55121        9 8.8723857e-16            4            1            4 1.3244821e-16 
    1460    776.21335        9 8.8987476e-16            4            1            4 1.3244856e-16 
    1465    777.88339        9 8.9252054e-16            4            1            4 1.3244929e-16 
    1470    779.53091        9 8.9517522e-16            4            1            4 1.3244967e-16 
    1475    781.15072        9 8.9783947e-16            4            1            4 1.3245036e-16 
    1480    782.79468        9 9.0051273e-16            4            1            4 1.3245075e-16 
    1485    784.46519        9 9.0319563e-16            4            1            4 1.3245144e-16 
    1490    786.13658        9 9.0588754e-16            4            1            4 1.3245178e-16 
    1495    787.79222        9 9.085892e-16            4            1            4 1.3245245e-16 
    1500    789.50155        9 9.113003e-16            4            1            4 1.3245313e-16 
    1505    791.14653        9 9.1402053e-16            4            1            4 1.3245347e-16 
    1510    792.81841        9 9.1675061e-16            4            1            4 1.3245416e-16 
    1515    794.52012        9 9.1949023e-16            4            1            4 1.3245486e-16 
    1520    796.26678        9 9.2223907e-16            4            1            4 1.324552e-16 
    1525    797.96257        9 9.2499788e-16            4            1            4 1.3245591e-16 
    1530    799.67541        9 9.2776632e-16            4            1            4 1.3245662e-16 
    1535    801.44936        9 9.3054408e-16            4            1            4 1.3245698e-16 
    1540    803.16018        9 9.3333191e-16            4            1            4 1.324577e-16 
    1545    804.81368        9 9.3612949e-16            4            1            4 1.3245843e-16 
    1550    806.54299        9 9.3893647e-16            4            1            4 1.3245879e-16 
    1555     808.2661        9 9.4175363e-16            4            1            4 1.3245953e-16 
    1560    809.95071        9 9.4458064e-16            4            1            4 1.3246028e-16 
    1565    811.70213        9 9.4741715e-16            4            1            4 1.3246066e-16 
    1570    813.42671        9 9.5026396e-16            4            1            4 1.3246141e-16 
    1575    815.12066        9 9.5312071e-16            4            1            4 1.3246218e-16 
    1580     816.8155        9 9.5598706e-16            4            1            4 1.3246256e-16 
    1585    818.53829        9 9.5886382e-16            4            1            4 1.3246334e-16 
    1590    820.35077        9 9.6175063e-16            4            1            4 1.3246412e-16 
    1595    822.12035        9 9.6464714e-16            4            1            4 1.3246451e-16 
    1600    823.88083        9 9.6755416e-16            4            1            4 1.3246531e-16 
    1605    825.60332        9 9.7047135e-16            4            1            4 1.3246611e-16 
    1610    827.27686        9 9.7339833e-16            4            1            4 1.3246652e-16 
    1615    829.00737        9 9.7633594e-16            4            1            4 1.3246733e-16 
    1620    830.79254        9 9.7928382e-16            4            1            4 1.3246815e-16 
    1625    832.52836        9 9.822419e-16            4            1            4 1.3246887e-16 
    1630    834.29181        9 9.8521032e-16            4            1            4 1.3246961e-16 
    1635     836.1347        9 9.8818877e-16            4            1            4   1.3247e-16 
    1640    837.89644        9 9.9117798e-16            4            1            4 1.3247075e-16 
    1645    839.66589        9 9.9417762e-16            4            1            4 1.3247148e-16 
    1650    841.40885        9 9.9718773e-16            4            1            4 1.3247221e-16 
    1655    843.21084        9 1.0002084e-15            4            1            4 1.3247295e-16 
    1660    845.01681        9 1.0032395e-15            4            1            4 1.3247369e-16 
    1665     846.7311        9 1.0062813e-15            4            1            4 1.3247444e-16 
    1670    848.49376        9 1.0093337e-15            4            1            4 1.3247519e-16 
    1675    850.28985        9 1.0123968e-15            4            1            4 1.3247595e-16 
    1680    852.01172        9 1.0154706e-15            4            1            4 1.3247672e-16 
    1685    853.76077        9 1.0185551e-15            4            1            4 1.3247749e-16 
    1690    855.49138        9 1.0216505e-15            4            1            4 1.3247827e-16 
    1695    857.19578        9 1.0247569e-15            4            1            4 1.3247939e-16 
    1700    858.93984        9 1.0278739e-15            4            1            4 1.3248017e-16 
    1705     860.7463        9 1.0310017e-15            4            1            4 1.3248093e-16 
    1710    862.62073        9 1.0341404e-15            4            1            4 1.3248164e-16 
    1715    864.67199        9 1.0372904e-15            4            1            4 1.3248264e-16 
    1720     866.7651        9 1.0404511e-15            4            1            4 1.3248331e-16 
    1725    868.60259        9 1.0436231e-15            4            1            4 1.3248432e-16 
    1730    870.42135        9 1.0468059e-15            4            1            4  1.32485e-16 
    1735    872.24981        9 1.0500001e-15            4            1            4 1.3248602e-16 
    1740    874.04383        9 1.0532052e-15            4            1            4 1.3248671e-16 
    1745    875.80645        9 1.0564218e-15            4            1            4 1.3248775e-16 
    1750    877.58968        9 1.0596493e-15            4            1            4 1.3248845e-16 
    1755    879.40568        9 1.0628884e-15            4            1            4 1.3248951e-16 
    1760    881.24832        9 1.0661385e-15            4            1            4 1.3249022e-16 
    1765    883.11398        9 1.0694003e-15            4            1            4 1.3249129e-16 
    1770    885.05783        9 1.0726732e-15            4            1            4 1.3249201e-16 
    1775    887.14659        9 1.0759578e-15            4            1            4 1.324931e-16 
    1780    889.07133        9 1.0792536e-15            4            1            4 1.3249383e-16 
    1785    890.93084        9 1.0825612e-15            4            1            4 1.3249493e-16 
    1790    892.73354        9 1.0858801e-15            4            1            4 1.3249567e-16 
    1795    894.55937        9 1.0892109e-15            4            1            4 1.3249679e-16 
    1800    896.49468        9 1.092553e-15            4            1            4 1.3249755e-16 
    1805    898.45345        9 1.0959071e-15            4            1            4 1.3249868e-16 
    1810    900.33284        9 1.0992726e-15            4            1            4 1.3249945e-16 
    1815    902.27612        9 1.1026503e-15            4            1            4 1.325006e-16 
    1820     904.1777        9 1.1060393e-15            4            1            4 1.3250137e-16 
    1825    906.02158        9 1.1094406e-15            4            1            4 1.3250254e-16 
    1830    907.90935        9 1.1128534e-15            4            1            4 1.3250333e-16 
    1835    909.87615       10 1.1162785e-15            4            1            5 1.3250452e-16 
    1840    911.75072       10 1.1197152e-15            4            1            5 1.3250532e-16 
    1845    913.64943       10 1.1231643e-15            4            1            5 1.3250652e-16 
    1850    915.54039       10 1.126625e-15            4            1            5 1.3250733e-16 
    1855    917.35591       10 1.1300982e-15            4            1            5 1.3250855e-16 
    1860     919.3401       10 1.1335832e-15            4            1            5 1.3250938e-16 
    1865    921.41831       10 1.1370808e-15            4            1            5 1.3251062e-16 
    1870    923.34213       10 1.1405902e-15            4            1            5 1.3251145e-16 
    1875    925.21932       10 1.1441122e-15            4            1            5 1.3251271e-16 
    1880    927.10012       10 1.1476462e-15            4            1            5 1.3251356e-16 
    1885    928.99486       10 1.1511929e-15            4            1            5 1.3251484e-16 
    1890    930.85958       10 1.1547516e-15            4            1            5 1.325157e-16 
    1895    932.72326       10 1.1583232e-15            4            1            5 1.3251699e-16 
    1900    934.69197       10 1.1619068e-15            4            1            5 1.3251787e-16 
    1905    936.66577       11 1.1655034e-15            5            1            5 1.3251918e-16 
    1910    938.64272       11 1.1691121e-15            5            1            5 1.3252007e-16 
    1915    940.62128       11 1.1727339e-15            5            1            5 1.325214e-16 
    1920    942.59323       11 1.1763678e-15            5            1            5 1.325223e-16 
    1925     944.5683       11 1.180015e-15            5            1            5 1.3252366e-16 
    1930    946.57193       11 1.1836744e-15            5            1            5 1.3252457e-16 
    1935    948.53462       11 1.1873471e-15            5            1            5 1.3252594e-16 
    1940    950.50649       11 1.1910321e-15            5            1            5 1.3252687e-16 
    1945    952.51068       11 1.1947305e-15            5            1            5 1.3252826e-16 
    1950     954.5434       11 1.1984414e-15            5            1            5 1.325292e-16 
    1955     956.5327       11 1.2021657e-15            5            1            5 1.3253062e-16 
    1960    958.54522       11 1.2059025e-15            5            1            5 1.3253157e-16 
    1965    960.58344       11 1.2096529e-15            5            1            5 1.3253301e-16 
    1970    962.61084       11 1.2134159e-15            5            1            5 1.3253397e-16 
    1975    964.58823       11 1.2171925e-15            5            1            5 1.3253543e-16 
    1980    966.57674       11 1.2209819e-15            5            1            5 1.3253641e-16 
    1985    968.89955       11 1.224785e-15            5            1            5 1.3253789e-16 
    1990    970.90775       11 1.2286009e-15            5            1            5 1.3253889e-16 
    1995    972.98287       11 1.2324306e-15            5            1            5 1.3254039e-16 
    2000    975.07707       11 1.2362732e-15            5            1            5 1.325414e-16 
    2005    977.15708       11 1.2401298e-15            5            1            5 1.3254292e-16 
    2010    979.19682       11 1.2439993e-15            5            1            5 1.3254395e-16 
    2015     981.2526       11 1.2478829e-15            5            1            5 1.3254549e-16 
    2020     983.2769       12 1.2517795e-15            6            1            5 1.3254653e-16 
    2025    985.27666       12 1.2556901e-15            6            1            5 1.3254791e-16 
    2030    987.27318       12 1.2596143e-15            6            1            5 1.3254924e-16 
    2035    989.29908       12 1.2635522e-15            6            1            5 1.3255059e-16 
    2040    991.46374       12 1.2675038e-15            6            1            5 1.3255195e-16 
    2045    993.76507       12 1.2714693e-15            6            1            5 1.3255331e-16 
    2050    995.92984       13 1.275449e-15            7            1            5 1.3255498e-16 
    2055    998.05533       13 1.2794422e-15            7            1            5 1.3255633e-16 
    2060    1000.2177       13 1.2834492e-15            7            1            5 1.3255751e-16 
    2065    1002.3606       13 1.2874707e-15            7            1            5 1.3255922e-16 
    2070    1004.4934       13 1.291506e-15            7            1            5 1.3256059e-16 
    2075    1006.5685       13 1.2955551e-15            7            1            5 1.325618e-16 
    2080    1008.6754       13 1.299619e-15            7            1            5 1.3256354e-16 
    2085    1010.7987       13 1.3036967e-15            7            1            5 1.3256495e-16 
    2090    1012.9176       13 1.3077884e-15            7            1            5 1.3256618e-16 
    2095    1015.0152       13 1.3118951e-15            7            1            5 1.3256796e-16 
    2100    1017.1286       13 1.3160157e-15            7            1            5 1.325694e-16 
    2105    1019.2829       13 1.3201505e-15            7            1            5 1.3257066e-16 
    2110    1021.5256       13 1.3243003e-15            7            1            5 1.3257247e-16 
    2115    1023.7227       13 1.3284643e-15            7            1            5 1.3257395e-16 
    2120    1025.8883       13 1.3326427e-15            7            1            5 1.3257523e-16 
    2125    1028.0544       13 1.3368362e-15            7            1            5 1.3257708e-16 
    2130    1030.2432       14 1.341044e-15            7            1            6 1.3257859e-16 
    2135     1032.342       14 1.3452666e-15            7            1            6 1.3258023e-16 
    2140    1034.4612       14 1.349504e-15            7            1            6 1.3258184e-16 
    2145    1036.6095       14 1.3537561e-15            7            1            6 1.3258346e-16 
    2150      1038.81       14 1.3580232e-15            7            1            6 1.3258513e-16 
    2155    1040.9569       14 1.3623052e-15            7            1            6 1.3258681e-16 
    2160    1043.0679       14 1.3666021e-15            7            1            6 1.325885e-16 
    2165    1045.1515       14 1.3709141e-15            7            1            6 1.325902e-16 
    2170     1047.376       14 1.3752412e-15            7            1            6 1.3259192e-16 
    2175    1049.6447       14 1.3795833e-15            7            1            6 1.3259365e-16 
    2180    1051.9157       14 1.3839407e-15            7            1            6 1.3259539e-16 
    2185    1054.1676       14 1.3883133e-15            7            1            6 1.3259714e-16 
    2190    1056.4197       14 1.3927012e-15            7            1            6 1.325989e-16 
    2195    1058.5652       14 1.3971044e-15            7            1            6 1.3260068e-16 
    2200    1060.7532       14 1.401523e-15            7            1            6 1.3260246e-16 
    2205    1063.0001       14 1.405957e-15            7            1            6 1.3260427e-16 
    2210    1065.2692       15 1.4104066e-15            7            1            7 1.3260608e-16 
    2215    1067.5002       15 1.4148717e-15            7            1            7 1.326079e-16 
    2220    1069.8267       15 1.4193524e-15            7            1            7 1.3260974e-16 
    2225    1072.0423       15 1.4238488e-15            7            1            7 1.3261159e-16 
    2230    1074.2901       15 1.4283609e-15            7            1            7 1.3261346e-16 
    2235    1076.6041       15 1.4328887e-15            7            1            7 1.3261533e-16 
    2240    1078.9299       15 1.4374324e-15            7            1            7 1.3261722e-16 
    2245    1081.2568       15 1.441992e-15            7            1            7 1.3261913e-16 
    2250    1083.5407       15 1.4465675e-15            7            1            7 1.3262105e-16 
    2255     1085.858       15 1.451159e-15            7            1            7 1.3262298e-16 
    2260    1088.2012       15 1.4557666e-15            7            1            7 1.3262492e-16 
    2265    1090.5738       15 1.4603903e-15            7            1            7 1.3262688e-16 
    2270    1092.9235       15 1.4650301e-15            7            1            7 1.3262885e-16 
    2275    1095.2327       15 1.4696862e-15            7            1            7 1.3263083e-16 
    2280    1097.5518       15 1.4743585e-15            7            1            7 1.3263283e-16 
    2285    1099.9306       15 1.4790472e-15            7            1            7 1.3263484e-16 
    2290    1102.2453       15 1.4837523e-15            7            1            7 1.3263687e-16 
    2295    1104.5256       15 1.4884738e-15            7            1            7 1.3263891e-16 
    2300    1106.8031       15 1.4932118e-15            7            1            7 1.3264097e-16 
    2305    1109.2132       15 1.4979664e-15            7            1            7 1.3264304e-16 
    2310    1111.6108       15 1.5027376e-15            7            1            7 1.3264512e-16 
    2315    1114.0021       15 1.5075255e-15            7            1            7 1.3264722e-16 
    2320    1116.3467       15 1.5123301e-15            7            1            7 1.3264934e-16 
    2325    1118.7424       15 1.5171515e-15            7            1            7 1.3265146e-16 
    2330    1121.0944       15 1.5219898e-15            7            1            7 1.3265361e-16 
    2335    1123.4543       15 1.526845e-15            7            1            7 1.3265577e-16 
    2340    1125.8661       15 1.5317172e-15            7            1            7 1.3265794e-16 
    2345    1128.2883       15 1.5366064e-15            7            1            7 1.3266013e-16 
    2350     1130.713       15 1.5415127e-15            7            1            7 1.3266234e-16 
    2355    1133.1085       15 1.5464361e-15            7            1            7 1.3266456e-16 
    2360    1135.5006       15 1.5513768e-15            7            1            7 1.326668e-16 
    2365    1137.8671       15 1.5563347e-15            7            1            7 1.3266905e-16 
    2370    1140.3217       15  1.56131e-15            7            1            7 1.3267132e-16 
    2375    1142.8004       15 1.5663027e-15            7            1            7 1.326736e-16 
    2380    1145.2209       15 1.5713128e-15            7            1            7 1.326759e-16 
    2385    1147.7462       15 1.5763404e-15            7            1            7 1.3267822e-16 
    2390    1150.2553       15 1.5813856e-15            7            1            7 1.3268055e-16 
    2395    1152.6717       15 1.5864485e-15            7            1            7 1.326829e-16 
    2400    1155.1003       15 1.591529e-15            7            1            7 1.3268527e-16 
    2405     1157.516       15 1.5966273e-15            7            1            7 1.3268765e-16 
    2410     1159.966       15 1.6017435e-15            7            1            7 1.3269005e-16 
    2415    1162.4203       15 1.6068775e-15            7            1            7 1.3269247e-16 
    2420    1164.8892       15 1.6120295e-15            7            1            7 1.3269491e-16 
    2425     1167.293       15 1.6171995e-15            7            1            7 1.3269736e-16 
    2430    1169.7268       15 1.6223876e-15            7            1            7 1.3269983e-16 
    2435    1172.2383       15 1.6275938e-15            7            1            7 1.3270232e-16 
    2440    1174.7544       15 1.6328182e-15            7            1            7 1.3270482e-16 
    2445    1177.2685       15 1.6380608e-15            7            1            7 1.3270735e-16 
    2450    1179.8483       15 1.6433218e-15            7            1            7 1.3270989e-16 
    2455    1182.4002       15 1.6486012e-15            7            1            7 1.3271245e-16 
    2460    1184.9403       15 1.6538991e-15            7            1            7 1.3271502e-16 
    2465     1187.506       15 1.6592155e-15            7            1            7 1.3271762e-16 
    2470    1190.0548       15 1.6645505e-15            7            1            7 1.3272023e-16 
    2475    1192.5893       15 1.6699041e-15            7            1            7 1.3272287e-16 
    2480    1195.2055       16 1.6752764e-15            8            1            7 1.3272552e-16 
    2485    1197.6978       16 1.6806676e-15            8            1            7 1.3272819e-16 
    2490    1200.2845       16 1.6860775e-15            8            1            7 1.3273088e-16 
    2495     1202.823       16 1.6915064e-15            8            1            7 1.3273359e-16 
    2500    1205.4373       16 1.6969543e-15            8            1            7 1.3273632e-16 
    2505    1208.0003       16 1.7024212e-15            8            1            7 1.3273907e-16 
    2510    1210.6103       16 1.7079073e-15            8            1            7 1.3274184e-16 
    2515    1213.2235       16 1.7134125e-15            8            1            7 1.3274463e-16 
    2520    1215.8186       16 1.7189369e-15            8            1            7 1.3274743e-16 
    2525    1218.4898       16 1.7244807e-15            8            1            7 1.3275026e-16 
    2530    1221.0871       16 1.7300439e-15            8            1            7 1.3275311e-16 
    2535    1223.7539       16 1.7356265e-15            8            1            7 1.3275598e-16 
    2540    1226.4403       16 1.7412287e-15            8            1            7 1.3275887e-16 
    2545    1229.1239       16 1.7468504e-15            8            1            7 1.3276178e-16 
    2550    1231.8004       16 1.7524918e-15            8            1            7 1.3276471e-16 
    2555    1234.4627       16 1.7581529e-15            8            1            7 1.3276767e-16 
    2560    1237.1567       16 1.7638338e-15            8            1            7 1.3277064e-16 
    2565    1239.8195       16 1.7695346e-15            8            1            7 1.3277363e-16 
    2570    1242.4204       16 1.7752553e-15            8            1            7 1.3277665e-16 
    2575    1245.0391       16 1.780996e-15            8            1            7 1.3277969e-16 
    2580    1247.7589       16 1.7867568e-15            8            1            7 1.3278275e-16 
    2585    1250.4242       16 1.7925377e-15            8            1            7 1.3278583e-16 
    2590    1253.1059       16 1.7983388e-15            8            1            7 1.3278894e-16 
    2595    1255.8275       16 1.8041603e-15            8            1            7 1.3279207e-16 
    2600    1258.5279       16 1.810002e-15            8            1            7 1.3279522e-16 
    2605    1261.1933       16 1.8158643e-15            8            1            7 1.3279839e-16 
    2610    1263.8912       16 1.821747e-15            8            1            7 1.3280159e-16 
    2615    1266.5848       16 1.8276502e-15            8            1            7 1.328048e-16 
    2620    1269.3679       16 1.8335742e-15            8            1            7 1.3280805e-16 
    2625    1272.1162       16 1.8395188e-15            8            1            7 1.3281131e-16 
    2630    1274.8766       16 1.8454842e-15            8            1            7 1.328146e-16 
    2635    1277.5997       16 1.8514705e-15            8            1            7 1.3281791e-16 
    2640    1280.2561       16 1.8574777e-15            8            1            7 1.3282125e-16 
    2645    1283.0416       16 1.8635059e-15            8            1            7 1.3282461e-16 
    2650    1285.7567       16 1.8695552e-15            8            1            7  1.32828e-16 
    2655    1288.5569       16 1.8756257e-15            8            1            7 1.3283141e-16 
    2660    1291.3643       16 1.8817174e-15            8            1            7 1.3283484e-16 
    2665    1294.1008       16 1.8878304e-15            8            1            7 1.328383e-16 
    2670    1296.8056       16 1.8939647e-15            8            1            7 1.3284179e-16 
    2675    1299.5612       16 1.9001205e-15            8            1            7 1.328453e-16 
    2680    1302.4799       16 1.9062979e-15            8            1            7 1.3284883e-16 
    2685    1305.3934       16 1.9124968e-15            8            1            7 1.328524e-16 
    2690    1308.2638       16 1.9187174e-15            8            1            7 1.3285598e-16 
    2695    1311.0653       16 1.9249598e-15            8            1            7 1.328596e-16 
    2700    1313.9171       16 1.931224e-15            8            1            7 1.3286324e-16 
    2705     1316.755       16 1.9375101e-15            8            1            7 1.328669e-16 
    2710    1319.5246       16 1.9438182e-15            8            1            7 1.3287059e-16 
    2715    1322.2734       16 1.9501484e-15            8            1            7 1.3287431e-16 
    2720    1325.0003       16 1.9565006e-15            8            1            7 1.3287806e-16 
    2725    1327.7418       17 1.9628751e-15            8            1            8 1.3288183e-16 
    2730    1330.5203       17 1.9692719e-15            8            1            8 1.3288563e-16 
    2735    1333.2636       17 1.9756911e-15            8            1            8 1.3288946e-16 
    2740    1336.0845       17 1.9821327e-15            8            1            8 1.3289332e-16 
    2745    1339.2615       17 1.9885968e-15            8            1            8 1.3289721e-16 
    2750    1342.2834       17 1.9950836e-15            8            1            8 1.3290112e-16 
    2755    1345.1888       17 2.001593e-15            8            1            8 1.3290506e-16 
    2760    1348.1072       17 2.0081252e-15            8            1            8 1.3290903e-16 
    2765    1351.1127       17 2.0146803e-15            8            1            8 1.3291303e-16 
    2770     1354.106       17 2.0212582e-15            8            1            8 1.3291706e-16 
    2775    1357.0167       17 2.0278592e-15            8            1            8 1.3292112e-16 
    2780    1359.9721       17 2.0344832e-15            8            1            8 1.329252e-16 
    2785    1362.9664       17 2.0411305e-15            8            1            8 1.3292932e-16 
    2790    1365.8981       17 2.0478009e-15            8            1            8 1.3293347e-16 
    2795    1368.7963       17 2.0544947e-15            8            1            8 1.3293764e-16 
    2800    1371.7232       17 2.0612119e-15            8            1            8 1.3294185e-16 
    2805    1374.6689       17 2.0679526e-15            8            1            8 1.3294609e-16 
    2810    1377.7835       17 2.0747169e-15            8            1            8 1.3295036e-16 
    2815    1381.0318       17 2.0815048e-15            8            1            8 1.3295466e-16 
    2820    1384.3048       18 2.0883165e-15            9            1            8 1.3295899e-16 
    2825    1404.7217       19 2.0951541e-15            9            1            9 1.3296552e-16 
    2830    1405.1085       19 2.1020162e-15            9            1            9 1.3297253e-16 
    2835    1405.4829       19 2.1089013e-15            9            1            9 1.3297868e-16 
    2840    1405.8535       19 2.1158099e-15            9            1            9 1.3298427e-16 
    2845     1406.221       19 2.1227422e-15            9            1            9 1.3298949e-16 
    2850    1408.1541       19 2.1296984e-15            9            1            9 1.3299433e-16 
    2855    1411.2624       19 2.1366787e-15            9            1            9 1.3299896e-16 
    2860    1414.5483       19 2.1436834e-15            9            1            9 1.3300363e-16 
    2865    1417.4922       19 2.1507126e-15            9            1            9 1.3300832e-16 
    2870    1420.5415       19 2.1577664e-15            9            1            9 1.3301306e-16 
    2875    1423.6886       19 2.1648448e-15            9            1            9 1.3301782e-16 
    2880    1426.7914       20 2.171948e-15            9            1           10 1.3302262e-16 
    2885    1429.8721       20 2.179076e-15            9            1           10 1.3302745e-16 
    2890    1433.0359       20 2.186229e-15            9            1           10 1.3303231e-16 
    2895    1436.1997       20 2.193407e-15            9            1           10 1.3303722e-16 
    2900    1439.3832       20 2.2006101e-15            9            1           10 1.3304215e-16 
    2905    1442.5262       20 2.2078384e-15            9            1           10 1.3304712e-16 
    2910    1445.6369       20 2.215092e-15            9            1           10 1.3305213e-16 
    2915    1448.7528       20 2.2223709e-15            9            1           10 1.3305717e-16 
    2920    1451.8965       21 2.2296753e-15           10            1           10 1.3306225e-16 
    2925    1455.0313       21 2.2370052e-15           10            1           10 1.3306736e-16 
    2930    1458.1527       21 2.2443608e-15           10            1           10 1.3307251e-16 
    2935    1479.0886       22 2.2517454e-15           11            1           10 1.3308093e-16 
    2940    1479.4613       22 2.2591552e-15           11            1           10 1.3308888e-16 
    2945    1479.8493       22  2.26659e-15           11            1           10 1.3309589e-16 
    2950    1480.2413       22 2.2740502e-15           11            1           10 1.3310229e-16 
    2955    1480.6513       22 2.281536e-15           11            1           10 1.3310832e-16 
    2960      1481.08       22 2.2890478e-15           11            1           10 1.3311411e-16 
    2965    1481.5306       22 2.2965856e-15           11            1           10 1.3311977e-16 
    2970    1481.9591       22 2.3041497e-15           11            1           10 1.3312535e-16 
    2975    1482.3875       22 2.3117401e-15           11            1           10 1.3313087e-16 
    2980    1483.8755       22 2.3193571e-15           11            1           10 1.3313637e-16 
    2985    1486.2258       22 2.3270006e-15           11            1           10 1.3314186e-16 
    2990    1488.5359       22 2.3346709e-15           11            1           10 1.3314738e-16 
    2995    1490.8351       23 2.3423679e-15           11            1           11 1.3315292e-16 
    3000    1493.2054       24 2.3500919e-15           12            1           11 1.331585e-16 
    3005    1495.5704       24 2.3578429e-15           12            1           11 1.331641e-16 
    3010    1497.9592       24 2.365621e-15           12            1           11 1.3316973e-16 
    3015    1500.3917       24 2.3734263e-15           12            1           11 1.3317539e-16 
    3020    1502.8254       24 2.3812589e-15           12            1           11 1.3318108e-16 
    3025    1505.2867       24 2.3891189e-15           12            1           11 1.331868e-16 
    3030    1508.0559       24 2.3970063e-15           12            1           11 1.3319255e-16 
    3035    1511.2835       24 2.4049213e-15           12            1           11 1.3319834e-16 
    3040    1514.4251       24 2.4128641e-15           12            1           11 1.3320417e-16 
    3045    1517.5811       24 2.4208345e-15           12            1           11 1.3321004e-16 
    3050    1520.7853       25 2.4288329e-15           13            1           11 1.3321595e-16 
    3055    1524.0184       25 2.4368593e-15           13            1           11 1.332219e-16 
    3060    1527.2172       25 2.4449137e-15           13            1           11 1.332279e-16 
    3065     1530.459       25 2.4529963e-15           13            1           11 1.3323393e-16 
    3070    1533.6761       25 2.4611072e-15           13            1           11 1.3324001e-16 
    3075    1536.9997       26 2.4692464e-15           14            1           11 1.3324612e-16 
    3080     1540.284       26 2.4774141e-15           14            1           11 1.3325229e-16 
    3085    1543.6339       26 2.4856104e-15           14            1           11 1.3325849e-16 
    3090    1546.9494       26 2.4938353e-15           14            1           11 1.3326474e-16 
    3095    1550.2161       26 2.502089e-15           14            1           11 1.3327103e-16 
    3100    1553.4993       26 2.5103716e-15           14            1           11 1.3327736e-16 
    3105    1556.8315       26 2.5186832e-15           14            1           11 1.3328374e-16 
    3110    1560.1616       26 2.5270238e-15           14            1           11 1.3329017e-16 
    3115    1563.5089       26 2.5353936e-15           14            1           11 1.3329664e-16 
    3120    1566.8752       26 2.5437927e-15           14            1           11 1.3330315e-16 
    3125    1570.4046       26 2.5522211e-15           14            1           11 1.3330971e-16 
    3130    1573.7716       26 2.5606791e-15           14            1           11 1.3331631e-16 
    3135    1577.1094       26 2.5691666e-15           14            1           11 1.3332296e-16 
    3140    1580.4612       26 2.5776838e-15           14            1           11 1.3332966e-16 
    3145    1583.7975       26 2.5862308e-15           14            1           11 1.3333641e-16 
    3150    1587.1804       27 2.5948077e-15           14            1           12 1.333432e-16 
    3155    1590.6002       27 2.6034146e-15           14            1           12 1.3335003e-16 
    3160      1594.07       27 2.6120516e-15           14            1           12 1.3335692e-16 
    3165    1597.4368       27 2.6207189e-15           14            1           12 1.3336385e-16 
    3170    1600.9346       27 2.6294164e-15           14            1           12 1.3337084e-16 
    3175    1604.3821       27 2.6381444e-15           14            1           12 1.3337787e-16 
    3180    1607.8155       27 2.6469029e-15           14            1           12 1.3338495e-16 
    3185    1611.2914       27 2.655692e-15           14            1           12 1.3339208e-16 
    3190     1614.727       27 2.6645119e-15           14            1           12 1.3339925e-16 
    3195    1618.1422       27 2.6733626e-15           14            1           12 1.3340648e-16 
    3200    1621.6182       27 2.6822443e-15           14            1           12 1.3341376e-16 
    3205    1625.1057       27 2.6911571e-15           14            1           12 1.3342109e-16 
    3210    1628.3063       27 2.700101e-15           14            1           12 1.3342847e-16 
    3215    1631.3716       27 2.7090762e-15           14            1           12 1.334359e-16 
    3220    1634.4033       27 2.7180828e-15           14            1           12 1.3344338e-16 
    3225    1637.4455       27 2.727121e-15           14            1           12 1.3345091e-16 
    3230    1640.5203       28 2.7361907e-15           15            1           12 1.334585e-16 
    3235    1643.5811       28 2.7452922e-15           15            1           12 1.3346614e-16 
    3240    1646.8613       28 2.7544255e-15           15            1           12 1.3347383e-16 
    3245    1649.9752       28 2.7635907e-15           15            1           12 1.3348158e-16 
    3250    1653.1101       28 2.7727881e-15           15            1           12 1.3348937e-16 
    3255    1656.2666       28 2.7820176e-15           15            1           12 1.3349723e-16 
    3260    1659.4096       28 2.7912793e-15           15            1           12 1.3350513e-16 
    3265    1662.5155       28 2.8005735e-15           15            1           12 1.3351309e-16 
    3270    1665.6802       28 2.8099002e-15           15            1           12 1.3352111e-16 
    3275    1668.8257       28 2.8192595e-15           15            1           12 1.3352918e-16 
    3280    1671.9876       28 2.8286516e-15           15            1           12 1.3353731e-16 
    3285    1675.1824       28 2.8380765e-15           15            1           12 1.3354549e-16 
    3290    1678.3912       28 2.8475344e-15           15            1           12 1.3355373e-16 
    3295    1681.6452       28 2.8570254e-15           15            1           12 1.3356203e-16 
    3300    1684.9282       28 2.8665495e-15           15            1           12 1.3357038e-16 
    3305    1688.2182       28 2.876107e-15           15            1           12 1.3357879e-16 
    3310    1707.4819       30 2.885698e-15           15            1           14 1.3358726e-16 
    3315    1707.9884       30 2.8953261e-15           15            1           14 1.3359943e-16 
    3320    1708.5103       30 2.9049857e-15           15            1           14 1.3360949e-16 
    3325     1709.043       30 2.9146783e-15           15            1           14 1.3361876e-16 
    3330    1709.6423       30 2.9244045e-15           15            1           14 1.3362774e-16 
    3335    1712.7888       30 2.9341645e-15           15            1           14 1.3363662e-16 
    3340    1716.0028       30 2.9439586e-15           15            1           14 1.3364554e-16 
    3345    1719.2867       30 2.953787e-15           15            1           14 1.3365452e-16 
    3350    1722.5627       30 2.9636498e-15           15            1           14 1.3366356e-16 
    3355    1725.8197       30 2.973547e-15           15            1           14 1.3367266e-16 
    3360    1729.1817       30 2.9834789e-15           15            1           14 1.3368183e-16 
    3365    1732.5343       30 2.9934456e-15           15            1           14 1.3369105e-16 
    3370    1735.8978       30 3.0034471e-15           15            1           14 1.3370033e-16 
    3375    1739.2027       30 3.0134836e-15           15            1           14 1.3370968e-16 
    3380    1742.5758       30 3.0235552e-15           15            1           14 1.3371909e-16 
    3385    1745.9319       30 3.0336621e-15           15            1           14 1.3372856e-16 
    3390     1749.271       30 3.0438043e-15           15            1           14 1.337381e-16 
    3395    1752.5771       30 3.053982e-15           15            1           14 1.337477e-16 
    3400    1755.9425       30 3.0641953e-15           15            1           14 1.3375737e-16 
    3405    1759.3158       30 3.0744443e-15           15            1           14 1.337671e-16 
    3410    1762.7175       30 3.0847292e-15           15            1           14 1.3377689e-16 
    3415    1766.1231       30 3.0950501e-15           15            1           14 1.3378676e-16 
    3420    1769.4626       30 3.105407e-15           15            1           14 1.3379669e-16 
    3425    1772.8568       30 3.1158002e-15           15            1           14 1.3380668e-16 
    3430    1776.2769       30 3.1262298e-15           15            1           14 1.3381675e-16 
    3435     1779.717       30 3.1366959e-15           15            1           14 1.3382688e-16 
    3440    1783.1367       30 3.1471985e-15           15            1           14 1.3383708e-16 
    3445    1786.6078       30 3.157738e-15           15            1           14 1.3384735e-16 
    3450    1790.0738       30 3.1683143e-15           15            1           14 1.3385769e-16 
    3455    1793.5485       30 3.1789276e-15           15            1           14 1.338681e-16 
    3460    1797.0632       30 3.189578e-15           15            1           14 1.3387859e-16 
    3465    1800.5921       30 3.2002657e-15           15            1           14 1.3388914e-16 
    3470    1804.1448       30 3.2109908e-15           15            1           14 1.3389976e-16 
    3475    1807.7765       30 3.2217534e-15           15            1           14 1.3391046e-16 
    3480    1811.4221       30 3.2325537e-15           15            1           14 1.3392123e-16 
    3485    1815.0265       30 3.2433917e-15           15            1           14 1.3393207e-16 
    3490    1818.6663       30 3.2542677e-15           15            1           14 1.3394298e-16 
    3495    1822.2563       30 3.2651817e-15           15            1           14 1.3395397e-16 
    3500     1825.905       30 3.2761339e-15           15            1           14 1.3396504e-16 
    3505    1829.5087       30 3.2871244e-15           15            1           14 1.3397618e-16 
    3510    1833.1447       30 3.2981534e-15           15            1           14 1.3398739e-16 
    3515     1836.818       30 3.309221e-15           15            1           14 1.3399868e-16 
    3520    1840.4283       30 3.3203273e-15           15            1           14 1.3401005e-16 
    3525    1844.0974       31 3.3314725e-15           15            1           15 1.3402149e-16 
    3530     1847.796       31 3.3426566e-15           15            1           15 1.3403302e-16 
    3535    1851.5085       31 3.3538799e-15           15            1           15 1.3404462e-16 
    3540    1855.2289       31 3.3651424e-15           15            1           15 1.340563e-16 
    3545    1858.9863       31 3.3764444e-15           15            1           15 1.3406806e-16 
    3550    1862.7464       31 3.3877859e-15           15            1           15 1.340799e-16 
    3555    1866.4523       31 3.3991671e-15           15            1           15 1.3409182e-16 
    3560    1870.2638       31 3.4105881e-15           15            1           15 1.3410382e-16 
    3565    1874.0113       31 3.4220491e-15           15            1           15 1.341159e-16 
    3570    1877.8041       31 3.4335502e-15           15            1           15 1.3412807e-16 
    3575    1881.6007       31 3.4450915e-15           15            1           15 1.3414031e-16 
    3580     1885.399       31 3.4566732e-15           15            1           15 1.3415265e-16 
    3585    1889.1779       31 3.4682954e-15           15            1           15 1.3416506e-16 
    3590    1892.9841       31 3.4799583e-15           15            1           15 1.3417756e-16 
    3595    1896.7837       31 3.491662e-15           15            1           15 1.3419014e-16 
    3600    1900.6146       32 3.5034067e-15           15            1           16 1.3420281e-16 
    3605    1904.4897       32 3.5151924e-15           15            1           16 1.3421557e-16 
    3610    1908.3548       32 3.5270194e-15           15            1           16 1.3422841e-16 
    3615     1912.185       32 3.5388878e-15           15            1           16 1.3424134e-16 
    3620    1916.0795       32 3.5507977e-15           15            1           16 1.3425436e-16 
    3625    1919.9878       32 3.5627492e-15           15            1           16 1.3426747e-16 
    3630    1923.9401       33 3.5747426e-15           15            1           17 1.3428067e-16 
    3635    1927.9254       33 3.586778e-15           15            1           17 1.3429395e-16 
    3640    1931.8768       33 3.5988555e-15           15            1           17 1.3430733e-16 
    3645    1935.8006       33 3.6109752e-15           15            1           17 1.343208e-16 
    3650    1939.7469       33 3.6231374e-15           15            1           17 1.3433436e-16 
    3655    1943.6398       34 3.6353421e-15           16            1           17 1.3434801e-16 
    3660    1947.5381       34 3.6475895e-15           16            1           17 1.3436175e-16 
    3665    1951.4735       34 3.6598798e-15           16            1           17 1.3437559e-16 
    3670    1955.6315       34 3.6722131e-15           16            1           17 1.3438953e-16 
    3675    1959.6672       34 3.6845895e-15           16            1           17 1.3440355e-16 
    3680    1963.6981       34 3.6970092e-15           16            1           17 1.3441768e-16 
    3685    1967.7556       34 3.7094725e-15           16            1           17 1.344319e-16 
    3690    1971.7743       34 3.7219793e-15           16            1           17 1.3444621e-16 
    3695    1975.7638       34 3.7345299e-15           16            1           17 1.3446063e-16 
    3700    1979.7396       34 3.7471244e-15           16            1           17 1.3447514e-16 
    3705     1983.738       34 3.759763e-15           16            1           17 1.3448975e-16 
    3710    1987.7775       34 3.7724458e-15           16            1           17 1.3450446e-16 
    3715    1991.8353       34 3.785173e-15           16            1           17 1.3451927e-16 
    3720    1995.8989       34 3.7979447e-15           16            1           17 1.3453418e-16 
    3725    1999.9457       35 3.8107611e-15           17            1           17 1.345492e-16 
    3730    2004.0326       35 3.8236224e-15           17            1           17 1.3456431e-16 
    3735    2021.2642       35 3.8365316e-15           17            1           17 1.3458243e-16 
    3740    2022.0904       35 3.8494846e-15           17            1           17 1.3459929e-16 
    3745    2022.9102       36 3.8624818e-15           18            1           17 1.3461515e-16 
    3750    2025.3621       37 3.8755243e-15           19            1           17 1.3463086e-16 
    3755    2029.3635       37 3.8886123e-15           19            1           17 1.3464662e-16 
    3760    2033.3999       37 3.9017462e-15           19            1           17 1.346625e-16 
    3765    2037.4568       37 3.914926e-15           19            1           17 1.3467847e-16 
    3770    2041.5792       37 3.9281519e-15           19            1           17 1.3469455e-16 
    3775    2045.7315       37 3.9414241e-15           19            1           17 1.3471074e-16 
    3780    2049.9143       37 3.9547428e-15           19            1           17 1.3472704e-16 
    3785    2054.0853       37 3.9681081e-15           19            1           17 1.3474344e-16 
    3790    2058.3063       37 3.9815201e-15           19            1           17 1.3475996e-16 
    3795    2062.5468       37 3.9949791e-15           19            1           17 1.3477658e-16 
    3800    2066.7972       37 4.0084852e-15           19            1           17 1.3479332e-16 
    3805     2071.071       37 4.0220385e-15           19            1           17 1.3481017e-16 
    3810     2075.323       37 4.0356393e-15           19            1           17 1.3482714e-16 
    3815    2079.6071       38 4.0492877e-15           20            1           17 1.3484421e-16 
    3820    2083.9062       38 4.0629839e-15           20            1           17 1.3486141e-16 
    3825    2088.1749       39 4.076728e-15           21            1           17 1.3487871e-16 
    3830    2092.5084       39 4.0905201e-15           21            1           17 1.3489614e-16 
    3835    2096.7679       39 4.1043606e-15           21            1           17 1.3491368e-16 
    3840    2101.0262       39 4.1182495e-15           21            1           17 1.3493135e-16 
    3845    2105.2946       39 4.132187e-15           21            1           17 1.3494913e-16 
    3850    2109.7919       40 4.1461733e-15           22            1           17 1.3496703e-16 
    3855    2114.1166       40 4.1602085e-15           22            1           17 1.3498505e-16 
    3860    2118.4292       40 4.1742929e-15           22            1           17 1.3500319e-16 
    3865    2122.7586       40 4.1884265e-15           22            1           17 1.3502146e-16 
    3870    2127.0907       40 4.2026096e-15           22            1           17 1.3503985e-16 
    3875    2131.4468       40 4.2168424e-15           22            1           17 1.3505836e-16 
    3880    2135.8266       40 4.2311249e-15           22            1           17  1.35077e-16 
    3885    2140.2187       40 4.2454575e-15           22            1           17 1.3509577e-16 
    3890    2144.6493       40 4.2598402e-15           22            1           17 1.3511466e-16 
    3895    2149.0569       41 4.2742733e-15           22            1           18 1.3513368e-16 
    3900    2153.4923       41 4.2887568e-15           22            1           18 1.3515283e-16 
[...]
    4045    2532.6545       44 4.7320067e-15           23            1           20 1.3620491e-16 
    4050     2533.526       44 4.7481175e-15           23            1           20 1.3625494e-16 
    4055    2534.4326       44 4.7642684e-15           23            1           20 1.3628892e-16 
    4060    2535.3662       44 4.7804733e-15           23            1           20 1.3632052e-16 
    4065    2537.2851       44 4.7967345e-15           23            1           20 1.3635186e-16 
    4070     2541.103       44 4.8130526e-15           23            1           20 1.3638329e-16 
    4075     2544.976       44 4.8294277e-15           23            1           20 1.3641488e-16 
    4080    2548.9373       44 4.8458601e-15           23            1           20 1.3644662e-16 
    4085    2552.9914       45  4.86235e-15           24            1           20 1.3647851e-16 
    4090    2557.1067       45 4.8788975e-15           24            1           20 1.3651055e-16 
    4095    2561.2757       45 4.895503e-15           24            1           20 1.3654275e-16 
    4100    2565.4255       45 4.9121666e-15           24            1           20 1.365751e-16 
    4105    2569.6257       45 4.9288884e-15           24            1           20 1.366076e-16 
    4110    2660.6771       46 4.9456856e-15           24            1           21 1.3665711e-16 
    4115    2729.8635       46 4.962633e-15           24            1           21 1.3679825e-16 
    4120    2794.8234       46 4.9795683e-15           24            1           21 1.3686859e-16 
    4125    2822.5441       46 4.9965636e-15           24            1           21 1.3694004e-16 
    4130    2822.6606       47 5.013486e-15           24            1           22 1.3687936e-16 
    4135    2822.7775       49 5.0304776e-15           24            1           24 1.3682842e-16 
    4140    2825.6872       50 5.0475731e-15           25            1           24 1.3682188e-16 
    4145    2828.6716       50 5.0647746e-15           25            1           24 1.3686157e-16 
    4150    2831.9014       51 5.0820341e-15           26            1           24 1.368992e-16 
    4155    2835.2308       51 5.0993541e-15           26            1           24 1.3693716e-16 
    4160      2838.81       51 5.1167348e-15           26            1           24 1.3697545e-16 
    4165    2842.3535       51 5.1341765e-15           26            1           24 1.3701405e-16 
    4170    2846.0321       51 5.1516793e-15           26            1           24 1.3705295e-16 
    4175     2849.805       51 5.1692435e-15           26            1           24 1.3709213e-16 
    4180    2853.6452       53 5.1868692e-15           28            1           24 1.371316e-16 
    4185    2857.6569       53 5.2045567e-15           28            1           24 1.3717133e-16 
    4190    2861.6694       53 5.2223061e-15           28            1           24 1.3721132e-16 
    4195     2865.889       53 5.2401177e-15           28            1           24 1.3725157e-16 
    4200     2869.959       53 5.2579917e-15           28            1           24 1.3729207e-16 
    4205     2874.098       53 5.2759282e-15           28            1           24 1.373328e-16 
    4210    2878.5845       53 5.2939276e-15           28            1           24 1.3737377e-16 
    4215    2849.8257       53 5.3119899e-15           28            1           24 1.3741497e-16 
    4220    2854.0754       54 5.3301155e-15           28            1           25 1.374564e-16 
    4225    2858.4329       55 5.3483045e-15           29            1           25 1.3749804e-16 
    4230    2862.9151       55 5.3665572e-15           29            1           25 1.375399e-16 
    4235    2867.3605       55 5.3848738e-15           29            1           25 1.3758197e-16 
    4240    2871.9273       55 5.4032544e-15           29            1           25 1.3762426e-16 
    4245    2876.4639       55 5.4216994e-15           29            1           25 1.3766675e-16 
    4250    2881.0672       55 5.4402089e-15           29            1           25 1.3770944e-16 
    4255     2885.729       55 5.4587832e-15           29            1           25 1.3775233e-16 
    4260    2890.4786       55 5.4774225e-15           29            1           25 1.3779543e-16 
    4265    2895.2141       55 5.4961269e-15           29            1           25 1.3783872e-16 
    4270    2899.9701       55 5.5148968e-15           29            1           25 1.3788221e-16 
    4275    2904.6671       55 5.5337324e-15           29            1           25 1.379259e-16 
    4280    2909.6004       55 5.5526339e-15           29            1           25 1.3796978e-16 
    4285    2914.7815       55 5.5716014e-15           29            1           25 1.3801385e-16 
    4290    2919.6509       55 5.5906354e-15           29            1           25 1.3805811e-16 
    4295    2924.8299       55 5.6097359e-15           29            1           25 1.3810257e-16 
    4300    2929.7379       55 5.6289032e-15           29            1           25 1.3814721e-16 
    4305    2934.7813       55 5.6481375e-15           29            1           25 1.3819205e-16 
    4310    2939.8145       55 5.6674391e-15           29            1           25 1.3823707e-16 
    4315    2944.8902       56 5.6868083e-15           29            1           26 1.3828228e-16 
    4320    2950.0497       56 5.7062452e-15           29            1           26 1.3832768e-16 
    4325    2955.1214       56  5.72575e-15           29            1           26 1.3837327e-16 
    4330    2960.5121       56 5.7453231e-15           29            1           26 1.3841905e-16 
    4335    2965.8493       57 5.7649646e-15           30            1           26 1.3846501e-16 
    4340    2971.1462       57 5.7846748e-15           30            1           26 1.3851116e-16 
    4345     2976.412       57 5.804454e-15           30            1           26 1.385575e-16 
    4350    2981.8403       57 5.8243023e-15           30            1           26 1.3860402e-16 
    4355    2987.5072       57 5.8442201e-15           30            1           26 1.3865074e-16 
    4360    2992.9556       57 5.8642074e-15           30            1           26 1.3869764e-16 
    4365    2998.1383       57 5.8842647e-15           30            1           26 1.3874472e-16 
    4370    3003.5429       57 5.9043922e-15           30            1           26  1.38792e-16 
    4375    3008.9801       57  5.92459e-15           30            1           26 1.3883947e-16 
    4380    3013.9596       57 5.9448585e-15           30            1           26 1.3888712e-16 
    4385    3018.8886       57 5.9651978e-15           30            1           26 1.3893497e-16 
    4390    3024.0212       57 5.9856083e-15           30            1           26  1.38983e-16 
    4395    3029.1019       57 6.0060901e-15           30            1           26 1.3903122e-16 
    4400    3034.1593       57 6.0266436e-15           30            1           26 1.3907965e-16 
    4405    3039.2548       57 6.0472689e-15           30            1           26 1.3912824e-16 
    4410    3044.4066       57 6.0679664e-15           30            1           26 1.3917707e-16 
    4415    3049.7673       57 6.0887362e-15           30            1           26  1.39226e-16 
    4420    3055.0814       59 6.1095788e-15           31            1           27 1.3927532e-16 
    4425    3060.4379       59 6.1304939e-15           31            1           27 1.3932441e-16 
    4430    3065.6772       59 6.1514831e-15           31            1           27 1.3937468e-16 
    4435    3071.0673       59 6.1725433e-15           31            1           27 1.3942267e-16 
    4440    3076.3532       59 6.193683e-15           31            1           27 1.3947684e-16 
    4445    3081.6214       59 6.2148689e-15           31            1           27 1.395034e-16 
    4450    3086.8832       59 6.2361359e-15           31            1           27 1.3953715e-16 
    4455     3092.387       59 6.2574429e-15           31            1           27 1.3953663e-16 
    4460    3097.7842       59 6.2788595e-15           31            1           27 1.3957118e-16 
    4465    3103.4364       61 6.3003163e-15           32            1           28 1.3957121e-16 
    4470    3108.8356       61 6.3218834e-15           32            1           28 1.3960658e-16 
    4475    3114.2507       61 6.343491e-15           32            1           28 1.3960715e-16 
    4480    3119.6625       61 6.3652098e-15           32            1           28 1.3964332e-16 
    4485    3125.0607       61 6.3869693e-15           32            1           28 1.3964441e-16 
    4490    3130.4793       61 6.4088407e-15           32            1           28 1.396814e-16 
    4495    3135.9856       61 6.4307531e-15           32            1           28 1.3968304e-16 
    4500    3141.5817       61 6.4527783e-15           32            1           28 1.3972085e-16 
    4505    3147.1642       61 6.4748448e-15           32            1           28 1.3972303e-16 
    4510     3152.827       61 6.4970248e-15           32            1           28 1.3976167e-16 
    4515    3158.8613       61 6.5192463e-15           32            1           28 1.3976439e-16 
    4520    3164.5782       61 6.5415822e-15           32            1           28 1.3980385e-16 
    4525    3170.1657       61 6.5639599e-15           32            1           28 1.3980712e-16 
    4530    3175.8247       61 6.5864528e-15           32            1           28 1.3984743e-16 
    4535    3181.8264       61 6.6089878e-15           32            1           28 1.3985123e-16 
    4540     3188.028       61 6.6316388e-15           32            1           28 1.3989235e-16 
    4545    3194.0569       61 6.6543321e-15           32            1           28 1.3989671e-16 
    4550    3201.4521       62 6.6771423e-15           32            1           29 1.3993867e-16 
    4555    3233.4701       63 6.6999951e-15           32            1           30 1.3994358e-16 
    4560    3238.5799       64 6.7229797e-15           33            1           30 1.4000051e-16 
    4565    3243.7524       65 6.7460416e-15           34            1           30 1.4005459e-16 
    4570    3249.1109       65 6.7691843e-15           34            1           30 1.4010907e-16 
    4575    3255.8096       66 6.7924082e-15           34            1           31 1.4016389e-16 
    4580    3264.1082       66 6.8157134e-15           34            1           31 1.4021913e-16 
    4585    3272.3167       66 6.8391003e-15           34            1           31 1.4027478e-16 
    4590    3280.4242       66 6.8625691e-15           34            1           31 1.4033069e-16 
    4595    3288.6942       66 6.8861205e-15           34            1           31 1.4038742e-16 
    4600    3297.5399       66 6.9097518e-15           34            1           31 1.4044188e-16 
    4605    3307.7036       66 6.933473e-15           34            1           31 1.4050387e-16 
    4610    3319.2921       66 6.9572225e-15           34            1           31 1.405114e-16 
    4615    3327.4282       67 6.9810945e-15           35            1           31 1.4055842e-16 
    4620    3335.5905       67 7.005011e-15           35            1           31 1.4056667e-16 
    4625    3344.0273       67 7.0290509e-15           35            1           31 1.4061475e-16 
    4630     3354.224       67 7.0531356e-15           35            1           31 1.4062371e-16 
    4635    3364.4067       67 7.0773446e-15           35            1           31 1.4067284e-16 
    4640    3374.8528       67 7.1015986e-15           35            1           31 1.4068248e-16 
    4645    3384.1765       67 7.1259778e-15           35            1           31 1.407326e-16 
    4650    3392.8843       67 7.1504023e-15           35            1           31 1.4074288e-16 
    4655    3403.5851       67 7.1749529e-15           35            1           31 1.4079401e-16 
    4660    3412.2691       67 7.199549e-15           35            1           31 1.4080494e-16 
    4665    3422.7312       67 7.2242722e-15           35            1           31 1.4085703e-16 
    4670    3433.3834       67 7.2490411e-15           35            1           31 1.408686e-16 
    4675    3442.7851       68 7.2739381e-15           35            1           32 1.4092171e-16 
    4680    3452.1313       69 7.2988811e-15           35            1           33 1.4093392e-16 
    4685     3463.961       69 7.3239531e-15           35            1           33 1.4098799e-16 
    4690    3472.6408       69 7.3490713e-15           35            1           33 1.4100085e-16 
    4695    3483.3703       69 7.3743195e-15           35            1           33 1.410559e-16 
    4700    3492.6216       69 7.3996142e-15           35            1           33 1.4106939e-16 
    4705    3502.2105       69 7.4250399e-15           35            1           33 1.4112544e-16 
    4710    3512.3652       69 7.4505123e-15           35            1           33 1.411396e-16 
    4715    3521.6996       69 7.4761166e-15           35            1           33 1.4119663e-16 
    4720     3531.313       70 7.501768e-15           36            1           33 1.4121142e-16 
    4725    3541.4607       70 7.5275523e-15           36            1           33 1.4126944e-16 
    4730    3550.3095       70 7.5533839e-15           36            1           33 1.4128489e-16 
    4735    3560.8043       70 7.5793493e-15           36            1           33 1.4134392e-16 
    4740    3592.4752       71 7.6053624e-15           36            1           34 1.4136001e-16 
    4745    3622.7048       71 7.6316733e-15           36            1           34 1.4158311e-16 
    4750    3624.1697       71 7.6580574e-15           36            1           34 1.4178814e-16 
    4755    3625.6991       71 7.6844286e-15           36            1           34 1.4188888e-16 
    4760    3633.4096       71 7.7108581e-15           36            1           34 1.4195595e-16 
    4765    3642.8713       71 7.7373699e-15           36            1           34 1.4201314e-16 
    4770    3652.3215       72 7.7639745e-15           37            1           34 1.4207068e-16 
    4775     3661.067       72 7.7906308e-15           37            1           34 1.4208708e-16 
    4780    3670.9016       72 7.8174251e-15           37            1           34 1.4214838e-16 
    4785    3681.1091       73 7.8442694e-15           37            1           35 1.4216621e-16 
    4790    3725.8596       74 7.8712949e-15           38            1           35 1.422715e-16 
    4795    3756.1033       74 7.8983832e-15           38            1           35 1.4234543e-16 
    4800    3779.0139       74 7.9256165e-15           38            1           35 1.4247003e-16 
    4805    3801.8366       74 7.9528777e-15           38            1           35 1.4252775e-16 
    4810    3823.4463       74 7.9802976e-15           38            1           35  1.42649e-16 
    4815    3825.4082       74 8.0078671e-15           38            1           35 1.4282445e-16 
    4820    3827.5425       74 8.0354454e-15           38            1           35 1.429129e-16 
    4825    3833.6889       74 8.0631049e-15           38            1           35 1.4298636e-16 
    4830    3841.1272       74 8.0908602e-15           38            1           35 1.4305928e-16 
    4835    3850.7831       75 8.1187133e-15           39            1           35 1.4313309e-16 
    4840    3859.4697       75 8.146661e-15           39            1           35 1.4320449e-16 
    4845    3867.5881       75 8.1747186e-15           39            1           35 1.4328835e-16 
    4850    3876.8571       75 8.202812e-15           39            1           35 1.433101e-16 
    4855    3886.7257       75 8.2310513e-15           39            1           35 1.4337975e-16 
    4860    3895.0565       75 8.2593428e-15           39            1           35 1.4340297e-16 
    4865     3904.523       75 8.2877815e-15           39            1           35 1.4347467e-16 
    4870    3913.1932       75 8.3162722e-15           39            1           35 1.4349915e-16 
    4875     3923.545       75 8.3449114e-15           39            1           35 1.4357264e-16 
    4880    3935.1222       77 8.3736026e-15           41            1           35 1.435982e-16 
    4885    3945.0144       78 8.4024435e-15           42            1           35 1.4367329e-16 
    4890    3954.4739       78 8.4313364e-15           42            1           35 1.4369988e-16 
    4895     3966.135       78 8.4603803e-15           42            1           35 1.4377645e-16 
    4900    3976.2102       79 8.4894764e-15           43            1           35 1.4380397e-16 
    4905    3986.5706       79 8.5187245e-15           43            1           35 1.4388197e-16 
    4910    3997.3056       81 8.5480252e-15           44            1           36 1.4391044e-16 
    4915    4006.4133       82 8.577479e-15           44            1           37 1.439898e-16 
    4920    4017.5893       82 8.6069855e-15           44            1           37 1.4401913e-16 
    4925    4110.6428       83 8.6367209e-15           44            1           38 1.4417426e-16 
    4930    4176.0853       83 8.6665034e-15           44            1           38 1.4427318e-16 
    4935    4231.6136       83 8.6964721e-15           44            1           38 1.4445451e-16 
    4940    4253.7548       84 8.7264037e-15           44            1           39 1.444946e-16 
    4945    4254.0862       84 8.7564236e-15           44            1           39 1.4451849e-16 
    4950    4254.4307       84 8.7865695e-15           44            1           39 1.4456351e-16 
    4955    4254.7996       84 8.8168344e-15           44            1           39 1.4462225e-16 
    4960    4255.1871       84 8.8472143e-15           44            1           39 1.4469028e-16 
    4965    4259.1413       84 8.8777124e-15           44            1           39 1.4477059e-16 
    4970    4264.7212       84 8.9083242e-15           44            1           39 1.4485825e-16 
    4975    4270.1436       86 8.939043e-15           45            1           40 1.4494616e-16 
    4980    4277.3976       87 8.9698692e-15           46            1           40 1.4503444e-16 
    4985    4286.6891       87 9.0008034e-15           46            1           40 1.4512321e-16 
    4990    4297.0476       87 9.0318459e-15           46            1           40 1.4521245e-16 
    4995    4307.7105       87 9.0629972e-15           46            1           40 1.4530228e-16 
    5000    4317.8183       87 9.0942566e-15           46            1           40 1.4539162e-16 
Loop time of 4317.82 on 1 procs for 5000 steps with 87 atoms

Performance: 3601818.947 tau/day, 1.158 timesteps/s
99.8% CPU use with 1 MPI tasks x no OpenMP threads

MPI task timing breakdown:
Section |  min time  |  avg time  |  max time  |%varavg| %total
---------------------------------------------------------------
Pair    | 0.047693   | 0.047693   | 0.047693   |   0.0 |  0.00
Neigh   | 9.6747     | 9.6747     | 9.6747     |   0.0 |  0.22
Comm    | 0.069312   | 0.069312   | 0.069312   |   0.0 |  0.00
Output  | 0.036397   | 0.036397   | 0.036397   |   0.0 |  0.00
Modify  | 4308       | 4308       | 4308       |   0.0 | 99.77
Other   |            | 0.02404    |            |       |  0.00

Nlocal:    87 ave 87 max 87 min
Histogram: 1 0 0 0 0 0 0 0 0 0
Nghost:    0 ave 0 max 0 min
Histogram: 1 0 0 0 0 0 0 0 0 0
Neighs:    371 ave 371 max 371 min
Histogram: 1 0 0 0 0 0 0 0 0 0

Total # of neighbors = 371
Ave neighs/atom = 4.26437
Neighbor list builds = 5000
Dangerous builds = 0


Total wall time: 1:12:01
