  Granular Flow Simulation 

       0 atoms 
       1 atom types 
       5 nutrients

   0.000000e-04   2.000000e-05  xlo xhi 
   0.000000e-04   2.000000e-05  ylo yhi 
   0.000000e-04   6.000000e-04  zlo zhi

 Atoms

 Nutrients

     1 sub l 1e-20 1e-20 1e-20 1e-20 1e-20 1e-20 0.03
     2 o2 l 1e-20 1e-20 1e-20 1e-20 1e-20 1e-20 0.01
     3 no2 l 1e-4 1e-4 1e-4 1e-4 1e-4 1e-4 1e-4
     4 no3 l 1e-4 1e-4 1e-4 1e-4 1e-4 1e-4 1e-4
     5 nh4 l 1e-4 1e-4 1e-4 1e-4 1e-4 1e-4 1e-4

 Diffusion Coeffs
    
     sub 1.1574e-9
     o2 2.3148e-9
     no2 0
     no3 0
     nh4 0

 Type Name

     1 het

 Ks
     
     het 4e-3 2e-4 0 0 0

Growth Rate

     het 0.000069444

 Yield
    
     het 0.63

 Maintenance
 
     het 0

 Decay

     het 0.00000463


