NUFEB Simulation 

       41 atoms 
       3 atom types 

   0.000000e-04   1e-04  xlo xhi 
   0.000000e-04   0.4e-04  ylo yhi 
   0.000000e-04   1e-04  zlo zhi 

 Atoms 

     1 1 1.0e-6 150 0.5e-5 0.5e-5 1e-6 1.0e-6
     2 2 1.0e-6 150 1.5e-5 0.5e-5 1e-6 1.0e-6
     3 1 1.0e-6 150 2.5e-5 0.5e-5 1e-6 1.0e-6
     4 2 1.0e-6 150 3.5e-5 0.5e-5 1e-6 1.0e-6
     5 1 1.0e-6 150 4.5e-5 0.5e-5 1e-6 1.0e-6 
     6 2 1.0e-6 150 5.5e-5 0.5e-5 1e-6 1.0e-6
     7 1 1.0e-6 150 6.5e-5 0.5e-5 1e-6 1.0e-6
     8 2 1.0e-6 150 7.5e-5 0.5e-5 1e-6 1.0e-6
     9 1 1.0e-6 150 8.5e-5 0.5e-5 1e-6 1.0e-6
     10 2 1.0e-6 150 9.5e-5 0.5e-5 1e-6 1.0e-6
     11 1 1.0e-6 150 0.5e-5 1.5e-5 1e-6 1.0e-6
     12 2 1.0e-6 150 1.5e-5 1.5e-5 1e-6 1.0e-6
     13 1 1.0e-6 150 2.5e-5 1.5e-5 1e-6 1.0e-6
     14 2 1.0e-6 150 3.5e-5 1.5e-5 1e-6 1.0e-6
     15 1 1.0e-6 150 4.5e-5 1.5e-5 1e-6 1.0e-6
     16 2 1.0e-6 150 5.5e-5 1.5e-5 1e-6 1.0e-6
     17 1 1.0e-6 150 6.5e-5 1.5e-5 1e-6 1.0e-6
     18 2 1.0e-6 150 7.5e-5 1.5e-5 1e-6 1.0e-6
     19 1 1.0e-6 150 8.5e-5 1.5e-5 1e-6 1.0e-6
     20 2 1.0e-6 150 9.5e-5 1.5e-5 1e-6 1.0e-6
     21 1 1.0e-6 150 0.5e-5 2.5e-5 1e-6 1.0e-6
     22 2 1.0e-6 150 1.5e-5 2.5e-5 1e-6 1.0e-6
     23 1 1.0e-6 150 2.5e-5 2.5e-5 1e-6 1.0e-6
     24 2 1.0e-6 150 3.5e-5 2.5e-5 1e-6 1.0e-6
     25 1 1.0e-6 150 4.5e-5 2.5e-5 1e-6 1.0e-6
     26 2 1.0e-6 150 5.5e-5 2.5e-5 1e-6 1.0e-6
     27 1 1.0e-6 150 6.5e-5 2.5e-5 1e-6 1.0e-6
     28 2 1.0e-6 150 7.5e-5 2.5e-5 1e-6 1.0e-6
     29 1 1.0e-6 150 8.5e-5 2.5e-5 1e-6 1.0e-6
     30 2 1.0e-6 150 9.5e-5 2.5e-5 1e-6 1.0e-6
     31 1 1.0e-6 150 0.5e-5 3.5e-5 1e-6 1.0e-6
     32 2 1.0e-6 150 1.5e-5 3.5e-5 1e-6 1.0e-6
     33 1 1.0e-6 150 2.5e-5 3.5e-5 1e-6 1.0e-6
     34 2 1.0e-6 150 3.5e-5 3.5e-5 1e-6 1.0e-6
     35 1 1.0e-6 150 4.5e-5 3.5e-5 1e-6 1.0e-6
     36 2 1.0e-6 150 5.5e-5 3.5e-5 1e-6 1.0e-6
     37 1 1.0e-6 150 6.5e-5 3.5e-5 1e-6 1.0e-6
     38 2 1.0e-6 150 7.5e-5 3.5e-5 1e-6 1.0e-6
     39 1 1.0e-6 150 8.5e-5 3.5e-5 1e-6 1.0e-6
     40 2 1.0e-6 150 9.5e-5 3.5e-5 1e-6 1.0e-6
     41 2 1.0e-8 150 0.6e-5 0.5e-5 1e-6 1.0e-8 1  

