  Granular Flow Simulation 

       80 atoms 
       2 atom types 
       5 nutrients

   0.0   1.0e-04  xlo xhi 
   0.0   4.0e-05  ylo yhi 
   0.0   1.0e-04  zlo zhi 

 Atoms

     1 1 1.0e-6 150 0.5e-5 0.5e-5 1e-6 1.0e-6  hetr
     2 1 1.0e-6 150 1.5e-5 0.5e-5 1e-6 1.0e-6  hetr
     3 1 1.0e-6 150 2.5e-5 0.5e-5 1e-6 1.0e-6  hetr
     4 1 1.0e-6 150 3.5e-5 0.5e-5 1e-6 1.0e-6  hetr
     5 1 1.0e-6 150 4.5e-5 0.5e-5 1e-6 1.0e-6  hetr
     6 1 1.0e-6 150 5.5e-5 0.5e-5 1e-6 1.0e-6  hetr
     7 1 1.0e-6 150 6.5e-5 0.5e-5 1e-6 1.0e-6  hetr
     8 1 1.0e-6 150 7.5e-5 0.5e-5 1e-6 1.0e-6  hetr
     9 1 1.0e-6 150 8.5e-5 0.5e-5 1e-6 1.0e-6  hetr
     10 1 1.0e-6 150 9.5e-5 0.5e-5 1e-6 1.0e-6  hetr
     11 1 1.0e-6 150 0.5e-5 1.5e-5 1e-6 1.0e-6  hetr
     12 1 1.0e-6 150 1.5e-5 1.5e-5 1e-6 1.0e-6  hetr
     13 1 1.0e-6 150 2.5e-5 1.5e-5 1e-6 1.0e-6  hetr
     14 1 1.0e-6 150 3.5e-5 1.5e-5 1e-6 1.0e-6  hetr
     15 1 1.0e-6 150 4.5e-5 1.5e-5 1e-6 1.0e-6  hetr
     16 1 1.0e-6 150 5.5e-5 1.5e-5 1e-6 1.0e-6  hetr
     17 1 1.0e-6 150 6.5e-5 1.5e-5 1e-6 1.0e-6  hetr
     18 1 1.0e-6 150 7.5e-5 1.5e-5 1e-6 1.0e-6  hetr
     19 1 1.0e-6 150 8.5e-5 1.5e-5 1e-6 1.0e-6  hetr
     20 1 1.0e-6 150 9.5e-5 1.5e-5 1e-6 1.0e-6  hetr
     21 1 1.0e-6 150 0.5e-5 2.5e-5 1e-6 1.0e-6  hetr
     22 1 1.0e-6 150 1.5e-5 2.5e-5 1e-6 1.0e-6  hetr
     23 1 1.0e-6 150 2.5e-5 2.5e-5 1e-6 1.0e-6  hetr
     24 1 1.0e-6 150 3.5e-5 2.5e-5 1e-6 1.0e-6  hetr
     25 1 1.0e-6 150 4.5e-5 2.5e-5 1e-6 1.0e-6  hetr
     26 1 1.0e-6 150 5.5e-5 2.5e-5 1e-6 1.0e-6  hetr
     27 1 1.0e-6 150 6.5e-5 2.5e-5 1e-6 1.0e-6  hetr
     28 1 1.0e-6 150 7.5e-5 2.5e-5 1e-6 1.0e-6  hetr
     29 1 1.0e-6 150 8.5e-5 2.5e-5 1e-6 1.0e-6  hetr
     30 1 1.0e-6 150 9.5e-5 2.5e-5 1e-6 1.0e-6  hetr
     31 1 1.0e-6 150 0.5e-5 3.5e-5 1e-6 1.0e-6  hetr
     32 1 1.0e-6 150 1.5e-5 3.5e-5 1e-6 1.0e-6  hetr
     33 1 1.0e-6 150 2.5e-5 3.5e-5 1e-6 1.0e-6  hetr
     34 1 1.0e-6 150 3.5e-5 3.5e-5 1e-6 1.0e-6  hetr
     35 1 1.0e-6 150 4.5e-5 3.5e-5 1e-6 1.0e-6  hetr
     36 1 1.0e-6 150 5.5e-5 3.5e-5 1e-6 1.0e-6  hetr
     37 1 1.0e-6 150 6.5e-5 3.5e-5 1e-6 1.0e-6  hetr
     38 1 1.0e-6 150 7.5e-5 3.5e-5 1e-6 1.0e-6  hetr
     39 1 1.0e-6 150 8.5e-5 3.5e-5 1e-6 1.0e-6  hetr
     40 1 1.0e-6 150 9.5e-5 3.5e-5 1e-6 1.0e-6  hetr
     41 2 1.0e-6 150 0.5e-5 0.6e-5 1e-6 1.0e-6  hety
     42 2 1.0e-6 150 1.5e-5 0.6e-5 1e-6 1.0e-6  hety
     43 2 1.0e-6 150 2.5e-5 0.6e-5 1e-6 1.0e-6  hety
     44 2 1.0e-6 150 3.5e-5 0.6e-5 1e-6 1.0e-6  hety
     45 2 1.0e-6 150 4.5e-5 0.6e-5 1e-6 1.0e-6  hety
     46 2 1.0e-6 150 5.5e-5 0.6e-5 1e-6 1.0e-6  hety
     47 2 1.0e-6 150 6.5e-5 0.6e-5 1e-6 1.0e-6  hety
     48 2 1.0e-6 150 7.5e-5 0.6e-5 1e-6 1.0e-6  hety
     49 2 1.0e-6 150 8.5e-5 0.6e-5 1e-6 1.0e-6  hety
     50 2 1.0e-6 150 9.5e-5 0.6e-5 1e-6 1.0e-6  hety
     51 2 1.0e-6 150 0.5e-5 1.6e-5 1e-6 1.0e-6  hety
     52 2 1.0e-6 150 1.5e-5 1.6e-5 1e-6 1.0e-6  hety
     53 2 1.0e-6 150 2.5e-5 1.6e-5 1e-6 1.0e-6  hety
     54 2 1.0e-6 150 3.5e-5 1.6e-5 1e-6 1.0e-6  hety
     55 2 1.0e-6 150 4.5e-5 1.6e-5 1e-6 1.0e-6  hety
     56 2 1.0e-6 150 5.5e-5 1.6e-5 1e-6 1.0e-6  hety
     57 2 1.0e-6 150 6.5e-5 1.6e-5 1e-6 1.0e-6  hety
     58 2 1.0e-6 150 7.5e-5 1.6e-5 1e-6 1.0e-6  hety
     59 2 1.0e-6 150 8.5e-5 1.6e-5 1e-6 1.0e-6  hety
     60 2 1.0e-6 150 9.5e-5 1.6e-5 1e-6 1.0e-6  hety
     61 2 1.0e-6 150 0.5e-5 2.6e-5 1e-6 1.0e-6  hety
     62 2 1.0e-6 150 1.5e-5 2.6e-5 1e-6 1.0e-6  hety
     63 2 1.0e-6 150 2.5e-5 2.6e-5 1e-6 1.0e-6  hety
     64 2 1.0e-6 150 3.5e-5 2.6e-5 1e-6 1.0e-6  hety
     65 2 1.0e-6 150 4.5e-5 2.6e-5 1e-6 1.0e-6  hety
     66 2 1.0e-6 150 5.5e-5 2.6e-5 1e-6 1.0e-6  hety
     67 2 1.0e-6 150 6.5e-5 2.6e-5 1e-6 1.0e-6  hety
     68 2 1.0e-6 150 7.5e-5 2.6e-5 1e-6 1.0e-6  hety
     69 2 1.0e-6 150 8.5e-5 2.6e-5 1e-6 1.0e-6  hety
     70 2 1.0e-6 150 9.5e-5 2.6e-5 1e-6 1.0e-6  hety
     71 2 1.0e-6 150 0.5e-5 3.6e-5 1e-6 1.0e-6  hety
     72 2 1.0e-6 150 1.5e-5 3.6e-5 1e-6 1.0e-6  hety
     73 2 1.0e-6 150 2.5e-5 3.6e-5 1e-6 1.0e-6  hety
     74 2 1.0e-6 150 3.5e-5 3.6e-5 1e-6 1.0e-6  hety
     75 2 1.0e-6 150 4.5e-5 3.6e-5 1e-6 1.0e-6  hety
     76 2 1.0e-6 150 5.5e-5 3.6e-5 1e-6 1.0e-6  hety
     77 2 1.0e-6 150 6.5e-5 3.6e-5 1e-6 1.0e-6  hety
     78 2 1.0e-6 150 7.5e-5 3.6e-5 1e-6 1.0e-6  hety
     79 2 1.0e-6 150 8.5e-5 3.6e-5 1e-6 1.0e-6  hety
     80 2 1.0e-6 150 9.5e-5 3.6e-5 1e-6 1.0e-6  hety

 Nutrients

     1 sub l 1e-20 1e-20 1e-20 1e-20 1e-20 1e-20 1e-20
     2 o2 l 1e-5 1e-5 1e-5 1e-5 1e-5 1e-5 1e-5
     3 no2 l 1e-20 1e-20 1e-20 1e-20 1e-20 1e-20 1e-20
     4 no3 l 1e-20 1e-20 1e-20 1e-20 1e-20 1e-20 1e-20
     5 nh4 l 1e-20 1e-20 1e-20 1e-20 1e-20 1e-20 1e-20

 Diffusion Coeffs
    
     sub 0
     o2 2e-9
     no2 0
     no3 0
     nh4 0

 Ks
     
     hety 0 3e-4 0 0 0
     hetr 0 6e-4 0 0 0

 Growth Rate

     hety 0.00022778
     hetr 0.00045556

 Yield Coeffs
    
     hety 0.046
     hetr 0.023

 Maintenance
 
     hety 0
     hetr 0

 Decay Rate

     hety 0
     hetr 0



