LAMMPS (5 Nov 2016)
# NUFEB simulation

atom_style	bio
atom_modify	map array sort 100 5.0e-7
boundary	ff ff ff
newton		off
#processors  2 1 1

comm_modify	vel yes
read_data_bio atom.in
  orthogonal box = (0 0 0) to (0.0001 4e-05 0.0001)
  1 by 1 by 1 MPI processor grid
  reading atoms ...
  80 atoms
  5 nutrients

group HET type 1 2
80 atoms in group HET

neighbor	5e-7 bin
neigh_modify	delay 0 one 5000

#pair_style none
pair_style  gran/hooke/history 1.e-4 NULL 1.e-5 NULL 0.0 1

pair_coeff  * *
timestep 9

fix 1 all nve/limit 1e-7

fix fv all viscous 1e-5

fix xw all wall/gran hooke/history 2000 NULL 500.0 NULL 1.5 0 xplane  0.0   1.0e-04
fix yw all wall/gran hooke/history 2000 NULL 500.0 NULL 1.5 0 yplane  0.0   4.0e-05
fix zw all wall/gran hooke/history 2000 NULL 500.0 NULL 1.5 0 zplane  0.0   1.0e-04

variable kanc equal 50

fix xwa all walladh v_kanc xplane  0.0   1.0e-04
fix ywa all walladh v_kanc yplane  0.0   4.0e-05
fix zwa all walladh v_kanc zplane  0.0   1.0e-04

##############Ibm Variable Definitions##############

#Defining EPS density and ratio variables
variable EPSdens equal 30
variable EPSratio equal 1.25
variable divMass equal 7.21e-17

variable ke equal 5e+10

#Defining kinetics variables
variable temp equal 298.15
variable gasTran equal 0.08205746
variable gvol equal 8e-14
variable rth equal 0.0083144
variable pressure equal 1
variable ph equal 7.0
variable etaHET equal 0.0

#Defining diffusion variables
variable diffT equal 1e-4
variable tol equal 1e-6
variable bl equal -1
variable Q equal -1
variable rvol equal 1
variable Af equal -1
variable shearRate equal 0.0

##############Ibm functions##############

fix k1 all kinetics 400 30 12 30 v_temp v_rth v_gvol v_gasTran v_ph v_diffT v_bl
fix kgm all kinetics/growth/monod v_EPSdens v_etaHET
fix g1 all kinetics/diffusion v_shearRate v_tol v_Q v_rvol v_Af pp pp nd kg
fix d1 all divide 400 v_EPSdens v_divMass 31231

##############Ibm compute##############

compute myNtypes all ntypes

##############Simulation outputs##############

dump		id all custom 40000 snapshot.bubblemd id type diameter x y z
dump            d0 all bio 40000 concentration ntypes ave_concentration
thermo_style    custom step cpu atoms biomass c_myNtypes[*]
thermo		400
thermo_modify	lost ignore

run 3920000
WARNING: EPS is not defined in fix_kinetics/kinetics/monod (../fix_bio_kinetics_monod.cpp:230)
Neighbor list info ...
  2 neighbor list requests
  update every 1 steps, delay 0 steps, check yes
  max neighbors/atom: 5000, page size: 100000
  master list distance cutoff = 1.5e-06
  ghost atom cutoff = 1.5e-06
  binsize = 7.5e-07 -> bins = 134 54 134
Memory usage per processor = 13.5504 Mbytes
Step CPU Atoms biomass c_myNtypes[1] c_myNtypes[2] 
       0            0       80 6.2831853e-15           40           40 
     400    14.086007      160 6.3621794e-15           80           80 
     800    28.804052      160 6.4282554e-15           80           80 
    1200    42.964292      160 6.4896264e-15           80           80 
    1600    56.459493      160 6.5494493e-15           80           80 
    2000     59.27165      160 6.6094168e-15           80           80 
    2400    61.789313      160 6.6695371e-15           80           80 
    2800     64.25128      160 6.7298197e-15           80           80 
    3200     66.71477      160 6.7902677e-15           80           80 
    3600    69.017921      160 6.8508835e-15           80           80 
    4000    71.182488      160 6.9116679e-15           80           80 
    4400    73.252805      160 6.9726212e-15           80           80 
    4800    75.413907      160 7.0337428e-15           80           80 
    5200    77.795455      160 7.095032e-15           80           80 
    5600    80.005632      160 7.1564876e-15           80           80 
    6000    82.221086      160 7.2181086e-15           80           80 
    6400    84.739132      160 7.2798935e-15           80           80 
    6800    86.731483      160 7.341841e-15           80           80 
    7200    88.616938      160 7.4039498e-15           80           80 
    7600    90.574075      160 7.4662184e-15           80           80 
    8000    92.475672      160 7.5286454e-15           80           80 
    8400    94.340408      160 7.5912294e-15           80           80 
    8800    96.234223      160 7.6539689e-15           80           80 
    9200     98.23779      160 7.7168627e-15           80           80 
    9600    100.13559      160 7.7799092e-15           80           80 
   10000    101.89631      160 7.8431072e-15           80           80 
   10400    103.66381      160 7.9064551e-15           80           80 
   10800    105.38678      160 7.9699516e-15           80           80 
   11200    107.11441      160 8.0335956e-15           80           80 
   11600    108.81833      160 8.0973856e-15           80           80 
   12000    110.49318      160 8.1613203e-15           80           80 
   12400    112.26129      160 8.2253983e-15           80           80 
   12800    113.94944      160 8.2896184e-15           80           80 
   13200    115.60179      160 8.3539792e-15           80           80 
   13600    117.24353      160 8.4184796e-15           80           80 
   14000    118.86591      160 8.4831182e-15           80           80 
   14400    120.48708      160 8.5478938e-15           80           80 
   14800    122.09311      160 8.6128052e-15           80           80 
   15200    123.69718      160 8.6778512e-15           80           80 
   15600    125.25478      160 8.7430305e-15           80           80 
   16000    126.81151      160 8.8083421e-15           80           80 
   16400    128.35201      160 8.8737846e-15           80           80 
   16800    129.91549      160 8.9393569e-15           80           80 
   17200    131.43635      160 9.005058e-15           80           80 
   17600    132.93897      160 9.0708865e-15           80           80 
   18000    134.42488      160 9.1368415e-15           80           80 
   18400    135.91791      160 9.2029218e-15           80           80 
   18800    137.43046      160 9.2691264e-15           80           80 
   19200    138.91923      160 9.3354539e-15           80           80 
   19600    140.36494      160 9.4019036e-15           80           80 
   20000    141.79877      160 9.4684742e-15           80           80 
   20400    143.21579      160 9.5351646e-15           80           80 
   20800    144.61639      160 9.6019739e-15           80           80 
   21200    146.03548      160 9.6689011e-15           80           80 
   21600    147.44747      163 9.7359451e-15           82           81 
   22000    148.84675      165 9.8031047e-15           83           82 
   22400     150.2392      170 9.8703792e-15           84           86 
   22800    151.61221      175 9.9377674e-15           86           89 
   23200    152.98691      176 1.0005268e-14           86           90 
   23600    154.33432      181 1.0072881e-14           90           91 
   24000    155.69576      183 1.0140605e-14           92           91 
   24400    157.09014      185 1.0208439e-14           93           92 
   24800    158.44435      186 1.0276381e-14           93           93 
   25200     159.7766      189 1.0344432e-14           93           96 
   25600    161.14633      192 1.041259e-14           94           98 
   26000    162.47597      194 1.0480854e-14           96           98 
   26400    164.06185      199 1.0549231e-14           98          101 
   26800    165.33429      201 1.0617722e-14           99          102 
   27200    166.58368      206 1.0686318e-14          103          103 
   27600    167.85608      209 1.0755019e-14          103          106 
   28000    169.12598      211 1.0823823e-14          104          107 
   28400    170.37223      214 1.0892727e-14          104          110 
   28800    171.61114      218 1.0961733e-14          107          111 
   29200    172.83257      221 1.1030837e-14          108          113 
   29600    174.10316      224 1.1100041e-14          111          113 
   30000    175.33428      229 1.1169343e-14          114          115 
   30400    176.56043      232 1.1238742e-14          114          118 
   30800    177.77218      233 1.1308237e-14          115          118 
   31200    178.95958      235 1.1377827e-14          115          120 
   31600    180.14868      238 1.1447512e-14          118          120 
   32000    181.31262      239 1.1517292e-14          119          120 
   32400    182.49425      240 1.1587164e-14          120          120 
   32800    183.64307      241 1.1657129e-14          121          120 
   33200    184.79299      241 1.1727186e-14          121          120 
   33600    185.94053      244 1.1797333e-14          124          120 
   34000    187.06893      245 1.1867571e-14          125          120 
   34400    188.20194      247 1.1937898e-14          125          122 
   34800    189.30879      248 1.2008313e-14          126          122 
   35200    190.44075      251 1.2078817e-14          128          123 
   35600    191.55891      254 1.2149409e-14          129          125 
   36000    192.67507      259 1.2220086e-14          132          127 
   36400     193.7624      261 1.229085e-14          133          128 
   36800    194.83183      264 1.2361699e-14          135          129 
   37200    196.14819      266 1.2432635e-14          136          130 
   37600    197.17516      268 1.2503667e-14          136          132 
   38000    198.20751      270 1.2574785e-14          137          133 
   38400    199.27108      271 1.2645987e-14          137          134 
   38800    200.30847      277 1.2717272e-14          140          137 
   39200    201.63756      279 1.2788646e-14          141          138 
   39600    202.60633      280 1.2860115e-14          142          138 
   40000    203.70518      283 1.2931671e-14          144          139 
   40400    204.70064      284 1.3003308e-14          144          140 
   40800    205.69216      288 1.3075026e-14          146          142 
   41200    206.70482      289 1.3146824e-14          147          142 
   41600    207.92696      291 1.3218699e-14          147          144 
   42000    208.88055      292 1.3290665e-14          147          145 
   42400    209.93279      293 1.3362711e-14          147          146 
   42800     210.9062      295 1.3434836e-14          147          148 
   43200    211.89274      296 1.3507038e-14          148          148 
   43600    212.86237      296 1.3579316e-14          148          148 
   44000     213.8236      299 1.3651669e-14          150          149 
   44400    214.77747      300 1.3724096e-14          151          149 
   44800    215.73888      304 1.3796598e-14          154          150 
   45200    216.66428      304 1.3869173e-14          154          150 
   45600    217.85906      306 1.3941818e-14          155          151 
   46000    218.72848      308 1.4014551e-14          156          152 
   46400     219.6196      310 1.408736e-14          156          154 
   46800     220.5454      312 1.4160242e-14          157          155 
   47200    221.45995      314 1.4233196e-14          158          156 
   47600    222.35634      317 1.4306221e-14          158          159 
   48000    223.25205      317 1.4379316e-14          158          159 
   48400    224.14824      319 1.4452481e-14          160          159 
   48800    225.35225      320 1.4525711e-14          160          160 
   49200    226.18093      320 1.4599025e-14          160          160 
   49600    227.29378      320 1.4672409e-14          160          160 
   50000    228.09999      320 1.4745878e-14          160          160 
   50400    228.93678      320 1.481942e-14          160          160 
   50800    229.78259      320 1.4893031e-14          160          160 
   51200    230.62888      320 1.496671e-14          160          160 
   51600    231.49626      320 1.5040456e-14          160          160 
   52000    232.34164      320 1.5114269e-14          160          160 
   52400    233.51889      320 1.5188143e-14          160          160 
   52800    234.29154      320 1.5262102e-14          160          160 
   53200    235.11469      320 1.533613e-14          160          160 
   53600     235.9977      320 1.5410226e-14          160          160 
   54000    236.80364      320 1.5484386e-14          160          160 
   54400    237.61517      320 1.5558611e-14          160          160 
   54800    238.41386      320 1.5632899e-14          160          160 
   55200    239.21449      320 1.570725e-14          160          160 
   55600    240.00554      320 1.5781663e-14          160          160 
   56000    240.78327      320 1.5856137e-14          160          160 
   56400    241.55986      320 1.5930672e-14          160          160 
   56800    242.32946      320 1.6005268e-14          160          160 
   57200    243.09587      320 1.6079924e-14          160          160 
   57600    243.85546      320 1.6154639e-14          160          160 
   58000    244.61419      320 1.6229414e-14          160          160 
   58400    245.36983      320 1.6304247e-14          160          160 
   58800    246.12214      320 1.6379138e-14          160          160 
   59200    246.87802      320 1.6454088e-14          160          160 
   59600    247.63192      321 1.6529094e-14          161          160 
   60000    248.37809      321 1.6604159e-14          161          160 
   60400    249.11984      321 1.6679279e-14          161          160 
   60800    249.87622      321 1.6754456e-14          161          160 
   61200    250.62176      321 1.682969e-14          161          160 
   61600    251.37017      322 1.6904978e-14          161          161 
   62000    252.09354      322 1.6980322e-14          161          161 
   62400    252.81002      323 1.7055721e-14          162          161 
   62800    253.53282      323 1.7131174e-14          162          161 
   63200    254.23813      323 1.7206681e-14          162          161 
   63600    254.93882      325 1.7282243e-14          163          162 
   64000    255.64579      325 1.7357857e-14          163          162 
   64400     256.3423      327 1.7433525e-14          163          164 
   64800    257.32093      330 1.7509234e-14          164          166 
   65200    257.95662      331 1.7585015e-14          165          166 
   65600    258.64624      331 1.7660854e-14          165          166 
   66000    259.33337      334 1.7736748e-14          166          168 
   66400    260.00203      335 1.7812696e-14          167          168 
   66800    260.68673      335 1.7888696e-14          167          168 
   67200    261.36345      336 1.7964747e-14          167          169 
   67600    262.03367      336 1.8040851e-14          167          169 
   68000     262.7073      336 1.8117005e-14          167          169 
   68400    263.40073      338 1.8193209e-14          167          171 
   68800    264.50707      338 1.8269452e-14          167          171 
   69200    265.07809      338 1.8345773e-14          167          171 
   69600    265.70071      339 1.8422151e-14          167          172 
   70000    266.69416      341 1.8498574e-14          169          172 
   70400     267.2524      343 1.8575074e-14          169          174 
   70800    268.13719      346 1.8651639e-14          169          177 
   71200    268.92021      348 1.8728254e-14          170          178 
   71600    269.49522      350 1.8804942e-14          172          178 
   72000    270.11173      352 1.8881684e-14          173          179 
   72400    270.74633      354 1.895848e-14          174          180 
   72800    271.37688      356 1.9035325e-14          176          180 
   73200    271.99418      358 1.9112221e-14          177          181 
   73600    272.61987      359 1.9189166e-14          178          181 
   74000    273.23667      362 1.9266126e-14          179          183 
   74400    273.84113      362 1.9343139e-14          179          183 
   74800    274.44335      363 1.9420203e-14          179          184 
   75200    275.32975      365 1.9497303e-14          180          185 
   75600    275.87342      368 1.9574473e-14          181          187 
   76000    276.46499      368 1.9651694e-14          181          187 
   76400    277.04353      368 1.9728965e-14          181          187 
   76800    277.62002      369 1.9806284e-14          182          187 
   77200     278.1972      371 1.9883649e-14          182          189 
   77600    279.03433      372 1.9961044e-14          182          190 
   78000    279.55124      373 2.0038507e-14          183          190 
   78400    280.10893      376 2.0116021e-14          185          191 
   78800    280.66842      378 2.0193582e-14          186          192 
   79200    281.51734      379 2.027117e-14          186          193 
   79600    282.03231      383 2.0348826e-14          189          194 
   80000    282.68217      386 2.0426533e-14          190          196 
   80400    283.57983      387 2.0504268e-14          191          196 
   80800    284.06642      389 2.0582074e-14          193          196 
   81200    284.60493      390 2.0659931e-14          194          196 
   81600    285.14564      395 2.0737836e-14          196          199 
   82000     285.6892      397 2.0815787e-14          197          200 
   82400    286.24341      398 2.0893782e-14          197          201 
   82800    286.84797      401 2.0971822e-14          198          203 
   83200      287.394      402 2.1049904e-14          199          203 
   83600    287.94417      403 2.1128029e-14          200          203 
   84000    288.48205      404 2.1206196e-14          200          204 
   84400    289.02671      408 2.1284405e-14          201          207 
   84800     289.5846      410 2.1362655e-14          201          209 
   85200    290.13112      413 2.1440947e-14          202          211 
   85600    290.67001      414 2.1519279e-14          202          212 
   86000    291.48937      416 2.1597625e-14          202          214 
   86400    291.95495      421 2.1676036e-14          206          215 
   86800     292.4652      425 2.1754492e-14          210          215 
   87200    292.99528      429 2.183299e-14          213          216 
   87600    293.93894      434 2.1911506e-14          215          219 
   88000    294.36652      435 2.1990096e-14          216          219 
   88400    294.86185      437 2.2068733e-14          218          219 
   88800    295.36033      438 2.2147414e-14          218          220 
   89200    296.11012      442 2.2226116e-14          219          223 
   89600    296.83578      444 2.2304857e-14          221          223 
   90000    297.31898      450 2.238367e-14          223          227 
   90400    298.25904      451 2.2462594e-14          223          228 
   90800     298.7209      451 2.2541578e-14          223          228 
   91200    299.23456      455 2.2620605e-14          227          228 
   91600    299.72604      458 2.2699675e-14          229          229 
   92000    300.18806      460 2.2778765e-14          230          230 
   92400    300.66293      461 2.2857903e-14          231          230 
   92800    301.41563      463 2.2937056e-14          231          232 
   93200    301.82619      463 2.3016277e-14          231          232 
   93600    302.52579      468 2.3095474e-14          233          235 
   94000    302.94343      474 2.317474e-14          236          238 
   94400    303.40525      476 2.3254055e-14          238          238 
   94800    303.87196      477 2.3333414e-14          239          238 
   95200    304.63333      480 2.3412791e-14          240          240 
   95600    305.04248      485 2.3492236e-14          244          241 
   96000    305.76563      485 2.3571702e-14          244          241 
   96400    306.34981      488 2.3651222e-14          245          243 
   96800    306.73131      493 2.3730814e-14          250          243 
   97200    307.16057      498 2.381041e-14          253          245 
   97600    307.86986      500 2.3889984e-14          255          245 
   98000    308.25805      502 2.3969635e-14          255          247 
   98400    308.67976      504 2.4049337e-14          256          248 
   98800    309.11421      508 2.4129051e-14          257          251 
   99200    309.55038      509 2.4208812e-14          257          252 
   99600    309.98608      509 2.4288618e-14          257          252 
  100000    310.42565      512 2.4368466e-14          258          254 
  100400    310.85813      513 2.4448306e-14          258          255 
  100800    311.29373      518 2.4528192e-14          261          257 
  101200    311.73822      520 2.460812e-14          262          258 
  101600     312.1891      523 2.4688089e-14          264          259 
  102000    312.62524      523 2.4768097e-14          264          259 
  102400    313.08145      524 2.4848142e-14          264          260 
  102800    313.52915      525 2.4928222e-14          265          260 
  103200    314.33525      527 2.5008303e-14          265          262 
  103600    314.69788      533 2.5088451e-14          269          264 
  104000    315.11643      533 2.5168642e-14          269          264 
  104400     315.5394      535 2.5248873e-14          269          266 
  104800    316.00144      537 2.5329141e-14          271          266 
  105200    316.44045      540 2.5409445e-14          274          266 
  105600    316.85386      541 2.5489784e-14          275          266 
  106000    317.27366      542 2.5570158e-14          275          267 
  106400    317.68955      544 2.5650565e-14          276          268 
  106800    318.10626      545 2.5731007e-14          276          269 
  107200    318.51858      546 2.5811482e-14          277          269 
  107600    318.93364      549 2.589199e-14          277          272 
  108000    319.34512      553 2.5972531e-14          277          276 
  108400    319.75431      556 2.6053104e-14          277          279 
  108800     320.4795      557 2.6133672e-14          277          280 
  109200    320.81448      557 2.6214303e-14          277          280 
  109600     321.2036      557 2.6294975e-14          277          280 
  110000    321.62102      560 2.6375684e-14          279          281 
  110400    322.03404      563 2.6456427e-14          282          281 
  110800    322.45052      564 2.6537204e-14          283          281 
  111200    322.87391      565 2.6618014e-14          284          281 
  111600    323.28866      567 2.6698857e-14          284          283 
  112000    323.68876      569 2.6779733e-14          285          284 
  112400    324.08574      570 2.686064e-14          286          284 
  112800    324.46436      572 2.694154e-14          287          285 
  113200    324.84084      573 2.7022478e-14          287          286 
  113600    325.52815      574 2.7103414e-14          287          287 
  114000    325.84538      575 2.7184417e-14          287          288 
  114400    326.53736      579  2.72654e-14          288          291 
  114800    326.84645      579 2.7346453e-14          288          291 
  115200    327.20557      581 2.7427551e-14          290          291 
  115600     327.6419      584 2.750869e-14          293          291 
  116000    328.00729      587 2.7589866e-14          295          292 
  116400     328.4154      589 2.7671077e-14          295          294 
  116800     329.0874      590 2.7752282e-14          296          294 
  117200    329.39432      592 2.7833553e-14          297          295 
  117600    330.06544      593 2.7914827e-14          297          296 
  118000    330.37856      595 2.7996167e-14          298          297 
  118400    330.71826      596 2.8077549e-14          298          298 
  118800    331.08419      597 2.815897e-14          299          298 
  119200    331.44926      598 2.8240425e-14          300          298 
  119600    331.82693      599 2.8321914e-14          300          299 
  120000    332.27641      599 2.8403436e-14          300          299 
  120400    332.64157      602 2.8484989e-14          301          301 
  120800    333.01116      603 2.8566572e-14          301          302 
  121200    333.37841      605 2.8648185e-14          302          303 
  121600    333.76245      606 2.8729828e-14          303          303 
  122000    334.12093      606  2.88115e-14          303          303 
  122400    334.47656      607 2.8893201e-14          303          304 
  122800    334.82794      607 2.8974931e-14          303          304 
  123200    335.18694      609 2.9056691e-14          304          305 
  123600    335.56044      611 2.9138478e-14          306          305 
  124000    335.92318      611 2.9220294e-14          306          305 
  124400    336.28684      613 2.9302138e-14          307          306 
  124800    336.99331      614 2.9383966e-14          308          306 
  125200    337.26147      617 2.946586e-14          311          306 
  125600    337.59162      623 2.9547792e-14          313          310 
  126000    338.21046      623 2.962972e-14          313          310 
  126400    338.47358      623 2.9711715e-14          313          310 
  126800    338.79224      624 2.9793748e-14          314          310 
  127200    339.49456      625 2.9875767e-14          314          311 
  127600    339.75697      626 2.9957855e-14          314          312 
  128000     340.4166      627 3.0039959e-14          314          313 
  128400    340.90819      628 3.0122103e-14          314          314 
  128800    341.16096      628 3.0204316e-14          314          314 
  129200     341.7743      628 3.0286533e-14          314          314 
  129600    342.03549      630 3.0368816e-14          315          315 
  130000     342.3446      633 3.0451142e-14          317          316 
  130400    342.66149      633 3.0533504e-14          317          316 
  130800    342.98519      634 3.0615901e-14          317          317 
  131200    343.30729      636 3.069833e-14          318          318 
  131600    343.63298      639 3.078079e-14          318          321 
  132000     343.9586      640 3.0863281e-14          319          321 
  132400    344.29011      640 3.0945739e-14          319          321 
  132800    344.89085      643 3.1028197e-14          319          324 
  133200    345.14265      643 3.1110723e-14          319          324 
  133600    345.45472      644 3.1193287e-14          320          324 
  134000    345.77205      644 3.1275884e-14          320          324 
  134400    346.31888      646 3.1358477e-14          320          326 
  134800    346.57473      646 3.1441131e-14          320          326 
  135200     347.2301      646 3.1523773e-14          320          326 
  135600    347.46924      646 3.1606396e-14          320          326 
  136000    347.71143      647 3.1689086e-14          320          327 
  136400    348.02108      647 3.177182e-14          320          327 
  136800     348.3467      648 3.1854589e-14          321          327 
  137200    349.01621      648 3.1937346e-14          321          327 
  137600    349.30474      649 3.202017e-14          321          328 
  138000    349.60198      650 3.2103033e-14          321          329 
  138400    349.89929      651 3.2185932e-14          321          330 
  138800    350.20101      652 3.2268862e-14          321          331 
  139200    350.50442      652 3.2351823e-14          321          331 
  139600    351.12073      653 3.2434763e-14          322          331 
  140000    351.35795      655 3.2517767e-14          322          333 
  140400    351.65014      655 3.2600808e-14          322          333 
  140800      351.944      655 3.2683882e-14          322          333 
  141200    352.56811      656 3.2766939e-14          322          334 
  141600    352.80079      657 3.2850063e-14          323          334 
  142000    353.08379      658 3.2933226e-14          324          334 
  142400    353.38119      658 3.3016423e-14          324          334 
  142800    353.67586      659 3.3099651e-14          324          335 
  143200    353.98328      659 3.3182908e-14          324          335 
  143600     354.2791      660 3.3266194e-14          325          335 
  144000    354.57515      660 3.3349507e-14          325          335 
  144400    354.86575      664 3.3432804e-14          327          337 
  144800    355.35894      666 3.3516114e-14          328          338 
  145200    355.59304      666 3.3599483e-14          328          338 
  145600    355.86355      669 3.3682887e-14          330          339 
  146000    356.43874      670 3.3766269e-14          330          340 
  146400    356.66261      670 3.3849714e-14          330          340 
  146800    356.93571      672 3.3933194e-14          330          342 
  147200    357.21739      672 3.4016707e-14          330          342 
  147600    357.50457      672 3.4100249e-14          330          342 
  148000    357.79687      672 3.4183818e-14          330          342 
  148400    358.08452      675 3.4267415e-14          331          344 
  148800    358.63686      678 3.4350989e-14          333          345 
  149200    358.86881      679 3.4434624e-14          333          346 
  149600    359.13701      679 3.4518295e-14          333          346 
  150000    359.40841      681 3.4601998e-14          335          346 
  150400     359.6873      681 3.4685731e-14          335          346 
  150800    359.96932      684 3.4769465e-14          336          348 
  151200    360.53445      686  3.48532e-14          336          350 
  151600    360.76434      687 3.4936994e-14          337          350 
  152000    361.05123      687 3.502082e-14          337          350 
  152400    361.33413      688 3.5104677e-14          337          351 
  152800    361.62759      690 3.5188562e-14          337          353 
  153200    362.03514      691 3.5272398e-14          337          354 
  153600     362.2801      692 3.5356283e-14          338          354 
  154000     362.5526      692  3.54402e-14          338          354 
  154400    362.82409      693 3.5524148e-14          339          354 
  154800    363.09929      695 3.5608124e-14          339          356 
  155200    363.36921      697 3.5692053e-14          341          356 
  155600    363.62971      699 3.5776019e-14          342          357 
  156000    364.21831      701 3.5860006e-14          343          358 
  156400     364.7694      704 3.5944001e-14          345          359 
  156800    364.98671      705 3.6028062e-14          345          360 
  157200     365.2291      707 3.6112167e-14          345          362 
  157600    365.47977      707 3.6196307e-14          345          362 
  158000    365.73956      711 3.6280479e-14          347          364 
  158400    366.27653      712 3.6364637e-14          348          364 
  158800    366.48563      714 3.6448854e-14          349          365 
  159200    366.72538      714 3.6533112e-14          349          365 
  159600    366.97018      714 3.6617405e-14          349          365 
  160000     367.2872      715 3.6701728e-14          349          366 
  160400    367.87728      719   3.6786e-14          349          370 
  160800    368.35149      720 3.6870301e-14          349          371 
  161200    368.90474      721 3.6954551e-14          349          372 
  161600    369.09289      721 3.7038874e-14          349          372 
  162000      369.317      722 3.7123182e-14          349          373 
  162400    369.65248      725 3.7207541e-14          352          373 
  162800    369.84204      726 3.7291963e-14          353          373 
  163200    370.12114      728 3.7376313e-14          354          374 
  163600    370.59433      729 3.7460693e-14          355          374 
  164000    370.77643      731 3.7545143e-14          356          375 
  164400     370.9863      733 3.7629643e-14          358          375 
  164800    371.20643      737 3.7714185e-14          361          376 
  165200     371.4396      737 3.7798763e-14          361          376 
  165600    371.67817      737 3.7883372e-14          361          376 
  166000    371.92046      737 3.7968011e-14          361          376 
  166400    372.16691      739 3.8052679e-14          362          377 
  166800    372.41392      739 3.8137374e-14          362          377 
  167200    372.66381      739 3.8222097e-14          362          377 
  167600    372.91525      740 3.8306845e-14          362          378 
  168000    373.46826      745 3.8391557e-14          366          379 
  168400    373.66082      745 3.8476329e-14          366          379 
  168800    373.89023      749 3.8561139e-14          369          380 
  169200    374.12759      751 3.864598e-14          370          381 
  169600    374.37233      753 3.8730851e-14          370          383 
  170000    375.02496      754 3.881568e-14          370          384 
  170400    375.20469      756 3.8900576e-14          371          385 
  170800    375.43826      758 3.8985511e-14          372          386 
  171200    375.67787      758 3.907048e-14          372          386 
  171600    375.91331      758 3.915548e-14          372          386 
  172000     376.4473      762 3.9240423e-14          374          388 
  172400    376.64122      763 3.9325387e-14          374          389 
  172800    377.03356      764 3.9410373e-14          375          389 
  173200     377.2198      764 3.9495418e-14          375          389 
  173600    377.43062      766 3.9580506e-14          376          390 
  174000    378.03537      767 3.9665569e-14          377          390 
  174400    378.61492      769 3.9750654e-14          378          391 
  174800    378.78908      770 3.9835808e-14          379          391 
  175200    379.00408      773 3.9920975e-14          381          392 
  175600    379.22836      775 4.0006185e-14          382          393 
  176000    379.90327      776 4.0091377e-14          383          393 
  176400     380.3347      777 4.0176607e-14          383          394 
  176800    380.50333      777 4.0261908e-14          383          394 
  177200    380.69915      779 4.0347258e-14          384          395 
  177600    380.91282      782 4.0432649e-14          385          397 
  178000    381.14306      782 4.0518034e-14          385          397 
  178400    381.36878      783 4.0603456e-14          386          397 
  178800    381.60476      788 4.0688911e-14          387          401 
  179200    381.84425      791 4.0774394e-14          388          403 
  179600    382.40236      792 4.0859778e-14          389          403 
  180000    382.58537      793 4.0945225e-14          389          404 
  180400    382.80973      795 4.1030716e-14          391          404 
  180800    383.07663      796 4.1116243e-14          391          405 
  181200    383.32936      802 4.1201723e-14          393          409 
  181600    383.56398      804 4.1287202e-14          393          411 
  182000     383.7934      806 4.1372722e-14          394          412 
  182400    384.36015      806 4.1458245e-14          394          412 
  182800    384.52791      807 4.1543832e-14          395          412 
  183200    384.73301      808 4.1629462e-14          396          412 
  183600    384.94668      811 4.1715129e-14          397          414 
  184000    385.39926      814 4.1800776e-14          398          416 
  184400    385.59168      815 4.1886477e-14          398          417 
  184800    386.12977      815 4.1972166e-14          398          417 
  185200    386.30087      816 4.2057919e-14          399          417 
  185600    386.50894      819 4.2143674e-14          399          420 
  186000    386.85119      819 4.2229456e-14          399          420 
  186400    387.03196      822 4.2315293e-14          400          422 
  186800    387.24064      824 4.240117e-14          401          423 
  187200    387.45642      827 4.248708e-14          404          423 
  187600    387.68413      828 4.2573015e-14          405          423 
  188000    387.91046      830 4.2658977e-14          406          424 
  188400    388.40376      830 4.2744903e-14          406          424 
  188800     388.7993      835 4.2830837e-14          406          429 
  189200    389.28368      838 4.2916767e-14          408          430 
  189600    389.45942      839 4.3002759e-14          409          430 
  190000    389.68178      841 4.3088794e-14          411          430 
  190400    389.90357      843 4.3174865e-14          411          432 
  190800    390.16982      844 4.3260967e-14          412          432 
  191200    390.39552      845  4.33471e-14          412          433 
  191600    391.08589      846 4.343315e-14          413          433 
  192000    391.26237      849 4.3519263e-14          414          435 
  192400      391.764      853 4.3605359e-14          415          438 
  192800    391.94925      861 4.3691514e-14          418          443 
  193200    392.15951      863 4.3777707e-14          419          444 
  193600    392.37701      866 4.3863935e-14          420          446 
  194000     392.8583      867 4.395015e-14          420          447 
  194400    393.02422      867 4.4036427e-14          420          447 
  194800     393.2199      869 4.4122746e-14          422          447 
  195200    393.42674      872 4.4209099e-14          424          448 
  195600    393.63857      873 4.4295438e-14          424          449 
  196000    394.05401      874 4.4381785e-14          424          450 
  196400    394.22792      877 4.4468186e-14          426          451 
  196800    394.71036      881 4.4554565e-14          429          452 
  197200    394.88545      882 4.4641004e-14          430          452 
  197600    395.32028      886 4.4727436e-14          432          454 
  198000    395.82031      892 4.4813871e-14          437          455 
  198400    396.01442      893 4.4900314e-14          437          456 
  198800    396.40325      896 4.4986775e-14          439          457 
  199200    396.57446      896 4.5073295e-14          439          457 
  199600    396.76156      898 4.5159862e-14          440          458 
  200000    397.02263      898 4.5246465e-14          440          458 
  200400    397.22655      899 4.5333101e-14          440          459 
  200800    397.43943      899 4.5419766e-14          440          459 
  201200    397.65155      899 4.5506458e-14          440          459 
  201600     397.8678      900 4.5593176e-14          441          459 
  202000    398.08335      905 4.567992e-14          441          464 
  202400    398.30498      906 4.5766643e-14          441          465 
  202800    398.52289      908 4.5853395e-14          442          466 
  203200    398.96554      911 4.5940119e-14          443          468 
  203600    399.15876      914 4.6026859e-14          444          470 
  204000    399.55156      916 4.6113549e-14          444          472 
  204400    399.90121      919 4.6200268e-14          445          474 
  204800    400.33556      921 4.6287008e-14          445          476 
  205200      400.494      922 4.6373813e-14          445          477 
  205600    400.67751      924 4.6460663e-14          445          479 
  206000    400.86492      924 4.6547555e-14          445          479 
  206400    401.05716      926 4.6634482e-14          446          480 
  206800    401.25554      928 4.672144e-14          446          482 
  207200    401.45775      929 4.6808426e-14          446          483 
  207600    401.96786      935 4.6895371e-14          449          486 
  208000    402.55536      937 4.6982305e-14          450          487 
  208400    402.91806      940 4.7069278e-14          452          488 
  208800    403.07714      940 4.7156312e-14          452          488 
  209200    403.25046      944 4.7243395e-14          455          489 
  209600    403.43421      947 4.733052e-14          457          490 
  210000    403.62762      952 4.7417678e-14          459          493 
  210400    404.21392      959 4.750477e-14          462          497 
  210800    404.59634      960 4.7591877e-14          462          498 
  211200    404.76273      962 4.7679044e-14          462          500 
  211600    404.95174      965 4.7766257e-14          463          502 
  212000    405.15162      966 4.7853507e-14          464          502 
  212400    405.83245      968 4.7940675e-14          465          503 
  212800    406.02142      973 4.8027864e-14          465          508 
  213200     406.2062      976 4.8115106e-14          466          510 
  213600    406.40497      982 4.8202315e-14          471          511 
  214000    406.60237      988 4.8289565e-14          475          513 
  214400    406.80037      990 4.8376854e-14          475          515 
  214800    406.99561      992 4.8464178e-14          475          517 
  215200    407.40239      993 4.8551485e-14          475          518 
  215600    407.91518      995 4.8638787e-14          477          518 
  216000    408.07336      997 4.8726152e-14          477          520 
  216400    408.57297     1002 4.8813508e-14          480          522 
  216800    408.73277     1002 4.8900925e-14          480          522 
  217200    409.10375     1006 4.8988317e-14          483          523 
  217600    409.68491     1007 4.9075724e-14          484          523 
  218000    410.30892     1007 4.9163119e-14          484          523 
  218400    410.50106     1011 4.9250504e-14          485          526 
  218800    410.66241     1012 4.9337954e-14          486          526 
  219200    410.85807     1014 4.9425406e-14          486          528 
  219600    411.03672     1014 4.9512907e-14          486          528 
  220000    411.23552     1017 4.9600406e-14          488          529 
  220400    411.65119     1017 4.9687919e-14          488          529 
  220800    411.81818     1019 4.977549e-14          490          529 
  221200    411.99247     1022 4.9863105e-14          491          531 
  221600    412.39319     1025 4.9950705e-14          493          532 
  222000    412.55382     1025 5.0038361e-14          493          532 
  222400    412.73458     1026 5.0126057e-14          494          532 
  222800    412.92506     1028 5.0213787e-14          495          533 
  223200    413.11959     1030 5.0301546e-14          496          534 
  223600    413.35404     1033 5.0389257e-14          499          534 
  224000    413.53453     1036 5.0477012e-14          501          535 
  224400    414.00586     1039 5.0564737e-14          503          536 
  224800    414.16446     1040 5.065252e-14          503          537 
  225200     414.3519     1041 5.0740341e-14          504          537 
  225600    414.55104     1042 5.0828155e-14          504          538 
  226000    415.08097     1048 5.0915932e-14          508          540 
  226400    415.52369     1051 5.100371e-14          509          542 
  226800    415.68821     1052 5.1091545e-14          509          543 
  227200    415.86867     1053 5.1179423e-14          510          543 
  227600    416.05692     1055 5.1267338e-14          511          544 
  228000    416.53571     1058 5.1355262e-14          513          545 
  228400    416.69776     1060 5.1443239e-14          513          547 
  228800    417.13157     1062 5.1531253e-14          514          548 
  229200    417.36179     1065 5.1619241e-14          514          551 
  229600    417.52049     1068 5.1707286e-14          515          553 
  230000    417.71008     1073 5.1795367e-14          518          555 
  230400    417.94107     1074 5.1883412e-14          518          556 
  230800    418.09994     1076 5.1971509e-14          520          556 
  231200    418.72266     1082 5.2059555e-14          522          560 
  231600    419.06419     1085 5.2147626e-14          524          561 
  232000    419.22761     1085 5.2235754e-14          524          561 
  232400    419.78844     1089 5.2323829e-14          526          563 
  232800    420.14742     1093 5.241193e-14          527          566 
  233200    420.30615     1093 5.250009e-14          527          566 
  233600    420.49635     1095 5.2588255e-14          529          566 
  234000    420.67344     1098 5.2676468e-14          532          566 
  234400    420.87017     1100 5.2764679e-14          533          567 
  234800    421.04871     1102 5.2852931e-14          534          568 
  235200    421.26526     1103 5.2941171e-14          534          569 
  235600    422.00757     1107 5.302937e-14          536          571 
  236000    422.37032     1109 5.3117553e-14          536          573 
  236400    422.69556     1113 5.3205743e-14          536          577 
  236800    422.86948     1115 5.329399e-14          537          578 
  237200    423.05382     1116 5.338228e-14          538          578 
  237600     423.2488     1117 5.3470609e-14          539          578 
  238000    423.44605     1120 5.3558973e-14          541          579 
  238400    423.87003     1123 5.3647315e-14          542          581 
  238800    424.26432     1127 5.3735634e-14          545          582 
  239200    424.47896     1128 5.3824002e-14          546          582 
  239600    424.62044     1131 5.3912434e-14          547          584 
  240000    424.86058     1132 5.4000908e-14          547          585 
  240400    425.07152     1133 5.408936e-14          547          586 
  240800    425.24127     1135 5.417786e-14          547          588 
  241200    425.43137     1138 5.4266394e-14          548          590 
  241600    425.62141     1142 5.4354934e-14          550          592 
  242000    426.18011     1144 5.4443442e-14          551          593 
  242400    426.33112     1148 5.4532009e-14          553          595 
  242800    426.72856     1149 5.4620563e-14          554          595 
  243200    426.89779     1151 5.4709171e-14          555          596 
  243600    427.08038     1152 5.4797818e-14          555          597 
  244000    427.42346     1155 5.4886461e-14          556          599 
  244400    427.60904     1158 5.4975118e-14          558          600 
  244800     427.8242     1159 5.5063763e-14          558          601 
  245200    428.45153     1162 5.5152387e-14          559          603 
  245600    428.84136     1162 5.5241025e-14          559          603 
  246000    429.29594     1165 5.5329635e-14          561          604 
  246400    429.45783     1166 5.5418303e-14          561          605 
  246800    429.62948     1168 5.5507016e-14          562          606 
  247200    430.02028     1169 5.5595728e-14          562          607 
  247600    430.18028     1172 5.5684492e-14          565          607 
  248000    430.35652     1173 5.5773297e-14          566          607 
  248400     430.7574     1175 5.5862088e-14          567          608 
  248800    431.20033     1176 5.5950881e-14          567          609 
  249200    431.35674     1176 5.6039731e-14          567          609 
  249600    431.52828     1178 5.6128625e-14          569          609 
  250000     431.7108     1179 5.6217556e-14          569          610 
  250400     431.9022     1183 5.6306485e-14          571          612 
  250800    432.08016     1183 5.6395452e-14          571          612 
  251200    432.30364     1184 5.6484389e-14          571          613 
  251600    432.46523     1185 5.6573374e-14          571          614 
  252000    432.64717     1186 5.6662394e-14          572          614 
  252400    432.84014     1186 5.6751444e-14          572          614 
  252800    433.02567     1186 5.6840523e-14          572          614 
  253200    433.21358     1187 5.6929627e-14          573          614 
  253600    433.40489     1187 5.7018756e-14          573          614 
  254000    433.85836     1188 5.7107839e-14          573          615 
  254400    434.01831     1189 5.7196974e-14          573          616 
  254800    434.20611     1191 5.7286141e-14          574          617 
  255200    434.65648     1192 5.7375283e-14          575          617 
  255600    434.81949     1192 5.7464478e-14          575          617 
  256000    435.02902     1193 5.7553659e-14          575          618 
  256400    435.18752     1199 5.764289e-14          578          621 
  256800    435.36794     1199 5.7732155e-14          578          621 
  257200    435.57823     1202 5.7821398e-14          580          622 
  257600    436.05266     1202 5.7910636e-14          580          622 
  258000    436.20485     1203 5.7999928e-14          581          622 
  258400     436.3794     1204 5.8089256e-14          582          622 
  258800    436.55951     1205 5.8178617e-14          583          622 
  259200    436.95184     1208 5.8267941e-14          583          625 
  259600     437.3542     1210 5.8357295e-14          583          627 
  260000    437.69958     1210 5.8446656e-14          583          627 
  260400    437.85947     1212 5.853607e-14          584          628 
  260800    438.02902     1215 5.8625524e-14          587          628 
  261200    438.20785     1216 5.8715013e-14          588          628 
  261600    438.57769     1218 5.8804476e-14          588          630 
  262000    438.78265     1220 5.8893937e-14          589          631 
  262400    438.93781     1223 5.898345e-14          591          632 
  262800    439.11586     1225 5.9072997e-14          592          633 
  263200    439.30315     1226 5.9162573e-14          593          633 
  263600    439.86176     1228 5.9252068e-14          595          633 
  264000    440.15285     1229 5.9341522e-14          595          634 
  264400    440.39139     1230 5.9430964e-14          595          635 
  264800    440.59987     1232 5.9520418e-14          596          636 
  265200    440.72442     1237 5.9609942e-14          598          639 
  265600    441.12739     1238 5.9699465e-14          598          640 
  266000    441.62138     1238 5.9789009e-14          598          640 
  266400    441.99591     1238 5.9878556e-14          598          640 
  266800    442.15179     1239 5.9968159e-14          598          641 
  267200     442.5184     1243 6.0057772e-14          599          644 
  267600    442.72858     1245 6.0147383e-14          600          645 
  268000    443.26617     1245 6.0237026e-14          600          645 
  268400    443.42243     1247 6.0326725e-14          602          645 
  268800    443.69537     1248 6.0416393e-14          603          645 
  269200    443.82387     1249 6.0506132e-14          603          646 
  269600     443.9918     1249 6.0595911e-14          603          646 
  270000    444.36744     1250 6.0685684e-14          603          647 
  270400    444.74155     1251 6.0775473e-14          603          648 
  270800    445.18371     1253 6.0865276e-14          604          649 
  271200    445.34782     1253 6.0955131e-14          604          649 
  271600    445.56076     1257 6.104498e-14          606          651 
  272000    445.97936     1258 6.1134792e-14          607          651 
  272400    446.38152     1259 6.1224653e-14          607          652 
  272800    446.53544     1262 6.1314567e-14          608          654 
  273200    446.70425     1263 6.1404523e-14          608          655 
  273600    446.87678     1265 6.1494516e-14          608          657 
  274000    447.21088     1268 6.1584503e-14          608          660 
  274400    447.37544     1270 6.1674538e-14          608          662 
  274800    447.78622     1271 6.1764545e-14          608          663 
  275200    448.29119     1273 6.1854556e-14          609          664 
  275600     448.5048     1275 6.1944582e-14          609          666 
  276000    448.64544     1275 6.2034667e-14          609          666 
  276400    448.97787     1276 6.212475e-14          610          666 
  276800    449.44491     1277 6.2214762e-14          611          666 
  277200    449.84954     1279 6.2304788e-14          611          668 
  277600    450.27673     1281 6.2394867e-14          612          669 
  278000    450.43606     1282 6.2484997e-14          612          670 
  278400    450.60685     1282 6.2575169e-14          612          670 
  278800    450.77916     1285 6.2665377e-14          612          673 
  279200    450.95496     1287 6.2755619e-14          613          674 
  279600    451.13367     1288 6.2845893e-14          614          674 
  280000    451.66571     1290 6.2936137e-14          614          676 
  280400    451.81818     1294 6.3026434e-14          616          678 
  280800    452.37474     1297 6.3116633e-14          617          680 
  281200     452.6809     1297 6.3206872e-14          617          680 
  281600    452.82569     1297 6.3297169e-14          617          680 
  282000    453.21584     1299 6.3387466e-14          617          682 
  282400    453.71873     1300 6.3477793e-14          617          683 
  282800    453.86991     1301 6.3568176e-14          618          683 
  283200    454.23038     1303 6.365857e-14          619          684 
  283600    454.37966     1306 6.374902e-14          620          686 
  284000    454.74914     1309 6.383944e-14          620          689 
  284400    454.90336     1310 6.3929915e-14          620          690 
  284800    455.44372     1310 6.4020314e-14          620          690 
  285200    455.66294     1311 6.4110711e-14          620          691 
  285600    455.79009     1312 6.4201176e-14          621          691 
  286000    455.95213     1313 6.4291681e-14          622          691 
  286400    456.21325     1313 6.4382128e-14          622          691 
  286800    456.34168     1313 6.447264e-14          622          691 
  287200    456.72183     1313 6.4563139e-14          622          691 
  287600    456.88487     1313 6.4653689e-14          622          691 
  288000    457.05904     1314 6.4744277e-14          623          691 
  288400    457.23475     1315 6.4834901e-14          624          691 
  288800    457.41148     1317 6.4925556e-14          626          691 
  289200    457.59249     1317 6.5016241e-14          626          691 
  289600    457.77338     1319 6.5106955e-14          627          692 
  290000     457.9568     1321 6.5197695e-14          627          694 
  290400    458.13866     1323 6.528846e-14          628          695 
  290800    458.31734     1324 6.537925e-14          629          695 
  291200    458.50234     1325 6.5470065e-14          629          696 
  291600    458.69835     1326 6.5560854e-14          629          697 
  292000    459.18699     1326 6.5651614e-14          629          697 
  292400    459.57855     1328 6.5742378e-14          630          698 
  292800    459.73586     1328 6.5833194e-14          630          698 
  293200     460.1766     1328 6.5924008e-14          630          698 
  293600    460.50667     1330 6.6014814e-14          630          700 
  294000    460.87572     1334 6.6105639e-14          630          704 
  294400    461.03304     1334 6.6196519e-14          630          704 
  294800    461.19483     1335 6.6287441e-14          630          705 
  295200    461.66971     1335 6.6378376e-14          630          705 
  295600    461.99989     1337 6.6469227e-14          631          706 
  296000     462.1246     1339 6.656015e-14          632          707 
  296400     462.4706     1341 6.6651041e-14          633          708 
  296800    462.62739     1341 6.674199e-14          633          708 
  297200    462.78978     1342 6.6832987e-14          633          709 
  297600    462.95422     1345 6.6924028e-14          634          711 
  298000     463.1828     1347 6.7015049e-14          635          712 
  298400    463.39917     1348 6.7106063e-14          635          713 
  298800    463.92339     1350 6.7197105e-14          636          714 
  299200    464.49532     1352 6.7288167e-14          637          715 
  299600    464.72141     1352 6.7379219e-14          637          715 
  300000    465.17665     1353 6.7470259e-14          637          716 
  300400    465.40736     1354 6.7561262e-14          637          717 
  300800    465.52982     1354 6.7652338e-14          637          717 
  301200    465.67938     1354 6.7743462e-14          637          717 
  301600    465.83774     1358 6.7834626e-14          640          718 
  302000    466.00721     1359 6.7925825e-14          641          718 
  302400    466.17687     1361 6.8017055e-14          641          720 
  302800    466.40795     1362 6.8108243e-14          642          720 
  303200    466.78756     1364 6.8199391e-14          643          721 
  303600    466.93644     1366 6.8290593e-14          644          722 
  304000    467.13685     1367 6.8381794e-14          644          723 
  304400    467.27911     1367 6.8473049e-14          644          723 
  304800    467.44405     1368 6.856434e-14          644          724 
  305200    467.60933     1369 6.8655665e-14          644          725 
  305600    468.11317     1372 6.8746892e-14          645          727 
  306000    468.44766     1373 6.8838134e-14          645          728 
  306400     468.9151     1375 6.8929358e-14          646          729 
  306800    469.06314     1376 6.9020637e-14          647          729 
  307200    469.30153     1380 6.9111841e-14          648          732 
  307600    469.43012     1384 6.9203113e-14          650          734 
  308000    469.65185     1384 6.9294363e-14          650          734 
  308400    469.95386     1384 6.9385639e-14          650          734 
  308800    470.10539     1384 6.9476967e-14          650          734 
  309200    470.26842     1384 6.9568337e-14          650          734 
  309600    470.73643     1387 6.9659684e-14          651          736 
  310000    471.12113     1388 6.9751026e-14          652          736 
  310400    471.27684     1389 6.9842423e-14          652          737 
  310800    471.57618     1391 6.9933829e-14          653          738 
  311200    472.03627     1393 7.0025251e-14          654          739 
  311600    472.19623     1397 7.0116725e-14          655          742 
  312000    472.56358     1398 7.0208193e-14          655          743 
  312400    472.71675     1399 7.0299714e-14          656          743 
  312800    472.92219     1403 7.0391201e-14          656          747 
  313200     473.2774     1403 7.0482709e-14          656          747 
  313600    473.63082     1406 7.0574234e-14          657          749 
  314000    473.95767     1408 7.0665723e-14          658          750 
  314400    474.24574     1409 7.0757246e-14          658          751 
  314800    474.49924     1409 7.0848738e-14          658          751 
  315200    474.62098     1410  7.09403e-14          659          751 
  315600     474.7666     1411 7.1031909e-14          659          752 
  316000    474.97234     1413 7.1123512e-14          660          753 
  316400      475.368     1413 7.1215115e-14          660          753 
  316800    475.74001     1414 7.1306694e-14          660          754 
  317200    476.09717     1418 7.1398238e-14          663          755 
  317600    476.53489     1418 7.1489798e-14          663          755 
  318000    476.71643     1420 7.158141e-14          664          756 
  318400    477.08346     1423 7.167306e-14          664          759 
  318800    477.23507     1423 7.1764761e-14          664          759 
  319200    477.38967     1424 7.1856506e-14          664          760 
  319600    477.95768     1427 7.1948193e-14          665          762 
  320000    478.40525     1430 7.2039895e-14          668          762 
  320400    478.99669     1431 7.2131578e-14          669          762 
  320800    479.29118     1432 7.2223204e-14          669          763 
  321200     479.5227     1434 7.2314827e-14          669          765 
  321600    479.64703     1438 7.2406518e-14          672          766 
  322000    479.80198     1439 7.2498253e-14          672          767 
  322400    479.96266     1439 7.2590027e-14          672          767 
  322800    480.12668     1441 7.2681837e-14          673          768 
  323200    480.29736     1441 7.2773679e-14          673          768 
  323600    480.46161     1442 7.2865553e-14          673          769 
  324000    480.73582     1444 7.2957349e-14          674          770 
  324400    481.09607     1448 7.3049214e-14          674          774 
  324800    481.53097     1449 7.3141079e-14          674          775 
  325200    481.80036     1451 7.3232972e-14          676          775 
  325600    482.21591     1453 7.3324857e-14          677          776 
  326000    482.47619     1454 7.341677e-14          677          777 
  326400    482.96699     1454 7.350869e-14          677          777 
  326800    483.10531     1457 7.3600667e-14          678          779 
  327200    483.44563     1459 7.3692646e-14          679          780 
  327600     483.7142     1461 7.3784649e-14          680          781 
  328000    484.14038     1462 7.3876635e-14          680          782 
  328400    484.29328     1464 7.3968674e-14          681          783 
  328800    484.51252     1466 7.4060701e-14          681          785 
  329200    484.85853     1467 7.4152737e-14          681          786 
  329600     485.2856     1467 7.4244756e-14          681          786 
  330000    485.43084     1467 7.4336829e-14          681          786 
  330400    485.59651     1467 7.442894e-14          681          786 
  330800    485.77037     1468 7.4521087e-14          682          786 
  331200    485.93722     1471 7.4613267e-14          683          788 
  331600    486.32567     1474 7.4705433e-14          683          791 
  332000    486.57889     1475 7.4797563e-14          684          791 
  332400    486.71425     1477 7.4889757e-14          686          791 
  332800    487.29161     1478 7.4981909e-14          686          792 
  333200    487.43343     1479 7.5074116e-14          687          792 
  333600    487.87347     1479 7.5166344e-14          687          792 
  334000    488.02522     1481 7.525862e-14          689          792 
  334400    488.29781     1482 7.5350831e-14          689          793 
  334800    488.42705     1482 7.5443106e-14          689          793 
  335200    488.59224     1486 7.5535414e-14          691          795 
  335600    488.95131     1489 7.5627696e-14          692          797 
  336000    489.10393     1490 7.5720026e-14          693          797 
  336400    489.27027     1491 7.5812393e-14          693          798 
  336800    489.43393     1492 7.5904793e-14          693          799 
  337200    489.60566     1495 7.5997222e-14          694          801 
  337600    489.96002     1498 7.6089625e-14          695          803 
  338000    490.11462     1500 7.6182073e-14          696          804 
  338400    490.27533     1500 7.6274556e-14          696          804 
  338800    490.43888     1502 7.6367071e-14          696          806 
  339200    490.66345     1504 7.6459547e-14          697          807 
  339600    490.80559     1505 7.6552075e-14          697          808 
  340000    490.97011     1506 7.6644631e-14          697          809 
  340400    491.39453     1508 7.6737113e-14          697          811 
  340800    491.87951     1510 7.682963e-14          699          811 
  341200    492.26353     1511 7.6922181e-14          699          812 
  341600    492.41072     1512 7.7014786e-14          700          812 
  342000    493.01083     1514 7.7107304e-14          701          813 
  342400    493.15289     1516 7.7199879e-14          703          813 
  342800    493.31506     1519 7.7292493e-14          703          816 
  343200    493.62678     1521 7.7385047e-14          704          817 
  343600    493.99937     1522 7.747758e-14          705          817 
  344000    494.24341     1526 7.7570087e-14          706          820 
  344400    494.60864     1527 7.7662659e-14          706          821 
  344800    494.82063     1528 7.7755234e-14          706          822 
  345200    495.18836     1531 7.7847811e-14          707          824 
  345600    495.52018     1536 7.7940326e-14          709          827 
  346000    495.90268     1540 7.8032903e-14          709          831 
  346400    496.15547     1541 7.8125463e-14          710          831 
  346800    496.59201     1543 7.8218028e-14          711          832 
  347200    496.97136     1547 7.8310618e-14          713          834 
  347600    497.29369     1549 7.8403243e-14          714          835 
  348000    497.44793     1550 7.8495922e-14          714          836 
  348400    497.88204     1553 7.8588576e-14          717          836 
  348800    498.30268     1553 7.8681255e-14          717          836 
  349200    498.45298     1553 7.8773986e-14          717          836 
  349600    498.61153     1556 7.8866759e-14          718          838 
  350000    499.09511     1560 7.8959586e-14          719          841 
  350400    499.45064     1561 7.9052418e-14          719          842 
  350800    499.74929     1561 7.9145274e-14          719          842 
  351200    499.89349     1563 7.9238184e-14          721          842 
  351600    500.41349     1565 7.9331041e-14          722          843 
  352000    500.69857     1567 7.9423939e-14          723          844 
  352400    501.29551     1569 7.9516826e-14          724          845 
  352800    501.44427     1571 7.9609768e-14          726          845 
  353200    501.62327     1571 7.9702746e-14          726          845 
  353600    501.89316     1574 7.9795664e-14          726          848 
  354000    502.17627     1576 7.988855e-14          727          849 
  354400    502.60896     1577 7.9981436e-14          728          849 
  354800    502.99148     1583 8.0074347e-14          729          854 
  355200    503.58784     1585 8.0167251e-14          730          855 
  355600    503.94257     1590 8.0260174e-14          731          859 
  356000    504.34819     1591 8.0353092e-14          731          860 
  356400    504.56866     1593 8.0446007e-14          733          860 
  356800    504.70815     1596 8.0538987e-14          734          862 
  357200    505.06506     1597 8.0631951e-14          735          862 
  357600    505.27942     1598 8.0724924e-14          735          863 
  358000     505.4142     1600 8.0817959e-14          736          864 
  358400    505.75483     1601 8.0910988e-14          737          864 
  358800    505.91589     1603 8.100407e-14          739          864 
  359200    506.16241     1606 8.1097102e-14          739          867 
  359600    506.60041     1609 8.1190136e-14          740          869 
  360000    506.95477     1609 8.1283116e-14          740          869 
  360400    507.51667     1612 8.137611e-14          740          872 
  360800     507.8945     1616 8.1469125e-14          741          875 
  361200    508.25748     1620 8.1562138e-14          742          878 
  361600    508.70747     1620 8.1655151e-14          742          878 
  362000     508.9996     1622 8.1748209e-14          743          879 
  362400    509.13996     1623 8.1841326e-14          744          879 
  362800    509.54019     1628 8.1934402e-14          746          882 
  363200     510.0297     1634 8.2027461e-14          747          887 
  363600    510.30429     1636 8.2120529e-14          747          889 
  364000    510.45937     1639 8.2213649e-14          747          892 
  364400    510.70632     1640 8.2306737e-14          747          893 
  364800    510.83412     1642 8.2399888e-14          748          894 
  365200     510.9998     1643 8.2493078e-14          748          895 
  365600    511.31618     1645 8.258626e-14          748          897 
  366000    511.60763     1650 8.2679342e-14          751          899 
  366400     511.7389     1651 8.2772494e-14          751          900 
  366800    511.96776     1652 8.286564e-14          752          900 
  367200    512.10188     1653 8.2958848e-14          753          900 
  367600    512.26176     1653 8.3052095e-14          753          900 
  368000    512.42543     1656 8.3145378e-14          753          903 
  368400    512.75045     1657 8.3238575e-14          753          904 
  368800    513.15319     1661 8.3331801e-14          753          908 
  369200    513.80902     1664 8.3425045e-14          754          910 
  369600    513.95891     1664 8.3518346e-14          754          910 
  370000     514.1228     1664 8.3611685e-14          754          910 
  370400    514.29502     1666 8.3705061e-14          754          912 
  370800    514.72534     1667 8.3798357e-14          754          913 
  371200    515.00775     1669 8.389168e-14          754          915 
  371600    515.16043     1669 8.3985057e-14          754          915 
  372000    515.47291     1671 8.4078377e-14          756          915 
  372400    515.84839     1673 8.4171664e-14          757          916 
  372800    516.16486     1677 8.4264939e-14          758          919 
  373200     516.6436     1678 8.4358229e-14          758          920 
  373600    517.16324     1678 8.4451491e-14          758          920 
  374000    517.48337     1681 8.4544666e-14          760          921 
  374400    517.82322     1683 8.4637924e-14          761          922 
  374800    518.13956     1688 8.4731209e-14          762          926 
  375200    518.37578     1689 8.4824502e-14          762          927 
  375600    518.65311     1689 8.4917829e-14          762          927 
  376000    518.87894     1691 8.5011194e-14          764          927 
  376400    519.24259     1692 8.5104615e-14          765          927 
  376800      519.391     1692 8.5198092e-14          765          927 
  377200    519.54464     1692 8.5291613e-14          765          927 
  377600    519.75695     1696 8.538512e-14          766          930 
  378000    520.09187     1698 8.5478641e-14          768          930 
  378400    520.37862     1700 8.5572177e-14          769          931 
  378800    520.79754     1701 8.5665798e-14          769          932 
  379200    521.31144     1703 8.5759386e-14          770          933 
  379600    521.74689     1705 8.5852943e-14          771          934 
  380000    522.11607     1708 8.5946509e-14          772          936 
  380400    522.56759     1710 8.6040066e-14          774          936 
  380800    522.99812     1711 8.6133625e-14          775          936 
  381200    523.15214     1712 8.6227237e-14          776          936 
  381600    523.31575     1717 8.6320886e-14          778          939 
  382000    523.62229     1718 8.6414461e-14          778          940 
  382400    523.87749     1721 8.6508009e-14          780          941 
  382800    524.17791     1722 8.660158e-14          781          941 
  383200    524.53274     1726 8.6695132e-14          783          943 
  383600    524.83194     1731 8.6788721e-14          784          947 
  384000    525.28165     1734 8.6882332e-14          784          950 
  384400    525.58901     1734 8.697591e-14          784          950 
  384800    525.90068     1736 8.7069478e-14          785          951 
  385200    526.51794     1738 8.7163078e-14          786          952 
  385600    526.67592     1740 8.7256734e-14          787          953 
  386000    526.85502     1742 8.735043e-14          787          955 
  386400     527.1658     1743 8.7444086e-14          788          955 
  386800    527.30944     1746 8.7537804e-14          789          957 
  387200    527.51645     1747 8.7631549e-14          789          958 
  387600    527.94716     1748 8.772526e-14          790          958 
  388000    528.24267     1752 8.7818995e-14          791          961 
  388400    528.58889     1752 8.791273e-14          791          961 
  388800    528.75967     1754 8.8006519e-14          793          961 
  389200    529.05949     1755 8.8100314e-14          793          962 
  389600    529.37989     1757 8.8194143e-14          793          964 
  390000     529.7021     1758 8.8288001e-14          793          965 
  390400    530.02161     1758 8.8381817e-14          793          965 
  390800    530.33707     1762 8.8475695e-14          797          965 
  391200    530.74295     1763 8.8569578e-14          798          965 
  391600    531.05327     1767 8.8663451e-14          800          967 
  392000    531.43395     1769 8.8757366e-14          800          969 
  392400    531.65015     1771 8.8851267e-14          801          970 
  392800    531.95181     1774 8.8945128e-14          803          971 
  393200    532.35621     1776 8.9038972e-14          805          971 
  393600    532.77841     1778 8.9132733e-14          806          972 
  394000    533.13935     1781 8.9226548e-14          808          973 
  394400    533.51119     1782 8.9320478e-14          808          974 
  394800    533.66254     1784 8.9414464e-14          808          976 
  395200    534.10917     1789 8.9508424e-14          809          980 
  395600    534.61878     1790 8.9602437e-14          809          981 
  396000    535.11916     1793 8.9696437e-14          811          982 
  396400    535.42768     1795 8.9790458e-14          811          984 
  396800    535.72609     1797 8.9884416e-14          811          986 
  397200    535.96287     1799 8.9978382e-14          812          987 
  397600    536.09583     1800 9.0072415e-14          813          987 
  398000    536.53959     1804 9.0166417e-14          815          989 
  398400    536.82747     1807 9.0260406e-14          815          992 
  398800    537.08999     1807 9.0354428e-14          815          992 
  399200    537.23786     1807 9.0448506e-14          815          992 
  399600    537.39711     1807 9.0542628e-14          815          992 
  400000    537.77634     1808 9.0636748e-14          815          993 
  400400    538.20769     1813 9.0730863e-14          818          995 
  400800       538.64     1815 9.0824979e-14          819          996 
  401200    538.79884     1817 9.0919145e-14          821          996 
  401600    538.96659     1819 9.101335e-14          823          996 
  402000    539.29718     1821 9.1107534e-14          825          996 
  402400    539.45927     1823 9.1201764e-14          826          997 
  402800    539.85012     1825 9.1296019e-14          827          998 
  403200    540.06456     1827 9.1390278e-14          827         1000 
  403600    540.21052     1829 9.1484596e-14          829         1000 
  404000    540.38373     1830 9.1578945e-14          829         1001 
  404400    540.55626     1832 9.1673325e-14          830         1002 
  404800     540.7347     1832 9.1767732e-14          830         1002 
  405200    541.22851     1835 9.1862054e-14          831         1004 
  405600    541.48103     1836 9.1956367e-14          831         1005 
  406000    541.62973     1836 9.2050736e-14          831         1005 
  406400    541.78505     1837 9.2145149e-14          832         1005 
  406800    542.23701     1839 9.223955e-14          834         1005 
  407200    542.69024     1844 9.233397e-14          836         1008 
  407600    543.06112     1845 9.2428368e-14          837         1008 
  408000    543.46408     1846 9.2522791e-14          837         1009 
  408400    543.78836     1850 9.2617264e-14          838         1012 
  408800    544.23694     1853 9.2711744e-14          839         1014 
  409200    544.77693     1856  9.28062e-14          839         1017 
  409600    545.15645     1858 9.2900684e-14          839         1019 
  410000    545.62521     1859 9.2995228e-14          840         1019 
  410400    546.00295     1861 9.3089733e-14          840         1021 
  410800    546.16839     1863 9.3184289e-14          840         1023 
  411200    546.54625     1867 9.3278861e-14          840         1027 
  411600    546.85308     1868 9.3373435e-14          841         1027 
  412000    547.17345     1870 9.3468019e-14          843         1027 
  412400    547.55878     1872 9.3562574e-14          844         1028 
  412800     547.7291     1874 9.3657183e-14          845         1029 
  413200     547.8917     1879 9.3751833e-14          847         1032 
  413600    548.13251     1880 9.3846465e-14          848         1032 
  414000    548.41949     1881 9.3941009e-14          848         1033 
  414400    548.69165     1883 9.4035564e-14          848         1035 
  414800     549.0538     1884 9.4130151e-14          848         1036 
  415200    549.32283     1888 9.4224694e-14          850         1038 
  415600    549.62896     1890 9.4319278e-14          851         1039 
  416000    549.85858     1894 9.4413866e-14          853         1041 
  416400    550.00448     1897 9.4508517e-14          855         1042 
  416800     550.3111     1899 9.4603093e-14          855         1044 
  417200    550.72348     1901 9.4697747e-14          857         1044 
  417600    551.20219     1903 9.4792383e-14          858         1045 
  418000    551.73726     1904 9.4887048e-14          858         1046 
  418400    552.03763     1907 9.4981715e-14          860         1047 
  418800    552.34636     1908 9.5076346e-14          860         1048 
  419200    552.49278     1909 9.5171045e-14          861         1048 
  419600    552.97357     1914 9.5265714e-14          862         1052 
  420000    553.32828     1915 9.5360369e-14          863         1052 
  420400    553.72409     1916 9.5455023e-14          863         1053 
  420800    553.99802     1918 9.5549652e-14          863         1055 
  421200     554.2774     1919 9.5644314e-14          863         1056 
  421600    554.62421     1919 9.5738994e-14          863         1056 
  422000    554.78181     1920 9.5833727e-14          863         1057 
  422400    555.08636     1923 9.5928465e-14          864         1059 
  422800    555.32766     1927  9.60232e-14          866         1061 
  423200    555.67196     1930 9.611788e-14          867         1063 
  423600    556.22865     1934 9.6212596e-14          869         1065 
  424000    556.68334     1937 9.6307317e-14          869         1068 
  424400     557.0577     1942 9.6402085e-14          870         1072 
  424800    557.39663     1945 9.6496875e-14          873         1072 
  425200    557.55159     1946 9.6591719e-14          873         1073 
  425600    557.94776     1946 9.6686562e-14          873         1073 
  426000    558.17112     1947 9.6781436e-14          873         1074 
  426400    558.51749     1948 9.6876317e-14          874         1074 
  426800    559.05802     1948 9.6971175e-14          874         1074 
  427200    559.35934     1953 9.7066028e-14          875         1078 
  427600    559.69097     1954 9.7160897e-14          875         1079 
  428000    559.91698     1958 9.7255771e-14          877         1081 
  428400    560.06719     1959 9.7350704e-14          877         1082 
  428800     560.2301     1960 9.7445678e-14          877         1083 
  429200    560.58503     1962 9.7540632e-14          878         1084 
[...]
 3815200    10001.514    20564 1.014227e-12         6465        14099 
 3815600    10004.369    20567 1.014344e-12         6467        14100 
 3816000    10006.603    20569 1.0144609e-12         6469        14100 
 3816400    10008.699    20570 1.0145777e-12         6470        14100 
 3816800      10010.6    20571 1.0146946e-12         6470        14101 
 3817200    10012.354    20571 1.0148115e-12         6470        14101 
 3817600    10014.367    20574 1.0149284e-12         6470        14104 
 3818000     10016.56    20576 1.0150454e-12         6470        14106 
 3818400    10018.494    20577 1.0151623e-12         6470        14107 
 3818800    10020.414    20579 1.0152792e-12         6471        14108 
 3819200     10022.44    20585 1.0153961e-12         6473        14112 
 3819600     10024.51    20586 1.0155131e-12         6474        14112 
 3820000     10026.62    20587  1.01563e-12         6474        14113 
 3820400     10028.54    20589 1.015747e-12         6474        14115 
 3820800     10031.84    20591 1.0158639e-12         6474        14117 
 3821200    10033.883    20594 1.0159808e-12         6475        14119 
 3821600    10036.058    20594 1.0160977e-12         6475        14119 
 3822000    10038.022    20597 1.0162146e-12         6476        14121 
 3822400    10040.162    20601 1.0163315e-12         6477        14124 
 3822800    10042.705    20603 1.0164484e-12         6477        14126 
 3823200      10044.9    20604 1.0165653e-12         6477        14127 
 3823600    10046.949    20606 1.0166823e-12         6478        14128 
 3824000    10049.099    20608 1.0167992e-12         6478        14130 
 3824400    10051.181    20608 1.0169162e-12         6478        14130 
 3824800    10053.194    20609 1.0170331e-12         6478        14131 
 3825200    10055.055    20610  1.01715e-12         6478        14132 
 3825600    10057.164    20612 1.017267e-12         6478        14134 
 3826000     10059.25    20615 1.0173839e-12         6478        14137 
 3826400    10061.474    20618 1.0175009e-12         6478        14140 
 3826800     10063.46    20620 1.0176178e-12         6478        14142 
 3827200    10066.802    20624 1.0177348e-12         6481        14143 
 3827600    10068.701    20630 1.0178518e-12         6484        14146 
 3828000    10070.887    20635 1.0179687e-12         6484        14151 
 3828400     10073.06    20640 1.0180857e-12         6486        14154 
 3828800    10075.233    20642 1.0182027e-12         6486        14156 
 3829200    10077.345    20644 1.0183197e-12         6488        14156 
 3829600    10079.601    20649 1.0184366e-12         6490        14159 
 3830000    10081.792    20651 1.0185535e-12         6490        14161 
 3830400    10084.023    20652 1.0186705e-12         6490        14162 
 3830800    10086.164    20659 1.0187874e-12         6493        14166 
 3831200    10088.277    20662 1.0189044e-12         6494        14168 
 3831600    10090.469    20663 1.0190213e-12         6494        14169 
 3832000    10093.379    20668 1.0191382e-12         6496        14172 
 3832400    10095.463    20671 1.0192552e-12         6497        14174 
 3832800    10097.597    20674 1.0193721e-12         6497        14177 
 3833200    10099.866    20676 1.0194891e-12         6497        14179 
 3833600    10101.853    20679 1.019606e-12         6498        14181 
 3834000    10103.773    20681 1.019723e-12         6498        14183 
 3834400    10105.784    20686 1.0198399e-12         6501        14185 
 3834800    10108.113    20687 1.0199569e-12         6501        14186 
 3835200    10110.557    20688 1.0200738e-12         6501        14187 
 3835600    10112.786    20690 1.0201908e-12         6502        14188 
 3836000    10114.814    20692 1.0203077e-12         6502        14190 
 3836400     10116.89    20692 1.0204247e-12         6502        14190 
 3836800    10118.755    20697 1.0205417e-12         6502        14195 
 3837200    10120.797    20698 1.0206587e-12         6502        14196 
 3837600    10122.979    20698 1.0207757e-12         6502        14196 
 3838000    10124.867    20699 1.0208928e-12         6502        14197 
 3838400     10127.44    20701 1.0210098e-12         6502        14199 
 3838800    10129.831    20701 1.0211268e-12         6502        14199 
 3839200     10132.02    20702 1.0212439e-12         6502        14200 
 3839600    10134.069    20705 1.0213609e-12         6503        14202 
 3840000     10136.35    20708 1.021478e-12         6503        14205 
 3840400     10138.74    20708 1.0215951e-12         6503        14205 
 3840800    10140.564    20710 1.0217122e-12         6504        14206 
 3841200    10142.794    20713 1.0218293e-12         6504        14209 
 3841600    10144.948    20716 1.0219465e-12         6504        14212 
 3842000    10146.954    20717 1.0220636e-12         6504        14213 
 3842400    10149.143    20719 1.0221807e-12         6504        14215 
 3842800    10151.101    20720 1.0222979e-12         6504        14216 
 3843200    10153.638    20722 1.022415e-12         6505        14217 
 3843600    10156.231    20724 1.0225321e-12         6505        14219 
 3844000    10158.527    20725 1.0226493e-12         6505        14220 
 3844400    10160.456    20729 1.0227664e-12         6506        14223 
 3844800    10162.815    20730 1.0228836e-12         6506        14224 
 3845200    10165.003    20733 1.0230007e-12         6507        14226 
 3845600    10167.076    20737 1.0231178e-12         6508        14229 
 3846000    10169.424    20737 1.023235e-12         6508        14229 
 3846400    10171.294    20739 1.0233521e-12         6508        14231 
 3846800    10173.337    20745 1.0234693e-12         6509        14236 
 3847200    10175.531    20747 1.0235864e-12         6510        14237 
 3847600    10177.926    20748 1.0237036e-12         6510        14238 
 3848000    10179.914    20749 1.0238208e-12         6510        14239 
 3848400    10181.965    20752 1.0239379e-12         6510        14242 
 3848800    10184.015    20752 1.0240551e-12         6510        14242 
 3849200     10185.82    20754 1.0241723e-12         6510        14244 
 3849600    10187.881    20755 1.0242894e-12         6510        14245 
 3850000    10190.738    20755 1.0244066e-12         6510        14245 
 3850400    10192.514    20755 1.0245238e-12         6510        14245 
 3850800    10194.502    20756 1.024641e-12         6510        14246 
 3851200    10196.771    20758 1.0247581e-12         6511        14247 
 3851600    10198.868    20760 1.0248753e-12         6512        14248 
 3852000    10200.996    20764 1.0249925e-12         6512        14252 
 3852400    10202.937    20768 1.0251097e-12         6512        14256 
 3852800    10205.093    20770 1.0252268e-12         6512        14258 
 3853200    10207.469    20772 1.025344e-12         6513        14259 
 3853600    10209.322    20775 1.0254612e-12         6513        14262 
 3854000    10211.345    20775 1.0255784e-12         6513        14262 
 3854400     10213.15    20777 1.0256956e-12         6514        14263 
 3854800    10216.037    20779 1.0258128e-12         6514        14265 
 3855200    10218.162    20781  1.02593e-12         6514        14267 
 3855600    10220.559    20783 1.0260471e-12         6515        14268 
 3856000    10222.544    20785 1.0261643e-12         6516        14269 
 3856400    10224.508    20786 1.0262815e-12         6517        14269 
 3856800    10226.506    20790 1.0263986e-12         6520        14270 
 3857200    10228.397    20791 1.0265158e-12         6520        14271 
 3857600     10230.47    20792 1.026633e-12         6520        14272 
 3858000    10232.735    20793 1.0267502e-12         6520        14273 
 3858400    10234.705    20795 1.0268674e-12         6521        14274 
 3858800    10237.013    20795 1.0269847e-12         6521        14274 
 3859200    10239.115    20798 1.0271019e-12         6522        14276 
 3859600    10241.203    20802 1.0272191e-12         6523        14279 
 3860000    10243.234    20804 1.0273363e-12         6523        14281 
 3860400     10245.29    20807 1.0274535e-12         6523        14284 
 3860800    10247.401    20807 1.0275707e-12         6523        14284 
 3861200    10249.302    20810 1.027688e-12         6523        14287 
 3861600    10252.625    20814 1.0278052e-12         6524        14290 
 3862000    10254.674    20817 1.0279225e-12         6525        14292 
 3862400    10256.876    20819 1.0280397e-12         6525        14294 
 3862800    10258.919    20821 1.0281569e-12         6525        14296 
 3863200    10261.279    20823 1.028274e-12         6526        14297 
 3863600    10263.505    20826 1.0283911e-12         6527        14299 
 3864000    10265.604    20827 1.0285083e-12         6527        14300 
 3864400    10267.676    20828 1.0286254e-12         6527        14301 
 3864800     10269.73    20831 1.0287425e-12         6527        14304 
 3865200    10271.827    20835 1.0288597e-12         6528        14307 
 3865600    10274.086    20838 1.0289768e-12         6528        14310 
 3866000    10276.062    20840 1.029094e-12         6529        14311 
 3866400      10279.2    20843 1.0292111e-12         6531        14312 
 3866800    10281.249    20849 1.0293283e-12         6534        14315 
 3867200    10283.392    20851 1.0294455e-12         6534        14317 
 3867600    10285.681    20852 1.0295626e-12         6534        14318 
 3868000    10287.543    20854 1.0296798e-12         6534        14320 
 3868400    10289.789    20856 1.029797e-12         6535        14321 
 3868800    10291.691    20857 1.0299142e-12         6535        14322 
 3869200    10293.534    20858 1.0300315e-12         6536        14322 
 3869600    10295.614    20860 1.0301487e-12         6536        14324 
 3870000    10297.892    20862 1.0302659e-12         6536        14326 
 3870400    10300.039    20866 1.0303831e-12         6536        14330 
 3870800    10302.059    20870 1.0305003e-12         6537        14333 
 3871200    10304.237    20875 1.0306176e-12         6538        14337 
 3871600    10306.292    20881 1.0307348e-12         6540        14341 
 3872000    10308.635    20886 1.030852e-12         6543        14343 
 3872400    10310.581    20886 1.0309693e-12         6543        14343 
 3872800     10313.64    20888 1.0310865e-12         6543        14345 
 3873200     10316.01    20891 1.0312038e-12         6543        14348 
 3873600    10318.239    20893 1.031321e-12         6544        14349 
 3874000    10320.218    20894 1.0314383e-12         6544        14350 
 3874400    10322.116    20896 1.0315556e-12         6544        14352 
 3874800    10324.273    20898 1.0316729e-12         6545        14353 
 3875200    10326.628    20898 1.0317902e-12         6545        14353 
 3875600    10328.916    20900 1.0319075e-12         6546        14354 
 3876000    10330.899    20901 1.0320248e-12         6546        14355 
 3876400     10332.92    20906 1.0321421e-12         6547        14359 
 3876800    10335.299    20906 1.0322595e-12         6547        14359 
 3877200    10337.165    20907 1.0323769e-12         6547        14360 
 3877600    10340.383    20907 1.0324942e-12         6547        14360 
 3878000    10342.181    20910 1.0326116e-12         6547        14363 
 3878400    10344.253    20913 1.032729e-12         6547        14366 
 3878800     10346.18    20916 1.0328463e-12         6548        14368 
 3879200    10348.501    20918 1.0329637e-12         6548        14370 
 3879600    10350.397    20921 1.0330812e-12         6549        14372 
 3880000    10352.716    20923 1.0331985e-12         6549        14374 
 3880400    10354.709    20924 1.0333159e-12         6549        14375 
 3880800    10356.695    20925 1.0334333e-12         6549        14376 
 3881200    10358.971    20925 1.0335506e-12         6549        14376 
 3881600    10361.131    20926 1.033668e-12         6549        14377 
 3882000    10363.111    20927 1.0337854e-12         6549        14378 
 3882400    10365.304    20931 1.0339028e-12         6551        14380 
 3882800    10367.233    20933 1.0340202e-12         6551        14382 
 3883200     10369.36    20936 1.0341376e-12         6552        14384 
 3883600    10371.444    20940 1.034255e-12         6553        14387 
 3884000    10374.221    20942 1.0343723e-12         6554        14388 
 3884400    10376.379    20942 1.0344897e-12         6554        14388 
 3884800    10378.657    20946 1.0346071e-12         6554        14392 
 3885200    10380.898    20947 1.0347245e-12         6554        14393 
 3885600    10383.192    20949 1.0348419e-12         6555        14394 
 3886000    10385.209    20951 1.0349594e-12         6556        14395 
 3886400    10387.099    20954 1.0350768e-12         6556        14398 
 3886800    10388.919    20957 1.0351943e-12         6558        14399 
 3887200    10391.179    20959 1.0353118e-12         6559        14400 
 3887600    10393.423    20960 1.0354292e-12         6559        14401 
 3888000    10395.711    20961 1.0355467e-12         6560        14401 
 3888400    10397.524    20962 1.0356642e-12         6560        14402 
 3888800    10399.474    20964 1.0357817e-12         6560        14404 
 3889200    10402.611    20967 1.0358992e-12         6560        14407 
 3889600    10405.175    20971 1.0360166e-12         6561        14410 
 3890000    10407.503    20974 1.0361341e-12         6562        14412 
 3890400    10409.445    20975 1.0362516e-12         6562        14413 
 3890800     10411.37    20976 1.0363691e-12         6562        14414 
 3891200    10413.355    20980 1.0364866e-12         6563        14417 
 3891600    10415.749    20984 1.0366041e-12         6564        14420 
 3892000    10417.866    20986 1.0367216e-12         6564        14422 
 3892400    10419.935    20988 1.0368391e-12         6565        14423 
 3892800    10421.761    20991 1.0369566e-12         6565        14426 
 3893200    10424.095    20992 1.0370742e-12         6566        14426 
 3893600    10426.075    20996 1.0371917e-12         6566        14430 
 3894000    10428.184    20999 1.0373092e-12         6567        14432 
 3894400    10430.379    21001 1.0374268e-12         6567        14434 
 3894800    10432.661    21003 1.0375443e-12         6567        14436 
 3895200     10434.67    21004 1.0376618e-12         6567        14437 
 3895600    10437.934    21008 1.0377794e-12         6568        14440 
 3896000    10439.929    21009 1.037897e-12         6568        14441 
 3896400    10442.189    21010 1.0380145e-12         6569        14441 
 3896800    10444.094    21011 1.0381321e-12         6569        14442 
 3897200    10446.112    21014 1.0382497e-12         6570        14444 
 3897600    10448.175    21017 1.0383672e-12         6571        14446 
 3898000     10450.41    21019 1.0384848e-12         6572        14447 
 3898400    10452.305    21021 1.0386024e-12         6572        14449 
 3898800    10454.442    21023  1.03872e-12         6572        14451 
 3899200    10456.571    21026 1.0388376e-12         6572        14454 
 3899600    10458.635    21030 1.0389551e-12         6573        14457 
 3900000    10460.985    21030 1.0390727e-12         6573        14457 
 3900400    10464.094    21030 1.0391903e-12         6573        14457 
 3900800    10466.417    21033 1.0393079e-12         6575        14458 
 3901200    10468.318    21034 1.0394256e-12         6576        14458 
 3901600    10470.295    21035 1.0395433e-12         6576        14459 
 3902000    10472.456    21039 1.0396609e-12         6577        14462 
 3902400    10474.514    21039 1.0397786e-12         6577        14462 
 3902800    10476.353    21040 1.0398962e-12         6577        14463 
 3903200    10478.345    21042 1.0400139e-12         6577        14465 
 3903600    10480.596    21045 1.0401316e-12         6578        14467 
 3904000    10482.744    21046 1.0402492e-12         6578        14468 
 3904400    10484.864    21049 1.0403669e-12         6578        14471 
 3904800    10487.023    21050 1.0404845e-12         6578        14472 
 3905200    10489.452    21052 1.0406022e-12         6579        14473 
 3905600    10491.853    21054 1.0407198e-12         6580        14474 
 3906000    10494.097    21059 1.0408375e-12         6581        14478 
 3906400    10496.318    21060 1.0409551e-12         6581        14479 
 3906800    10499.481    21062 1.0410728e-12         6582        14480 
 3907200    10501.511    21065 1.0411905e-12         6582        14483 
 3907600     10503.66    21065 1.0413082e-12         6582        14483 
 3908000     10505.84    21067 1.0414258e-12         6583        14484 
 3908400    10507.877    21067 1.0415435e-12         6583        14484 
 3908800    10509.802    21068 1.0416612e-12         6583        14485 
 3909200    10511.858    21068 1.0417789e-12         6583        14485 
 3909600    10513.773    21069 1.0418966e-12         6584        14485 
 3910000    10515.751    21073 1.0420143e-12         6585        14488 
 3910400    10518.087    21075 1.0421321e-12         6586        14489 
 3910800    10520.051    21079 1.0422498e-12         6588        14491 
 3911200    10522.066    21079 1.0423675e-12         6588        14491 
 3911600    10525.292    21083 1.0424852e-12         6590        14493 
 3912000    10527.482    21085 1.0426029e-12         6590        14495 
 3912400     10529.64    21090 1.0427206e-12         6592        14498 
 3912800    10531.762    21091 1.0428383e-12         6592        14499 
 3913200     10533.94    21096 1.042956e-12         6592        14504 
 3913600      10536.4    21099 1.0430737e-12         6593        14506 
 3914000    10538.437    21102 1.0431914e-12         6593        14509 
 3914400    10540.864    21105 1.0433092e-12         6593        14512 
 3914800    10543.028    21108 1.0434269e-12         6593        14515 
 3915200    10545.261    21110 1.0435447e-12         6594        14516 
 3915600    10547.185    21110 1.0436625e-12         6594        14516 
 3916000    10549.157    21112 1.0437802e-12         6594        14518 
 3916400    10551.762    21113 1.043898e-12         6595        14518 
 3916800    10553.905    21113 1.0440157e-12         6595        14518 
 3917200    10555.962    21116 1.0441335e-12         6595        14521 
 3917600    10558.206    21118 1.0442512e-12         6596        14522 
 3918000    10561.207    21122 1.044369e-12         6596        14526 
 3918400    10563.526    21122 1.0444867e-12         6596        14526 
 3918800    10565.655    21125 1.0446044e-12         6596        14529 
 3919200     10567.96    21127 1.0447221e-12         6596        14531 
 3919600     10569.94    21128 1.0448398e-12         6596        14532 
 3920000    10572.376    21129 1.0449575e-12         6596        14533 
Loop time of 10572.4 on 1 procs for 3920000 steps with 21129 atoms

Performance: 288316657.850 tau/day, 370.778 timesteps/s
100.0% CPU use with 1 MPI tasks x no OpenMP threads

MPI task timing breakdown:
Section |  min time  |  avg time  |  max time  |%varavg| %total
---------------------------------------------------------------
Pair    | 4257.6     | 4257.6     | 4257.6     |   0.0 | 40.27
Neigh   | 427.17     | 427.17     | 427.17     |   0.0 |  4.04
Comm    | 83.725     | 83.725     | 83.725     |   0.0 |  0.79
Output  | 9.1614     | 9.1614     | 9.1614     |   0.0 |  0.09
Modify  | 5442.4     | 5442.4     | 5442.4     |   0.0 | 51.48
Other   |            | 352.3      |            |       |  3.33

Nlocal:    21129 ave 21129 max 21129 min
Histogram: 1 0 0 0 0 0 0 0 0 0
Nghost:    0 ave 0 max 0 min
Histogram: 1 0 0 0 0 0 0 0 0 0
Neighs:    112713 ave 112713 max 112713 min
Histogram: 1 0 0 0 0 0 0 0 0 0

Total # of neighbors = 112713
Ave neighs/atom = 5.33452
Neighbor list builds = 30031
Dangerous builds = 0

Total wall time: 2:56:12
