LAMMPS (5 Nov 2016)
# NUFEB simulation

atom_style	bio
atom_modify	map array sort 1000 5.0e-7
boundary	pp pp ff
newton		off
processors  1 1 4
units si

comm_modify	vel yes

read_data_bio atom.in
  orthogonal box = (0 0 0) to (2e-05 2e-05 0.0006)
  1 by 1 by 4 MPI processor grid
  reading atoms ...
  0 atoms
  5 nutrients

group HET type 1
0 atoms in group HET


variable  x equal 10
variable  y equal 10
variable  z equal 250

lattice sc 2e-6 origin 0.5 0.5 0.5
Lattice spacing in x,y,z = 2e-06 2e-06 2e-06

region reg block 0 $x 0 $y 0 $z
region reg block 0 10 0 $y 0 $z
region reg block 0 10 0 10 0 $z
region reg block 0 10 0 10 0 250

create_atoms 1 region reg
Created 25000 atoms

neighbor	5e-7 bin

set type 1 diameter 2.00001e-6
  25000 settings made for diameter
set type 1 density 10
  25000 settings made for density
set type 1 mass 8e-17
  25000 settings made for mass

neighbor	5e-7 bin
neigh_modify	delay 0 one 2000

##############Define DEM Variables&Commands##############

pair_style  gran/hooke/history 1.e-4 NULL 1.e-5 NULL 0.0 1
pair_coeff  * *

timestep 3600

variable kanc equal 50

fix 1 all nve/limit 1e-8
fix fv all viscous 1e-5

fix zw all wall/gran hooke/history 2000 NULL 500.0 NULL 1.5 0 zplane  0.0   6e-04

fix zwa all walladh v_kanc zplane  0.0   6e-04

##############Define IBm Variables##############

#EPS density, ratio variables and division diameter
variable EPSdens equal 30
variable EPSratio equal 1.25
variable divDia equal 2.4e-6

#kinetics variables
variable etaHET equal 0.0
variable diffT equal 1e-4
variable tol equal 5e-8
variable layer equal 0

##############Define IBm Commands##############

fix k1 all kinetics 1 10 10 300 v_diffT v_layer niter 20000
fix kgm all kinetics/growth/monod v_EPSdens v_etaHET gflag 0
fix g1 all kinetics/diffusion v_tol pp pp nd kg bulk 2.31e-7 1.25e-3 0.1
#fix d1 all divide 1 v_EPSdens v_divDia 31231 demflag 0
fix vf1 all verify 1 bm1 1

##############Simulation Output##############

compute myHeight all ave_height

thermo_style    custom step cpu atoms biomass c_myHeight
thermo		1
thermo_modify	lost warn
restart 360000 restart

##############Two-loops Run##############

run 1000
WARNING: EPS is not defined in fix_kinetics/kinetics/monod (../fix_bio_kinetics_monod.cpp:253)
ae = 1.000000e+00, top = 5.000000e-04, base = 1.500000e-04, ave_h = 3.490000e-04 
Neighbor list info ...
  2 neighbor list requests
  update every 1 steps, delay 0 steps, check yes
  max neighbors/atom: 2000, page size: 100000
  master list distance cutoff = 2.50001e-06
  ghost atom cutoff = 2.50001e-06
  binsize = 1.25001e-06 -> bins = 16 16 480
Memory usage per processor = 7.98084 Mbytes
Step CPU Atoms biomass c_myHeight 
       0            0    25000        2e-12 0.00050000001 
number of iterations: 20000 
height = 5.000100e-04 
S-sub-bulk = 2.918673e-03
S-sub-base = 7.036167e-15
S-o2-bulk = 1.000000e-02
S-o2-base = 2.593953e-09

       1    34.887089    25000        2e-12   0.00050001 
number of iterations: 20000 
height = 5.000000e-04 
S-sub-bulk = 1.000000e-20
S-sub-base = 6.963344e-09
S-o2-bulk = 1.000000e-02
S-o2-base = 3.601792e-06

       2    67.825424    25000        2e-12 0.00050000001 
number of iterations: 20000 
height = 5.000097e-04 
S-sub-bulk = 2.748236e-03
S-sub-base = 5.938031e-07
S-o2-bulk = 1.000000e-02
S-o2-base = 4.173320e-05

       3     96.44803    25000        2e-12 0.00050000967 
number of iterations: 20000 
height = 5.000096e-04 
S-sub-bulk = 3.898202e-03
S-sub-base = 4.205829e-06
S-o2-bulk = 1.000000e-02
S-o2-base = 1.443714e-04

       4    123.90382    25000        2e-12 0.00050000957 
number of iterations: 20000 
height = 5.000096e-04 
S-sub-bulk = 4.362639e-03
S-sub-base = 1.023246e-05
S-o2-bulk = 1.000000e-02
S-o2-base = 3.106223e-04

       5    164.36459    25000        2e-12 0.00050000955 
number of iterations: 20000 
height = 5.000096e-04 
S-sub-bulk = 4.372249e-03
S-sub-base = 1.456529e-05
S-o2-bulk = 1.000000e-02
S-o2-base = 5.292142e-04

       6    205.64801    25000        2e-12 0.00050000957 
number of iterations: 20000 
height = 5.000098e-04 
S-sub-bulk = 4.427523e-03
S-sub-base = 1.553275e-05
S-o2-bulk = 1.000000e-02
S-o2-base = 7.870495e-04

       7    247.77605    25000        2e-12 0.00050000984 
number of iterations: 20000 
height = 5.000098e-04 
S-sub-bulk = 4.422178e-03
S-sub-base = 1.423717e-05
S-o2-bulk = 1.000000e-02
S-o2-base = 1.070716e-03

       8    289.87427    25000        2e-12 0.00050000984 
number of iterations: 20000 
height = 5.000099e-04 
S-sub-bulk = 4.431405e-03
S-sub-base = 1.222291e-05
S-o2-bulk = 1.000000e-02
S-o2-base = 1.368428e-03

       9    332.23549    25000        2e-12 0.00050000994 
number of iterations: 20000 
height = 5.000098e-04 
S-sub-bulk = 4.430254e-03
S-sub-base = 1.049088e-05
S-o2-bulk = 1.000000e-02
S-o2-base = 1.671220e-03

      10     374.2566    25000        2e-12 0.00050000984 
number of iterations: 20000 
height = 5.000099e-04 
S-sub-bulk = 4.417536e-03
S-sub-base = 1.049080e-05
S-o2-bulk = 1.000000e-02
S-o2-base = 1.972745e-03

      11    400.29551    25000        2e-12 0.00050000994 
number of iterations: 20000 
height = 5.000099e-04 
S-sub-bulk = 4.424605e-03
S-sub-base = 9.700714e-06
S-o2-bulk = 1.000000e-02
S-o2-base = 2.269047e-03

      12    434.88892    25000        2e-12 0.00050000994 
number of iterations: 20000 
height = 5.000100e-04 
S-sub-bulk = 4.422982e-03
S-sub-base = 9.329086e-06
S-o2-bulk = 1.000000e-02
S-o2-base = 2.557734e-03

      13    465.44881    25000        2e-12 0.00050000996 
number of iterations: 20000 
height = 5.000100e-04 
S-sub-bulk = 4.414886e-03
S-sub-base = 9.329017e-06
S-o2-bulk = 1.000000e-02
S-o2-base = 2.837326e-03

      14    486.08406    25000        2e-12 0.00050000996 
number of iterations: 20000 
height = 5.000100e-04 
S-sub-bulk = 4.423806e-03
S-sub-base = 8.792589e-06
S-o2-bulk = 1.000000e-02
S-o2-base = 3.107149e-03

      15    508.36333    25000        2e-12 0.00050000997 
number of iterations: 20000 
height = 5.000100e-04 
S-sub-bulk = 4.426292e-03
S-sub-base = 8.423049e-06
S-o2-bulk = 1.000000e-02
S-o2-base = 3.366873e-03

      16    529.45828    25000        2e-12 0.00050000997 
number of iterations: 20000 
height = 5.000100e-04 
S-sub-bulk = 4.421810e-03
S-sub-base = 8.422996e-06
S-o2-bulk = 1.000000e-02
S-o2-base = 3.616360e-03

      17    546.06414    25000        2e-12 0.00050000997 
number of iterations: 20000 
height = 5.000100e-04 
S-sub-bulk = 4.417809e-03
S-sub-base = 8.343197e-06
S-o2-bulk = 1.000000e-02
S-o2-base = 3.855718e-03

      18    563.49754    25000        2e-12 0.00050000997 
number of iterations: 20000 
height = 5.000100e-04 
S-sub-bulk = 4.420515e-03
S-sub-base = 8.115196e-06
S-o2-bulk = 1.000000e-02
S-o2-base = 4.085185e-03

      19    587.22749    25000        2e-12 0.00050000997 
number of iterations: 20000 
height = 5.000100e-04 
S-sub-bulk = 4.419814e-03
S-sub-base = 8.020857e-06
S-o2-bulk = 1.000000e-02
S-o2-base = 4.305026e-03

      20    609.28791    25000        2e-12 0.00050000997 
number of iterations: 20000 
height = 5.000100e-04 
S-sub-bulk = 4.415873e-03
S-sub-base = 8.020810e-06
S-o2-bulk = 1.000000e-02
S-o2-base = 4.515533e-03

      21    630.08342    25000        2e-12 0.00050000997 
number of iterations: 20000 
height = 5.000100e-04 
S-sub-bulk = 4.420355e-03
S-sub-base = 7.810467e-06
S-o2-bulk = 1.000000e-02
S-o2-base = 4.717081e-03

      22    659.66656    25000        2e-12   0.00050001 
number of iterations: 20000 
height = 5.000100e-04 
S-sub-bulk = 4.422268e-03
S-sub-base = 7.675740e-06
S-o2-bulk = 1.000000e-02
S-o2-base = 4.910007e-03

      23    688.41785    25000        2e-12   0.00050001 
number of iterations: 20000 
height = 5.000100e-04 
S-sub-bulk = 4.419965e-03
S-sub-base = 7.675700e-06
S-o2-bulk = 1.000000e-02
S-o2-base = 5.094628e-03

      24    714.35524    25000        2e-12   0.00050001 
number of iterations: 20000 
height = 5.000100e-04 
S-sub-bulk = 4.416918e-03
S-sub-base = 7.662863e-06
S-o2-bulk = 1.000000e-02
S-o2-base = 5.271286e-03

      25    740.58884    25000        2e-12   0.00050001 
number of iterations: 20000 
height = 5.000100e-04 
S-sub-bulk = 4.413340e-03
S-sub-base = 7.662822e-06
S-o2-bulk = 1.000000e-02
S-o2-base = 5.440308e-03

      26    766.54203    25000        2e-12 0.00050001001 
number of iterations: 20000 
height = 5.000100e-04 
S-sub-bulk = 4.424078e-03
S-sub-base = 7.404310e-06
S-o2-bulk = 1.000000e-02
S-o2-base = 5.602059e-03

      27    798.44809    25000        2e-12 0.00050001001 
number of iterations: 20000 
height = 5.000100e-04 
S-sub-bulk = 4.429726e-03
S-sub-base = 7.158199e-06
S-o2-bulk = 1.000000e-02
S-o2-base = 5.756858e-03

      28    830.75014    25000        2e-12 0.00050001003 
number of iterations: 20000 
height = 5.000100e-04 
S-sub-bulk = 4.429524e-03
S-sub-base = 7.158170e-06
S-o2-bulk = 1.000000e-02
S-o2-base = 5.904967e-03

      29    855.92168    25000        2e-12 0.00050001003 
number of iterations: 20000 
height = 5.000100e-04 
S-sub-bulk = 4.429662e-03
S-sub-base = 6.942257e-06
S-o2-bulk = 1.000000e-02
S-o2-base = 6.046698e-03

      30    876.19456    25000        2e-12 0.00050001003 
number of iterations: 20000 
height = 5.000100e-04 
S-sub-bulk = 4.427864e-03
S-sub-base = 6.942232e-06
S-o2-bulk = 1.000000e-02
S-o2-base = 6.182301e-03

      31     892.0997    25000        2e-12 0.00050001003 
number of iterations: 20000 
height = 5.000100e-04 
S-sub-bulk = 4.426494e-03
S-sub-base = 6.911572e-06
S-o2-bulk = 1.000000e-02
S-o2-base = 6.312036e-03

      32    908.69038    25000        2e-12 0.00050001003 
number of iterations: 20000 
height = 5.000100e-04 
S-sub-bulk = 4.425931e-03
S-sub-base = 6.870417e-06
S-o2-bulk = 1.000000e-02
S-o2-base = 6.436158e-03

      33    936.23728    25000        2e-12 0.00050001003 
number of iterations: 20000 
height = 5.000100e-04 
S-sub-bulk = 4.425227e-03
S-sub-base = 6.843685e-06
S-o2-bulk = 1.000000e-02
S-o2-base = 6.554905e-03

      34    963.08844    25000        2e-12 0.00050001003 
number of iterations: 20000 
height = 5.000100e-04 
S-sub-bulk = 4.424873e-03
S-sub-base = 6.811992e-06
S-o2-bulk = 1.000000e-02
S-o2-base = 6.668511e-03

      35    990.08871    25000        2e-12 0.00050001003 
number of iterations: 20000 
height = 5.000100e-04 
S-sub-bulk = 4.424264e-03
S-sub-base = 6.791707e-06
S-o2-bulk = 1.000000e-02
S-o2-base = 6.777197e-03

      36    1016.6622    25000        2e-12 0.00050001003 
number of iterations: 20000 
height = 5.000100e-04 
S-sub-bulk = 4.424167e-03
S-sub-base = 6.761947e-06
S-o2-bulk = 1.000000e-02
S-o2-base = 6.881176e-03

      37    1043.6455    25000        2e-12 0.00050001003 
number of iterations: 20000 
height = 5.000100e-04 
S-sub-bulk = 4.423143e-03
S-sub-base = 6.756966e-06
S-o2-bulk = 1.000000e-02
S-o2-base = 6.980648e-03

      38    1069.6133    25000        2e-12 0.00050001004 
number of iterations: 20000 
height = 5.000100e-04 
S-sub-bulk = 4.424018e-03
S-sub-base = 6.712809e-06
S-o2-bulk = 1.000000e-02
S-o2-base = 7.075816e-03

      39     1097.268    25000        2e-12 0.00050001004 
number of iterations: 20000 
height = 5.000100e-04 
S-sub-bulk = 4.423727e-03
S-sub-base = 6.700042e-06
S-o2-bulk = 1.000000e-02
S-o2-base = 7.166861e-03

      40    1123.5919    25000        2e-12 0.00050001004 
number of iterations: 20000 
height = 5.000100e-04 
S-sub-bulk = 4.422590e-03
S-sub-base = 6.700023e-06
S-o2-bulk = 1.000000e-02
S-o2-base = 7.253960e-03

      41    1149.3526    25000        2e-12 0.00050001004 
number of iterations: 20000 
height = 5.000100e-04 
S-sub-bulk = 4.423112e-03
S-sub-base = 6.667962e-06
S-o2-bulk = 1.000000e-02
S-o2-base = 7.337288e-03

      42    1176.5557    25000        2e-12 0.00050001004 
number of iterations: 20000 
height = 5.000100e-04 
S-sub-bulk = 4.422705e-03
S-sub-base = 6.660565e-06
S-o2-bulk = 1.000000e-02
S-o2-base = 7.417006e-03

      43    1202.6667    25000        2e-12 0.00050001004 
number of iterations: 20000 
height = 5.000100e-04 
S-sub-bulk = 4.421682e-03
S-sub-base = 6.660546e-06
S-o2-bulk = 1.000000e-02
S-o2-base = 7.493268e-03

      44    1228.4488    25000        2e-12 0.00050001005 
number of iterations: 20000 
height = 5.000101e-04 
S-sub-bulk = 4.422990e-03
S-sub-base = 6.621909e-06
S-o2-bulk = 1.000000e-02
S-o2-base = 7.566231e-03

      45    1256.0436    25000        2e-12 0.00050001005 
number of iterations: 20000 
height = 5.000101e-04 
S-sub-bulk = 4.423394e-03
S-sub-base = 6.604984e-06
S-o2-bulk = 1.000000e-02
S-o2-base = 7.636035e-03

      46     1282.682    25000        2e-12 0.00050001006 
number of iterations: 20000 
height = 5.000101e-04 
S-sub-bulk = 4.422772e-03
S-sub-base = 6.604966e-06
S-o2-bulk = 1.000000e-02
S-o2-base = 7.702814e-03

      47    1308.4704    25000        2e-12 0.00050001006 
number of iterations: 20000 
height = 5.000101e-04 
S-sub-bulk = 4.422011e-03
S-sub-base = 6.601952e-06
S-o2-bulk = 1.000000e-02
S-o2-base = 7.766699e-03

      48    1334.4608    25000        2e-12 0.00050001007 
number of iterations: 20000 
height = 5.000101e-04 
S-sub-bulk = 4.421071e-03
S-sub-base = 6.601935e-06
S-o2-bulk = 1.000000e-02
S-o2-base = 7.827815e-03

      49    1360.6355    25000        2e-12 0.00050001007 
number of iterations: 20000 
height = 5.000101e-04 
S-sub-bulk = 4.422687e-03
S-sub-base = 6.565731e-06
S-o2-bulk = 1.000000e-02
S-o2-base = 7.886288e-03

      50    1388.6192    25000        2e-12 0.00050001007 
number of iterations: 20000 
height = 5.000101e-04 
S-sub-bulk = 4.423521e-03
S-sub-base = 6.546339e-06
S-o2-bulk = 1.000000e-02
S-o2-base = 7.942232e-03

      51    1415.7959    25000        2e-12 0.00050001007 
number of iterations: 20000 
height = 5.000101e-04 
S-sub-bulk = 4.423211e-03
S-sub-base = 6.546322e-06
S-o2-bulk = 1.000000e-02
S-o2-base = 7.995751e-03

      52    1441.9662    25000        2e-12 0.00050001008 
number of iterations: 20000 
height = 5.000101e-04 
S-sub-bulk = 4.423260e-03
S-sub-base = 6.531526e-06
S-o2-bulk = 1.000000e-02
S-o2-base = 8.046954e-03

      53     1468.925    25000        2e-12 0.00050001009 
number of iterations: 20000 
height = 5.000101e-04 
S-sub-bulk = 4.422744e-03
S-sub-base = 6.531510e-06
S-o2-bulk = 1.000000e-02
S-o2-base = 8.095938e-03

      54    1495.0978    25000        2e-12 0.0005000101 
number of iterations: 20000 
height = 5.000101e-04 
S-sub-bulk = 4.422405e-03
S-sub-base = 6.525903e-06
S-o2-bulk = 1.000000e-02
S-o2-base = 8.142801e-03

      55    1521.6107    25000        2e-12 0.0005000101 
number of iterations: 20000 
height = 5.000101e-04 
S-sub-bulk = 4.421808e-03
S-sub-base = 6.525887e-06
S-o2-bulk = 1.000000e-02
S-o2-base = 8.187632e-03

      56    1546.6431    25000        2e-12 0.00050001011 
number of iterations: 20000 
height = 5.000101e-04 
S-sub-bulk = 4.422368e-03
S-sub-base = 6.508576e-06
S-o2-bulk = 1.000000e-02
S-o2-base = 8.230524e-03

      57    1573.8576    25000        2e-12 0.00050001011 
number of iterations: 20000 
height = 5.000101e-04 
S-sub-bulk = 4.422117e-03
S-sub-base = 6.508561e-06
S-o2-bulk = 1.000000e-02
S-o2-base = 8.271556e-03

      58    1600.1237    25000        2e-12 0.00050001012 
number of iterations: 20000 
height = 5.000101e-04 
S-sub-bulk = 4.421833e-03
S-sub-base = 6.504934e-06
S-o2-bulk = 1.000000e-02
S-o2-base = 8.310811e-03

      59    1626.5986    25000        2e-12 0.00050001012 
number of iterations: 20000 
height = 5.000101e-04 
S-sub-bulk = 4.421340e-03
S-sub-base = 6.504919e-06
S-o2-bulk = 1.000000e-02
S-o2-base = 8.348365e-03

      60     1652.889    25000        2e-12 0.00050001013 
number of iterations: 20000 
height = 5.000101e-04 
S-sub-bulk = 4.421959e-03
S-sub-base = 6.489080e-06
S-o2-bulk = 1.000000e-02
S-o2-base = 8.384294e-03

      61    1680.0322    25000        2e-12 0.00050001013 
number of iterations: 20000 
height = 5.000101e-04 
S-sub-bulk = 4.422217e-03
S-sub-base = 6.482116e-06
S-o2-bulk = 1.000000e-02
S-o2-base = 8.418668e-03

      62    1706.7059    25000        2e-12 0.00050001014 
number of iterations: 20000 
height = 5.000101e-04 
S-sub-bulk = 4.421958e-03
S-sub-base = 6.482101e-06
S-o2-bulk = 1.000000e-02
S-o2-base = 8.451552e-03

      63    1733.0128    25000        2e-12 0.00050001014 
number of iterations: 20000 
height = 5.000101e-04 
S-sub-bulk = 4.421561e-03
S-sub-base = 6.481797e-06
S-o2-bulk = 1.000000e-02
S-o2-base = 8.483010e-03

      64    1759.3411    25000        2e-12 0.00050001015 
number of iterations: 20000 
height = 5.000101e-04 
S-sub-bulk = 4.421114e-03
S-sub-base = 6.481782e-06
S-o2-bulk = 1.000000e-02
S-o2-base = 8.513106e-03

      65    1785.6657    25000        2e-12 0.00050001015 
number of iterations: 20000 
height = 5.000102e-04 
S-sub-bulk = 4.421702e-03
S-sub-base = 6.468230e-06
S-o2-bulk = 1.000000e-02
S-o2-base = 8.541900e-03

      66    1812.7068    25000        2e-12 0.00050001016 
number of iterations: 20000 
height = 5.000102e-04 
S-sub-bulk = 4.421613e-03
S-sub-base = 6.468215e-06
S-o2-bulk = 1.000000e-02
S-o2-base = 8.569445e-03

      67    1839.0225    25000        2e-12 0.00050001016 
number of iterations: 20000 
height = 5.000102e-04 
S-sub-bulk = 4.421656e-03
S-sub-base = 6.462762e-06
S-o2-bulk = 1.000000e-02
S-o2-base = 8.595799e-03

      68    1864.0476    25000        2e-12 0.00050001017 
number of iterations: 20000 
height = 5.000102e-04 
S-sub-bulk = 4.421411e-03
S-sub-base = 6.462747e-06
S-o2-bulk = 1.000000e-02
S-o2-base = 8.621010e-03

      69    1884.8616    25000        2e-12 0.00050001017 
number of iterations: 20000 
height = 5.000102e-04 
S-sub-bulk = 4.421249e-03
S-sub-base = 6.460388e-06
S-o2-bulk = 1.000000e-02
S-o2-base = 8.645129e-03

      70    1906.1407    25000        2e-12 0.00050001018 
number of iterations: 20000 
height = 5.000102e-04 
S-sub-bulk = 4.420959e-03
S-sub-base = 6.460373e-06
S-o2-bulk = 1.000000e-02
S-o2-base = 8.668203e-03

      71    1929.4687    25000        2e-12 0.00050001018 
number of iterations: 20000 
height = 5.000102e-04 
S-sub-bulk = 4.421411e-03
S-sub-base = 6.450410e-06
S-o2-bulk = 1.000000e-02
S-o2-base = 8.690278e-03

      72    1956.3883    25000        2e-12 0.0005000102 
number of iterations: 20000 
height = 5.000102e-04 
S-sub-bulk = 4.421346e-03
S-sub-base = 6.450395e-06
S-o2-bulk = 1.000000e-02
S-o2-base = 8.711398e-03

      73    1982.6716    25000        2e-12 0.0005000102 
number of iterations: 20000 
height = 5.000102e-04 
S-sub-bulk = 4.421398e-03
S-sub-base = 6.446212e-06
S-o2-bulk = 1.000000e-02
S-o2-base = 8.731602e-03

      74    2004.3147    25000        2e-12 0.00050001021 
number of iterations: 20000 
height = 5.000102e-04 
S-sub-bulk = 4.421219e-03
S-sub-base = 6.446197e-06
S-o2-bulk = 1.000000e-02
S-o2-base = 8.750932e-03

      75    2019.6071    25000        2e-12 0.00050001021 
number of iterations: 20000 
height = 5.000102e-04 
S-sub-bulk = 4.421075e-03
S-sub-base = 6.444773e-06
S-o2-bulk = 1.000000e-02
S-o2-base = 8.769423e-03

      76    2035.5046    25000        2e-12 0.00050001022 
number of iterations: 20000 
height = 5.000102e-04 
S-sub-bulk = 4.420848e-03
S-sub-base = 6.444759e-06
S-o2-bulk = 1.000000e-02
S-o2-base = 8.787114e-03

      77    2053.2087    25000        2e-12 0.00050001023 
number of iterations: 20000 
height = 5.000102e-04 
S-sub-bulk = 4.421201e-03
S-sub-base = 6.437161e-06
S-o2-bulk = 1.000000e-02
S-o2-base = 8.804039e-03

      78    2071.6525    25000        2e-12 0.00050001024 
number of iterations: 20000 
height = 5.000102e-04 
S-sub-bulk = 4.421156e-03
S-sub-base = 6.437147e-06
S-o2-bulk = 1.000000e-02
S-o2-base = 8.820231e-03

      79    2098.5087    25000        2e-12 0.00050001024 
number of iterations: 20000 
height = 5.000103e-04 
S-sub-bulk = 4.421209e-03
S-sub-base = 6.433921e-06
S-o2-bulk = 1.000000e-02
S-o2-base = 8.835722e-03

      80    2126.0007    25000        2e-12 0.00050001025 
number of iterations: 20000 
height = 5.000103e-04 
S-sub-bulk = 4.421078e-03
S-sub-base = 6.433907e-06
S-o2-bulk = 1.000000e-02
S-o2-base = 8.850541e-03

      81     2153.247    25000        2e-12 0.00050001026 
number of iterations: 20000 
height = 5.000103e-04 
S-sub-bulk = 4.420958e-03
S-sub-base = 6.432991e-06
S-o2-bulk = 1.000000e-02
S-o2-base = 8.864719e-03

      82     2178.701    25000        2e-12 0.00050001027 
number of iterations: 20000 
height = 5.000103e-04 
S-sub-bulk = 4.420783e-03
S-sub-base = 6.432977e-06
S-o2-bulk = 1.000000e-02
S-o2-base = 8.878282e-03

      83    2200.6414    25000        2e-12 0.00050001027 
number of iterations: 20000 
height = 5.000103e-04 
S-sub-bulk = 4.421036e-03
S-sub-base = 6.427423e-06
S-o2-bulk = 1.000000e-02
S-o2-base = 8.891258e-03

      84    2223.2442    25000        2e-12 0.00050001028 
number of iterations: 20000 
height = 5.000103e-04 
S-sub-bulk = 4.420997e-03
S-sub-base = 6.427409e-06
S-o2-bulk = 1.000000e-02
S-o2-base = 8.903672e-03

      85    2250.5485    25000        2e-12 0.00050001029 
number of iterations: 20000 
height = 5.000103e-04 
S-sub-bulk = 4.421031e-03
S-sub-base = 6.425114e-06
S-o2-bulk = 1.000000e-02
S-o2-base = 8.915549e-03

      86    2277.9647    25000        2e-12 0.0005000103 
number of iterations: 20000 
height = 5.000103e-04 
S-sub-bulk = 4.420930e-03
S-sub-base = 6.425100e-06
S-o2-bulk = 1.000000e-02
S-o2-base = 8.926911e-03

      87    2305.4377    25000        2e-12 0.0005000103 
number of iterations: 20000 
height = 5.000103e-04 
S-sub-bulk = 4.420848e-03
S-sub-base = 6.424294e-06
S-o2-bulk = 1.000000e-02
S-o2-base = 8.937781e-03

      88    2333.6412    25000        2e-12 0.00050001031 
number of iterations: 20000 
height = 5.000103e-04 
S-sub-bulk = 4.420717e-03
S-sub-base = 6.424280e-06
S-o2-bulk = 1.000000e-02
S-o2-base = 8.948179e-03

      89    2361.8004    25000        2e-12 0.00050001031 
number of iterations: 8108 
height = 5.000103e-04 
S-sub-bulk = 4.420979e-03
S-sub-base = 6.419969e-06
S-o2-bulk = 1.000000e-02
S-o2-base = 8.952266e-03

      90    2373.4749    25000        2e-12 0.00050001032 
number of iterations: 1 
height = 5.000103e-04 
S-sub-bulk = 4.421068e-03
S-sub-base = 6.419955e-06
S-o2-bulk = 1.000000e-02
S-o2-base = 8.952266e-03

      91    2373.4839    25000        2e-12 0.00050001033 
number of iterations: 259 
height = 5.000103e-04 
S-sub-bulk = 4.421353e-03
S-sub-base = 6.416328e-06
S-o2-bulk = 1.000000e-02
S-o2-base = 8.952267e-03

      92    2373.8521    25000        2e-12 0.00050001034 
number of iterations: 29 
height = 5.000103e-04 
S-sub-bulk = 4.421449e-03
S-sub-base = 6.416314e-06
S-o2-bulk = 1.000000e-02
S-o2-base = 8.952281e-03

      93    2373.9005    25000        2e-12 0.00050001034 
number of iterations: 472 
height = 5.000104e-04 
S-sub-bulk = 4.421913e-03
S-sub-base = 6.409759e-06
S-o2-bulk = 1.000000e-02
S-o2-base = 8.952282e-03

      94     2374.565    25000        2e-12 0.00050001036 
number of iterations: 56 
height = 5.000104e-04 
S-sub-bulk = 4.422069e-03
S-sub-base = 6.409745e-06
S-o2-bulk = 1.000000e-02
S-o2-base = 8.952310e-03

      95    2374.6513    25000        2e-12 0.00050001036 
number of iterations: 851 
height = 5.000104e-04 
S-sub-bulk = 4.422819e-03
S-sub-base = 6.398100e-06
S-o2-bulk = 1.000000e-02
S-o2-base = 8.952310e-03

      96     2375.843    25000        2e-12 0.00050001038 
number of iterations: 101 
height = 5.000104e-04 
S-sub-bulk = 4.423070e-03
S-sub-base = 6.398087e-06
S-o2-bulk = 1.000000e-02
S-o2-base = 8.952361e-03

      97    2375.9926    25000        2e-12 0.00050001038 
number of iterations: 1459 
height = 5.000104e-04 
S-sub-bulk = 4.424163e-03
S-sub-base = 6.378631e-06
S-o2-bulk = 1.000000e-02
S-o2-base = 8.952361e-03

      98    2378.0303    25000        2e-12 0.00050001039 
number of iterations: 170 
height = 5.000104e-04 
S-sub-bulk = 4.424529e-03
S-sub-base = 6.378617e-06
S-o2-bulk = 1.000000e-02
S-o2-base = 8.952446e-03

      99    2378.2769    25000        2e-12 0.00050001039 
number of iterations: 2279 
height = 5.000104e-04 
S-sub-bulk = 4.425869e-03
S-sub-base = 6.349467e-06
S-o2-bulk = 1.000000e-02
S-o2-base = 8.952446e-03

     100    2381.4595    25000        2e-12 0.00050001041 
number of iterations: 256 
height = 5.000104e-04 
S-sub-bulk = 4.426317e-03
S-sub-base = 6.349455e-06
S-o2-bulk = 1.000000e-02
S-o2-base = 8.952574e-03

     101     2381.827    25000        2e-12 0.00050001041 
number of iterations: 3056 
height = 5.000104e-04 
S-sub-bulk = 4.427582e-03
S-sub-base = 6.312619e-06
S-o2-bulk = 1.000000e-02
S-o2-base = 8.952575e-03

     102     2386.087    25000        2e-12 0.00050001042 
number of iterations: 324 
height = 5.000104e-04 
S-sub-bulk = 4.428005e-03
S-sub-base = 6.312607e-06
S-o2-bulk = 1.000000e-02
S-o2-base = 8.952737e-03

     103    2386.5501    25000        2e-12 0.00050001042 
number of iterations: 3305 
height = 5.000104e-04 
S-sub-bulk = 4.428888e-03
S-sub-base = 6.275491e-06
S-o2-bulk = 1.000000e-02
S-o2-base = 8.952737e-03

     104    2391.1571    25000        2e-12 0.00050001044 
number of iterations: 328 
height = 5.000104e-04 
S-sub-bulk = 4.429182e-03
S-sub-base = 6.275480e-06
S-o2-bulk = 1.000000e-02
S-o2-base = 8.952901e-03

     105    2391.6258    25000        2e-12 0.00050001044 
number of iterations: 2758 
height = 5.000105e-04 
S-sub-bulk = 4.429668e-03
S-sub-base = 6.246526e-06
S-o2-bulk = 1.000000e-02
S-o2-base = 8.952902e-03

     106    2395.4767    25000        2e-12 0.00050001046 
number of iterations: 257 
height = 5.000105e-04 
S-sub-bulk = 4.429829e-03
S-sub-base = 6.246516e-06
S-o2-bulk = 1.000000e-02
S-o2-base = 8.953030e-03

     107     2395.845    25000        2e-12 0.00050001046 
number of iterations: 1816 
height = 5.000105e-04 
S-sub-bulk = 4.430069e-03
S-sub-base = 6.228397e-06
S-o2-bulk = 1.000000e-02
S-o2-base = 8.953031e-03

     108    2398.3842    25000        2e-12 0.00050001048 
number of iterations: 160 
height = 5.000105e-04 
S-sub-bulk = 4.430149e-03
S-sub-base = 6.228387e-06
S-o2-bulk = 1.000000e-02
S-o2-base = 8.953111e-03

     109    2398.6209    25000        2e-12 0.00050001048 
number of iterations: 1021 
height = 5.000105e-04 
S-sub-bulk = 4.430265e-03
S-sub-base = 6.218516e-06
S-o2-bulk = 1.000000e-02
S-o2-base = 8.953111e-03

     110    2400.0514    25000        2e-12 0.00050001049 
number of iterations: 86 
height = 5.000105e-04 
S-sub-bulk = 4.430303e-03
S-sub-base = 6.218506e-06
S-o2-bulk = 1.000000e-02
S-o2-base = 8.953154e-03

     111    2400.1801    25000        2e-12 0.0005000105 
number of iterations: 504 
height = 5.000105e-04 
S-sub-bulk = 4.430357e-03
S-sub-base = 6.213715e-06
S-o2-bulk = 1.000000e-02
S-o2-base = 8.953154e-03

     112    2400.8895    25000        2e-12 0.00050001051 
number of iterations: 41 
height = 5.000105e-04 
S-sub-bulk = 4.430375e-03
S-sub-base = 6.213706e-06
S-o2-bulk = 1.000000e-02
S-o2-base = 8.953175e-03

     113    2400.9549    25000        2e-12 0.00050001051 
number of iterations: 225 
height = 5.000105e-04 
S-sub-bulk = 4.430398e-03
S-sub-base = 6.211585e-06
S-o2-bulk = 1.000000e-02
S-o2-base = 8.953175e-03

     114    2401.2759    25000        2e-12 0.00050001053 
number of iterations: 18 
height = 5.000105e-04 
S-sub-bulk = 4.430406e-03
S-sub-base = 6.211575e-06
S-o2-bulk = 1.000000e-02
S-o2-base = 8.953184e-03

     115    2401.3089    25000        2e-12 0.00050001053 
number of iterations: 94 
height = 5.000105e-04 
S-sub-bulk = 4.430416e-03
S-sub-base = 6.210692e-06
S-o2-bulk = 1.000000e-02
S-o2-base = 8.953185e-03

     116    2401.4476    25000        2e-12 0.00050001054 
number of iterations: 6 
height = 5.000105e-04 
S-sub-bulk = 4.430419e-03
S-sub-base = 6.210683e-06
S-o2-bulk = 1.000000e-02
S-o2-base = 8.953188e-03

     117    2401.4636    25000        2e-12 0.00050001055 
number of iterations: 41 
height = 5.000106e-04 
S-sub-bulk = 4.430423e-03
S-sub-base = 6.210298e-06
S-o2-bulk = 1.000000e-02
S-o2-base = 8.953188e-03

     118    2401.5285    25000        2e-12 0.00050001056 
number of iterations: 3 
height = 5.000106e-04 
S-sub-bulk = 4.430425e-03
S-sub-base = 6.210289e-06
S-o2-bulk = 1.000000e-02
S-o2-base = 8.953190e-03

     119    2401.5403    25000        2e-12 0.00050001057 
number of iterations: 16 
height = 5.000106e-04 
S-sub-bulk = 4.430427e-03
S-sub-base = 6.210139e-06
S-o2-bulk = 1.000000e-02
S-o2-base = 8.953190e-03

     120    2401.5704    25000        2e-12 0.00050001058 
number of iterations: 1 
height = 5.000106e-04 
S-sub-bulk = 4.430427e-03
S-sub-base = 6.210129e-06
S-o2-bulk = 1.000000e-02
S-o2-base = 8.953191e-03

     121    2401.5793    25000        2e-12 0.00050001059 
number of iterations: 6 
height = 5.000106e-04 
S-sub-bulk = 4.430428e-03
S-sub-base = 6.210073e-06
S-o2-bulk = 1.000000e-02
S-o2-base = 8.953191e-03

     122    2401.5954    25000        2e-12 0.0005000106 
number of iterations: 1 
height = 5.000106e-04 
S-sub-bulk = 4.430428e-03
S-sub-base = 6.210064e-06
S-o2-bulk = 1.000000e-02
S-o2-base = 8.953192e-03

     123    2401.6044    25000        2e-12 0.00050001061 
number of iterations: 3 
height = 5.000106e-04 
S-sub-bulk = 4.430429e-03
S-sub-base = 6.210036e-06
S-o2-bulk = 1.000000e-02
S-o2-base = 8.953192e-03

     124    2401.6164    25000        2e-12 0.00050001062 
number of iterations: 1 
height = 5.000106e-04 
S-sub-bulk = 4.430429e-03
S-sub-base = 6.210026e-06
S-o2-bulk = 1.000000e-02
S-o2-base = 8.953193e-03

     125    2401.6253    25000        2e-12 0.00050001062 
number of iterations: 1 
height = 5.000106e-04 
S-sub-bulk = 4.430429e-03
S-sub-base = 6.210017e-06
S-o2-bulk = 1.000000e-02
S-o2-base = 8.953193e-03

     126    2401.6345    25000        2e-12 0.00050001064 
number of iterations: 1 
height = 5.000106e-04 
S-sub-bulk = 4.430429e-03
S-sub-base = 6.210007e-06
S-o2-bulk = 1.000000e-02
S-o2-base = 8.953194e-03

     127    2401.6435    25000        2e-12 0.00050001064 
number of iterations: 1 
height = 5.000107e-04 
S-sub-bulk = 4.430429e-03
S-sub-base = 6.209998e-06
S-o2-bulk = 1.000000e-02
S-o2-base = 8.953194e-03

     128    2401.6527    25000        2e-12 0.00050001066 
number of iterations: 1 
height = 5.000107e-04 
S-sub-bulk = 4.430429e-03
S-sub-base = 6.209989e-06
S-o2-bulk = 1.000000e-02
S-o2-base = 8.953195e-03

     129    2401.6616    25000        2e-12 0.00050001066 
number of iterations: 1 
height = 5.000107e-04 
S-sub-bulk = 4.430429e-03
S-sub-base = 6.209979e-06
S-o2-bulk = 1.000000e-02
S-o2-base = 8.953195e-03

     130    2401.6708    25000        2e-12 0.00050001068 
number of iterations: 1 
height = 5.000107e-04 
S-sub-bulk = 4.430429e-03
S-sub-base = 6.209970e-06
S-o2-bulk = 1.000000e-02
S-o2-base = 8.953196e-03

     131    2401.6798    25000        2e-12 0.00050001068 
number of iterations: 1 
height = 5.000107e-04 
S-sub-bulk = 4.430430e-03
S-sub-base = 6.209961e-06
S-o2-bulk = 1.000000e-02
S-o2-base = 8.953196e-03

     132    2401.6889    25000        2e-12 0.0005000107 
number of iterations: 1 
height = 5.000107e-04 
S-sub-bulk = 4.430430e-03
S-sub-base = 6.209951e-06
S-o2-bulk = 1.000000e-02
S-o2-base = 8.953197e-03

     133    2401.6979    25000        2e-12 0.0005000107 
number of iterations: 1 
height = 5.000107e-04 
S-sub-bulk = 4.430430e-03
S-sub-base = 6.209942e-06
S-o2-bulk = 1.000000e-02
S-o2-base = 8.953197e-03

     134    2401.7071    25000        2e-12 0.00050001072 
number of iterations: 1 
height = 5.000107e-04 
S-sub-bulk = 4.430430e-03
S-sub-base = 6.209932e-06
S-o2-bulk = 1.000000e-02
S-o2-base = 8.953198e-03

     135     2401.716    25000        2e-12 0.00050001072 
number of iterations: 1 
height = 5.000107e-04 
S-sub-bulk = 4.430430e-03
S-sub-base = 6.209923e-06
S-o2-bulk = 1.000000e-02
S-o2-base = 8.953198e-03

     136    2401.7252    25000        2e-12 0.00050001074 
number of iterations: 1 
height = 5.000107e-04 
S-sub-bulk = 4.430430e-03
S-sub-base = 6.209914e-06
S-o2-bulk = 1.000000e-02
S-o2-base = 8.953199e-03

     137    2401.7342    25000        2e-12 0.00050001074 
number of iterations: 1 
height = 5.000108e-04 
S-sub-bulk = 4.430430e-03
S-sub-base = 6.209904e-06
S-o2-bulk = 1.000000e-02
S-o2-base = 8.953199e-03

     138    2401.7434    25000        2e-12 0.00050001076 
number of iterations: 1 
height = 5.000108e-04 
S-sub-bulk = 4.430430e-03
S-sub-base = 6.209895e-06
S-o2-bulk = 1.000000e-02
S-o2-base = 8.953200e-03

     139    2401.7523    25000        2e-12 0.00050001076 
number of iterations: 1 
height = 5.000108e-04 
S-sub-bulk = 4.430430e-03
S-sub-base = 6.209886e-06
S-o2-bulk = 1.000000e-02
S-o2-base = 8.953200e-03

     140    2401.7615    25000        2e-12 0.00050001078 
number of iterations: 1 
height = 5.000108e-04 
S-sub-bulk = 4.430431e-03
S-sub-base = 6.209876e-06
S-o2-bulk = 1.000000e-02
S-o2-base = 8.953201e-03

     141    2401.7705    25000        2e-12 0.00050001078 
number of iterations: 1 
height = 5.000108e-04 
S-sub-bulk = 4.430431e-03
S-sub-base = 6.209867e-06
S-o2-bulk = 1.000000e-02
S-o2-base = 8.953201e-03

     142    2401.7796    25000        2e-12 0.0005000108 
number of iterations: 1 
height = 5.000108e-04 
S-sub-bulk = 4.430431e-03
S-sub-base = 6.209858e-06
S-o2-bulk = 1.000000e-02
S-o2-base = 8.953202e-03

     143    2401.7886    25000        2e-12 0.00050001081 
number of iterations: 1 
height = 5.000108e-04 
S-sub-bulk = 4.430431e-03
S-sub-base = 6.209848e-06
S-o2-bulk = 1.000000e-02
S-o2-base = 8.953202e-03

     144    2401.7977    25000        2e-12 0.00050001082 
number of iterations: 1 
height = 5.000108e-04 
S-sub-bulk = 4.430431e-03
S-sub-base = 6.209839e-06
S-o2-bulk = 1.000000e-02
S-o2-base = 8.953203e-03

     145    2401.8067    25000        2e-12 0.00050001083 
number of iterations: 1 
height = 5.000108e-04 
S-sub-bulk = 4.430431e-03
S-sub-base = 6.209829e-06
S-o2-bulk = 1.000000e-02
S-o2-base = 8.953203e-03

     146    2401.8159    25000        2e-12 0.00050001085 
number of iterations: 1 
height = 5.000109e-04 
S-sub-bulk = 4.430431e-03
S-sub-base = 6.209820e-06
S-o2-bulk = 1.000000e-02
S-o2-base = 8.953204e-03

     147    2401.8249    25000        2e-12 0.00050001086 
number of iterations: 1 
height = 5.000109e-04 
S-sub-bulk = 4.430431e-03
S-sub-base = 6.209811e-06
S-o2-bulk = 1.000000e-02
S-o2-base = 8.953204e-03

     148     2401.834    25000        2e-12 0.00050001087 
number of iterations: 1 
height = 5.000109e-04 
S-sub-bulk = 4.430431e-03
S-sub-base = 6.209801e-06
S-o2-bulk = 1.000000e-02
S-o2-base = 8.953205e-03

     149     2401.843    25000        2e-12 0.00050001088 
number of iterations: 1 
height = 5.000109e-04 
S-sub-bulk = 4.430432e-03
S-sub-base = 6.209792e-06
S-o2-bulk = 1.000000e-02
S-o2-base = 8.953205e-03

     150    2401.8522    25000        2e-12 0.00050001089 
number of iterations: 1 
height = 5.000109e-04 
S-sub-bulk = 4.430432e-03
S-sub-base = 6.209783e-06
S-o2-bulk = 1.000000e-02
S-o2-base = 8.953206e-03

     151    2401.8612    25000        2e-12 0.0005000109 
number of iterations: 1 
height = 5.000109e-04 
S-sub-bulk = 4.430432e-03
S-sub-base = 6.209773e-06
S-o2-bulk = 1.000000e-02
S-o2-base = 8.953206e-03

     152    2401.8704    25000        2e-12 0.00050001092 
number of iterations: 1 
height = 5.000109e-04 
S-sub-bulk = 4.430432e-03
S-sub-base = 6.209764e-06
S-o2-bulk = 1.000000e-02
S-o2-base = 8.953207e-03

     153    2401.8793    25000        2e-12 0.00050001093 
number of iterations: 1 
height = 5.000109e-04 
S-sub-bulk = 4.430432e-03
S-sub-base = 6.209755e-06
S-o2-bulk = 1.000000e-02
S-o2-base = 8.953207e-03

     154    2401.8884    25000        2e-12 0.00050001094 
number of iterations: 1 
height = 5.000110e-04 
S-sub-bulk = 4.430432e-03
S-sub-base = 6.209745e-06
S-o2-bulk = 1.000000e-02
S-o2-base = 8.953208e-03

     155    2401.8974    25000        2e-12 0.00050001095 
number of iterations: 1 
height = 5.000110e-04 
S-sub-bulk = 4.430432e-03
S-sub-base = 6.209736e-06
S-o2-bulk = 1.000000e-02
S-o2-base = 8.953208e-03

     156    2401.9066    25000        2e-12 0.00050001097 
number of iterations: 1 
height = 5.000110e-04 
S-sub-bulk = 4.430432e-03
S-sub-base = 6.209726e-06
S-o2-bulk = 1.000000e-02
S-o2-base = 8.953209e-03

     157    2401.9156    25000        2e-12 0.00050001097 
number of iterations: 1 
height = 5.000110e-04 
S-sub-bulk = 4.430432e-03
S-sub-base = 6.209717e-06
S-o2-bulk = 1.000000e-02
S-o2-base = 8.953209e-03

     158    2401.9247    25000        2e-12  0.000500011 
number of iterations: 1 
height = 5.000110e-04 
S-sub-bulk = 4.430432e-03
S-sub-base = 6.209708e-06
S-o2-bulk = 1.000000e-02
S-o2-base = 8.953210e-03

     159    2401.9337    25000        2e-12 0.00050001101 
number of iterations: 1 
height = 5.000110e-04 
S-sub-bulk = 4.430433e-03
S-sub-base = 6.209698e-06
S-o2-bulk = 1.000000e-02
S-o2-base = 8.953210e-03

     160    2401.9429    25000        2e-12 0.00050001102 
number of iterations: 1 
height = 5.000110e-04 
S-sub-bulk = 4.430433e-03
S-sub-base = 6.209689e-06
S-o2-bulk = 1.000000e-02
S-o2-base = 8.953211e-03

     161    2401.9518    25000        2e-12 0.00050001103 
number of iterations: 1 
height = 5.000110e-04 
S-sub-bulk = 4.430433e-03
S-sub-base = 6.209680e-06
S-o2-bulk = 1.000000e-02
S-o2-base = 8.953211e-03

     162     2401.961    25000        2e-12 0.00050001105 
number of iterations: 1 
height = 5.000111e-04 
S-sub-bulk = 4.430433e-03
S-sub-base = 6.209670e-06
S-o2-bulk = 1.000000e-02
S-o2-base = 8.953212e-03

     163    2401.9699    25000        2e-12 0.00050001105 
number of iterations: 1 
height = 5.000111e-04 
S-sub-bulk = 4.430433e-03
S-sub-base = 6.209661e-06
S-o2-bulk = 1.000000e-02
S-o2-base = 8.953212e-03

     164    2401.9791    25000        2e-12 0.00050001107 
number of iterations: 1 
height = 5.000111e-04 
S-sub-bulk = 4.430433e-03
S-sub-base = 6.209652e-06
S-o2-bulk = 1.000000e-02
S-o2-base = 8.953213e-03

     165    2401.9881    25000        2e-12 0.00050001108 
number of iterations: 1 
height = 5.000111e-04 
S-sub-bulk = 4.430433e-03
S-sub-base = 6.209642e-06
S-o2-bulk = 1.000000e-02
S-o2-base = 8.953213e-03

     166    2401.9973    25000        2e-12 0.0005000111 
number of iterations: 1 
height = 5.000111e-04 
S-sub-bulk = 4.430433e-03
S-sub-base = 6.209633e-06
S-o2-bulk = 1.000000e-02
S-o2-base = 8.953214e-03

     167    2402.0062    25000        2e-12 0.00050001111 
number of iterations: 1 
height = 5.000111e-04 
S-sub-bulk = 4.430433e-03
S-sub-base = 6.209623e-06
S-o2-bulk = 1.000000e-02
S-o2-base = 8.953214e-03

     168    2402.0153    25000        2e-12 0.00050001113 
number of iterations: 1 
height = 5.000111e-04 
S-sub-bulk = 4.430434e-03
S-sub-base = 6.209614e-06
S-o2-bulk = 1.000000e-02
S-o2-base = 8.953215e-03

     169    2402.0243    25000        2e-12 0.00050001114 
number of iterations: 1 
height = 5.000112e-04 
S-sub-bulk = 4.430434e-03
S-sub-base = 6.209605e-06
S-o2-bulk = 1.000000e-02
S-o2-base = 8.953215e-03

     170    2402.0335    25000        2e-12 0.00050001116 
number of iterations: 1 
height = 5.000112e-04 
S-sub-bulk = 4.430434e-03
S-sub-base = 6.209595e-06
S-o2-bulk = 1.000000e-02
S-o2-base = 8.953216e-03

     171    2402.0424    25000        2e-12 0.00050001117 
number of iterations: 1 
height = 5.000112e-04 
S-sub-bulk = 4.430434e-03
S-sub-base = 6.209586e-06
S-o2-bulk = 1.000000e-02
S-o2-base = 8.953216e-03

     172    2402.0515    25000        2e-12 0.00050001118 
number of iterations: 1 
height = 5.000112e-04 
S-sub-bulk = 4.430434e-03
S-sub-base = 6.209577e-06
S-o2-bulk = 1.000000e-02
S-o2-base = 8.953217e-03

     173    2402.0605    25000        2e-12 0.00050001119 
number of iterations: 1 
height = 5.000112e-04 
S-sub-bulk = 4.430434e-03
S-sub-base = 6.209567e-06
S-o2-bulk = 1.000000e-02
S-o2-base = 8.953217e-03

     174    2402.0697    25000        2e-12 0.00050001121 
number of iterations: 1 
height = 5.000112e-04 
S-sub-bulk = 4.430434e-03
S-sub-base = 6.209558e-06
S-o2-bulk = 1.000000e-02
S-o2-base = 8.953218e-03

     175    2402.0786    25000        2e-12 0.00050001123 
number of iterations: 1 
height = 5.000112e-04 
S-sub-bulk = 4.430434e-03
S-sub-base = 6.209549e-06
S-o2-bulk = 1.000000e-02
S-o2-base = 8.953218e-03

     176    2402.0878    25000        2e-12 0.00050001124 
number of iterations: 1 
height = 5.000113e-04 
S-sub-bulk = 4.430434e-03
S-sub-base = 6.209539e-06
S-o2-bulk = 1.000000e-02
S-o2-base = 8.953219e-03

     177    2402.0967    25000        2e-12 0.00050001125 
number of iterations: 1 
height = 5.000113e-04 
S-sub-bulk = 4.430435e-03
S-sub-base = 6.209530e-06
S-o2-bulk = 1.000000e-02
S-o2-base = 8.953219e-03

     178    2402.1059    25000        2e-12 0.00050001127 
number of iterations: 1 
height = 5.000113e-04 
S-sub-bulk = 4.430435e-03
S-sub-base = 6.209520e-06
S-o2-bulk = 1.000000e-02
S-o2-base = 8.953220e-03

     179    2402.1149    25000        2e-12 0.00050001128 
number of iterations: 1 
height = 5.000113e-04 
S-sub-bulk = 4.430435e-03
S-sub-base = 6.209511e-06
S-o2-bulk = 1.000000e-02
S-o2-base = 8.953220e-03

     180     2402.124    25000        2e-12 0.0005000113 
number of iterations: 1 
height = 5.000113e-04 
S-sub-bulk = 4.430435e-03
S-sub-base = 6.209502e-06
S-o2-bulk = 1.000000e-02
S-o2-base = 8.953221e-03

     181    2402.1329    25000        2e-12 0.00050001132 
number of iterations: 1 
height = 5.000113e-04 
S-sub-bulk = 4.430435e-03
S-sub-base = 6.209492e-06
S-o2-bulk = 1.000000e-02
S-o2-base = 8.953221e-03

     182    2402.1421    25000        2e-12 0.00050001134 
number of iterations: 1 
height = 5.000114e-04 
S-sub-bulk = 4.430435e-03
S-sub-base = 6.209483e-06
S-o2-bulk = 1.000000e-02
S-o2-base = 8.953222e-03

     183     2402.151    25000        2e-12 0.00050001135 
number of iterations: 1 
height = 5.000114e-04 
S-sub-bulk = 4.430435e-03
S-sub-base = 6.209474e-06
S-o2-bulk = 1.000000e-02
S-o2-base = 8.953222e-03

     184    2402.1602    25000        2e-12 0.00050001136 
number of iterations: 1 
height = 5.000114e-04 
S-sub-bulk = 4.430435e-03
S-sub-base = 6.209464e-06
S-o2-bulk = 1.000000e-02
S-o2-base = 8.953223e-03

     185    2402.1691    25000        2e-12 0.00050001138 
number of iterations: 1 
height = 5.000114e-04 
S-sub-bulk = 4.430435e-03
S-sub-base = 6.209455e-06
S-o2-bulk = 1.000000e-02
S-o2-base = 8.953223e-03

     186    2402.1782    25000        2e-12 0.0005000114 
number of iterations: 1 
height = 5.000114e-04 
S-sub-bulk = 4.430436e-03
S-sub-base = 6.209446e-06
S-o2-bulk = 1.000000e-02
S-o2-base = 8.953224e-03

     187    2402.1872    25000        2e-12 0.00050001141 
number of iterations: 1 
height = 5.000114e-04 
S-sub-bulk = 4.430436e-03
S-sub-base = 6.209436e-06
S-o2-bulk = 1.000000e-02
S-o2-base = 8.953224e-03

     188    2402.1964    25000        2e-12 0.00050001142 
number of iterations: 1 
height = 5.000114e-04 
S-sub-bulk = 4.430436e-03
S-sub-base = 6.209427e-06
S-o2-bulk = 1.000000e-02
S-o2-base = 8.953225e-03

     189    2402.2053    25000        2e-12 0.00050001144 
number of iterations: 1 
height = 5.000115e-04 
S-sub-bulk = 4.430436e-03
S-sub-base = 6.209418e-06
S-o2-bulk = 1.000000e-02
S-o2-base = 8.953225e-03

     190    2402.2144    25000        2e-12 0.00050001145 
number of iterations: 1 
height = 5.000115e-04 
S-sub-bulk = 4.430436e-03
S-sub-base = 6.209408e-06
S-o2-bulk = 1.000000e-02
S-o2-base = 8.953226e-03

     191    2402.2233    25000        2e-12 0.00050001147 
number of iterations: 1 
height = 5.000115e-04 
S-sub-bulk = 4.430436e-03
S-sub-base = 6.209399e-06
S-o2-bulk = 1.000000e-02
S-o2-base = 8.953226e-03

     192    2402.2325    25000        2e-12 0.00050001149 
number of iterations: 1 
height = 5.000115e-04 
S-sub-bulk = 4.430436e-03
S-sub-base = 6.209389e-06
S-o2-bulk = 1.000000e-02
S-o2-base = 8.953227e-03

     193    2402.2415    25000        2e-12 0.0005000115 
number of iterations: 1 
height = 5.000115e-04 
S-sub-bulk = 4.430436e-03
S-sub-base = 6.209380e-06
S-o2-bulk = 1.000000e-02
S-o2-base = 8.953227e-03

     194    2402.2506    25000        2e-12 0.00050001153 
number of iterations: 1 
height = 5.000115e-04 
S-sub-bulk = 4.430436e-03
S-sub-base = 6.209371e-06
S-o2-bulk = 1.000000e-02
S-o2-base = 8.953228e-03

     195    2402.2595    25000        2e-12 0.00050001154 
number of iterations: 1 
height = 5.000116e-04 
S-sub-bulk = 4.430437e-03
S-sub-base = 6.209361e-06
S-o2-bulk = 1.000000e-02
S-o2-base = 8.953228e-03

     196    2402.2687    25000        2e-12 0.00050001155 
number of iterations: 1 
height = 5.000116e-04 
S-sub-bulk = 4.430437e-03
S-sub-base = 6.209352e-06
S-o2-bulk = 1.000000e-02
S-o2-base = 8.953229e-03

     197    2402.2776    25000        2e-12 0.00050001157 
number of iterations: 1 
height = 5.000116e-04 
S-sub-bulk = 4.430437e-03
S-sub-base = 6.209343e-06
S-o2-bulk = 1.000000e-02
S-o2-base = 8.953229e-03

     198    2402.2868    25000        2e-12 0.00050001159 
number of iterations: 1 
height = 5.000116e-04 
S-sub-bulk = 4.430437e-03
S-sub-base = 6.209333e-06
S-o2-bulk = 1.000000e-02
S-o2-base = 8.953230e-03

     199    2402.2957    25000        2e-12 0.0005000116 
number of iterations: 1 
height = 5.000116e-04 
S-sub-bulk = 4.430437e-03
S-sub-base = 6.209324e-06
S-o2-bulk = 1.000000e-02
S-o2-base = 8.953230e-03

     200    2402.3049    25000        2e-12 0.00050001162 
number of iterations: 1 
height = 5.000116e-04 
S-sub-bulk = 4.430437e-03
S-sub-base = 6.209315e-06
S-o2-bulk = 1.000000e-02
S-o2-base = 8.953231e-03

     201    2402.3139    25000        2e-12 0.00050001163 
number of iterations: 1 
height = 5.000116e-04 
S-sub-bulk = 4.430437e-03
S-sub-base = 6.209305e-06
S-o2-bulk = 1.000000e-02
S-o2-base = 8.953231e-03

     202     2402.323    25000        2e-12 0.00050001165 
number of iterations: 1 
height = 5.000117e-04 
S-sub-bulk = 4.430437e-03
S-sub-base = 6.209296e-06
S-o2-bulk = 1.000000e-02
S-o2-base = 8.953232e-03

     203     2402.332    25000        2e-12 0.00050001166 
number of iterations: 1 
height = 5.000117e-04 
S-sub-bulk = 4.430437e-03
S-sub-base = 6.209287e-06
S-o2-bulk = 1.000000e-02
S-o2-base = 8.953232e-03

     204    2402.3411    25000        2e-12 0.00050001168 
number of iterations: 1 
height = 5.000117e-04 
S-sub-bulk = 4.430438e-03
S-sub-base = 6.209277e-06
S-o2-bulk = 1.000000e-02
S-o2-base = 8.953233e-03

     205      2402.35    25000        2e-12 0.0005000117 
number of iterations: 1 
height = 5.000117e-04 
S-sub-bulk = 4.430438e-03
S-sub-base = 6.209268e-06
S-o2-bulk = 1.000000e-02
S-o2-base = 8.953233e-03

     206    2402.3592    25000        2e-12 0.00050001172 
number of iterations: 1 
height = 5.000117e-04 
S-sub-bulk = 4.430438e-03
S-sub-base = 6.209258e-06
S-o2-bulk = 1.000000e-02
S-o2-base = 8.953234e-03

     207    2402.3681    25000        2e-12 0.00050001173 
number of iterations: 1 
height = 5.000117e-04 
S-sub-bulk = 4.430438e-03
S-sub-base = 6.209249e-06
S-o2-bulk = 1.000000e-02
S-o2-base = 8.953234e-03

     208    2402.3773    25000        2e-12 0.00050001175 
number of iterations: 1 
height = 5.000118e-04 
S-sub-bulk = 4.430438e-03
S-sub-base = 6.209240e-06
S-o2-bulk = 1.000000e-02
S-o2-base = 8.953235e-03

     209    2402.3862    25000        2e-12 0.00050001176 
number of iterations: 1 
height = 5.000118e-04 
S-sub-bulk = 4.430438e-03
S-sub-base = 6.209230e-06
S-o2-bulk = 1.000000e-02
S-o2-base = 8.953235e-03

     210    2402.3954    25000        2e-12 0.00050001179 
number of iterations: 1 
height = 5.000118e-04 
S-sub-bulk = 4.430438e-03
S-sub-base = 6.209221e-06
S-o2-bulk = 1.000000e-02
S-o2-base = 8.953236e-03

     211    2402.4043    25000        2e-12 0.0005000118 
number of iterations: 1 
height = 5.000118e-04 
S-sub-bulk = 4.430438e-03
S-sub-base = 6.209212e-06
S-o2-bulk = 1.000000e-02
S-o2-base = 8.953236e-03

     212    2402.4134    25000        2e-12 0.00050001182 
number of iterations: 1 
height = 5.000118e-04 
S-sub-bulk = 4.430438e-03
S-sub-base = 6.209202e-06
S-o2-bulk = 1.000000e-02
S-o2-base = 8.953237e-03

     213    2402.4223    25000        2e-12 0.00050001184 
number of iterations: 1 
height = 5.000119e-04 
S-sub-bulk = 4.430439e-03
S-sub-base = 6.209193e-06
S-o2-bulk = 1.000000e-02
S-o2-base = 8.953237e-03

     214    2402.4315    25000        2e-12 0.00050001186 
number of iterations: 1 
height = 5.000119e-04 
S-sub-bulk = 4.430439e-03
S-sub-base = 6.209184e-06
S-o2-bulk = 1.000000e-02
S-o2-base = 8.953238e-03

     215    2402.4404    25000        2e-12 0.00050001187 
number of iterations: 1 
height = 5.000119e-04 
S-sub-bulk = 4.430439e-03
S-sub-base = 6.209174e-06
S-o2-bulk = 1.000000e-02
S-o2-base = 8.953238e-03

     216    2402.4496    25000        2e-12 0.00050001188 
number of iterations: 1 
height = 5.000119e-04 
S-sub-bulk = 4.430439e-03
S-sub-base = 6.209165e-06
S-o2-bulk = 1.000000e-02
S-o2-base = 8.953239e-03

     217    2402.4585    25000        2e-12 0.0005000119 
number of iterations: 1 
height = 5.000119e-04 
S-sub-bulk = 4.430439e-03
S-sub-base = 6.209156e-06
S-o2-bulk = 1.000000e-02
S-o2-base = 8.953239e-03

     218    2402.4677    25000        2e-12 0.00050001193 
number of iterations: 1 
height = 5.000119e-04 
S-sub-bulk = 4.430439e-03
S-sub-base = 6.209146e-06
S-o2-bulk = 1.000000e-02
S-o2-base = 8.953240e-03

     219    2402.4766    25000        2e-12 0.00050001194 
number of iterations: 1 
height = 5.000120e-04 
S-sub-bulk = 4.430439e-03
S-sub-base = 6.209137e-06
S-o2-bulk = 1.000000e-02
S-o2-base = 8.953240e-03

     220    2402.4858    25000        2e-12 0.00050001196 
number of iterations: 1 
height = 5.000120e-04 
S-sub-bulk = 4.430439e-03
S-sub-base = 6.209128e-06
S-o2-bulk = 1.000000e-02
S-o2-base = 8.953241e-03

     221    2402.4947    25000        2e-12 0.00050001197 
number of iterations: 1 
height = 5.000120e-04 
S-sub-bulk = 4.430439e-03
S-sub-base = 6.209118e-06
S-o2-bulk = 1.000000e-02
S-o2-base = 8.953241e-03

     222    2402.5039    25000        2e-12 0.00050001199 
number of iterations: 1 
height = 5.000120e-04 
S-sub-bulk = 4.430440e-03
S-sub-base = 6.209109e-06
S-o2-bulk = 1.000000e-02
S-o2-base = 8.953242e-03

     223    2402.5128    25000        2e-12  0.000500012 
number of iterations: 1 
height = 5.000120e-04 
S-sub-bulk = 4.430440e-03
S-sub-base = 6.209099e-06
S-o2-bulk = 1.000000e-02
S-o2-base = 8.953242e-03

     224     2402.522    25000        2e-12 0.00050001203 
number of iterations: 1 
height = 5.000120e-04 
S-sub-bulk = 4.430440e-03
S-sub-base = 6.209090e-06
S-o2-bulk = 1.000000e-02
S-o2-base = 8.953243e-03

     225    2402.5309    25000        2e-12 0.00050001205 
number of iterations: 1 
height = 5.000121e-04 
S-sub-bulk = 4.430440e-03
S-sub-base = 6.209081e-06
S-o2-bulk = 1.000000e-02
S-o2-base = 8.953243e-03

     226      2402.54    25000        2e-12 0.00050001207 
number of iterations: 1 
height = 5.000121e-04 
S-sub-bulk = 4.430440e-03
S-sub-base = 6.209071e-06
S-o2-bulk = 1.000000e-02
S-o2-base = 8.953244e-03

     227     2402.549    25000        2e-12 0.00050001208 
number of iterations: 1 
height = 5.000121e-04 
S-sub-bulk = 4.430440e-03
S-sub-base = 6.209062e-06
S-o2-bulk = 1.000000e-02
S-o2-base = 8.953244e-03

     228    2402.5581    25000        2e-12 0.0005000121 
number of iterations: 1 
height = 5.000121e-04 
S-sub-bulk = 4.430440e-03
S-sub-base = 6.209053e-06
S-o2-bulk = 1.000000e-02
S-o2-base = 8.953245e-03

     229    2402.5671    25000        2e-12 0.00050001212 
number of iterations: 1 
height = 5.000121e-04 
S-sub-bulk = 4.430440e-03
S-sub-base = 6.209043e-06
S-o2-bulk = 1.000000e-02
S-o2-base = 8.953245e-03

     230    2402.5762    25000        2e-12 0.00050001215 
number of iterations: 1 
height = 5.000122e-04 
S-sub-bulk = 4.430440e-03
S-sub-base = 6.209034e-06
S-o2-bulk = 1.000000e-02
S-o2-base = 8.953246e-03

     231    2402.5851    25000        2e-12 0.00050001216 
number of iterations: 1 
height = 5.000122e-04 
S-sub-bulk = 4.430441e-03
S-sub-base = 6.209025e-06
S-o2-bulk = 1.000000e-02
S-o2-base = 8.953246e-03

     232    2402.5943    25000        2e-12 0.00050001218 
number of iterations: 1 
height = 5.000122e-04 
S-sub-bulk = 4.430441e-03
S-sub-base = 6.209015e-06
S-o2-bulk = 1.000000e-02
S-o2-base = 8.953247e-03

     233    2402.6032    25000        2e-12 0.0005000122 
number of iterations: 1 
height = 5.000122e-04 
S-sub-bulk = 4.430441e-03
S-sub-base = 6.209006e-06
S-o2-bulk = 1.000000e-02
S-o2-base = 8.953247e-03

     234    2402.6124    25000        2e-12 0.00050001222 
number of iterations: 1 
height = 5.000122e-04 
S-sub-bulk = 4.430441e-03
S-sub-base = 6.208997e-06
S-o2-bulk = 1.000000e-02
S-o2-base = 8.953248e-03

     235    2402.6215    25000        2e-12 0.00050001223 
number of iterations: 1 
height = 5.000123e-04 
S-sub-bulk = 4.430441e-03
S-sub-base = 6.208987e-06
S-o2-bulk = 1.000000e-02
S-o2-base = 8.953248e-03

     236    2402.6306    25000        2e-12 0.00050001226 
number of iterations: 1 
height = 5.000123e-04 
S-sub-bulk = 4.430441e-03
S-sub-base = 6.208978e-06
S-o2-bulk = 1.000000e-02
S-o2-base = 8.953249e-03

     237    2402.6395    25000        2e-12 0.00050001227 
number of iterations: 1 
height = 5.000123e-04 
S-sub-bulk = 4.430441e-03
S-sub-base = 6.208969e-06
S-o2-bulk = 1.000000e-02
S-o2-base = 8.953249e-03

     238    2402.6487    25000        2e-12 0.0005000123 
number of iterations: 1 
height = 5.000123e-04 
S-sub-bulk = 4.430441e-03
S-sub-base = 6.208959e-06
S-o2-bulk = 1.000000e-02
S-o2-base = 8.953250e-03

     239    2402.6578    25000        2e-12 0.00050001232 
number of iterations: 1 
height = 5.000123e-04 
S-sub-bulk = 4.430441e-03
S-sub-base = 6.208950e-06
S-o2-bulk = 1.000000e-02
S-o2-base = 8.953250e-03

     240    2402.6669    25000        2e-12 0.00050001234 
number of iterations: 1 
height = 5.000124e-04 
S-sub-bulk = 4.430442e-03
S-sub-base = 6.208941e-06
S-o2-bulk = 1.000000e-02
S-o2-base = 8.953251e-03

     241    2402.6758    25000        2e-12 0.00050001236 
number of iterations: 1 
height = 5.000124e-04 
S-sub-bulk = 4.430442e-03
S-sub-base = 6.208931e-06
S-o2-bulk = 1.000000e-02
S-o2-base = 8.953251e-03

     242     2402.685    25000        2e-12 0.0005000124 
number of iterations: 1 
height = 5.000124e-04 
S-sub-bulk = 4.430442e-03
S-sub-base = 6.208922e-06
S-o2-bulk = 1.000000e-02
S-o2-base = 8.953252e-03

     243     2402.694    25000        2e-12 0.00050001242 
number of iterations: 1 
height = 5.000124e-04 
S-sub-bulk = 4.430442e-03
S-sub-base = 6.208913e-06
S-o2-bulk = 1.000000e-02
S-o2-base = 8.953252e-03

     244    2402.7031    25000        2e-12 0.00050001245 
number of iterations: 1 
height = 5.000125e-04 
S-sub-bulk = 4.430442e-03
S-sub-base = 6.208903e-06
S-o2-bulk = 1.000000e-02
S-o2-base = 8.953253e-03

     245    2402.7121    25000        2e-12 0.00050001246 
number of iterations: 1 
height = 5.000125e-04 
S-sub-bulk = 4.430442e-03
S-sub-base = 6.208894e-06
S-o2-bulk = 1.000000e-02
S-o2-base = 8.953253e-03

     246    2402.7212    25000        2e-12 0.00050001249 
number of iterations: 1 
height = 5.000125e-04 
S-sub-bulk = 4.430442e-03
S-sub-base = 6.208884e-06
S-o2-bulk = 1.000000e-02
S-o2-base = 8.953254e-03

     247    2402.7302    25000        2e-12 0.00050001251 
number of iterations: 1 
height = 5.000125e-04 
S-sub-bulk = 4.430442e-03
S-sub-base = 6.208875e-06
S-o2-bulk = 1.000000e-02
S-o2-base = 8.953254e-03

     248    2402.7393    25000        2e-12 0.00050001255 
number of iterations: 1 
height = 5.000126e-04 
S-sub-bulk = 4.430442e-03
S-sub-base = 6.208866e-06
S-o2-bulk = 1.000000e-02
S-o2-base = 8.953255e-03

     249    2402.7483    25000        2e-12 0.00050001256 
number of iterations: 1 
height = 5.000126e-04 
S-sub-bulk = 4.430443e-03
S-sub-base = 6.208856e-06
S-o2-bulk = 1.000000e-02
S-o2-base = 8.953255e-03

     250    2402.7574    25000        2e-12 0.00050001259 
number of iterations: 1 
height = 5.000126e-04 
S-sub-bulk = 4.430443e-03
S-sub-base = 6.208847e-06
S-o2-bulk = 1.000000e-02
S-o2-base = 8.953256e-03

     251    2402.7663    25000        2e-12 0.00050001261 
number of iterations: 1 
height = 5.000126e-04 
S-sub-bulk = 4.430443e-03
S-sub-base = 6.208838e-06
S-o2-bulk = 1.000000e-02
S-o2-base = 8.953256e-03

     252    2402.7755    25000        2e-12 0.00050001264 
number of iterations: 1 
height = 5.000127e-04 
S-sub-bulk = 4.430443e-03
S-sub-base = 6.208828e-06
S-o2-bulk = 1.000000e-02
S-o2-base = 8.953257e-03

     253    2402.7845    25000        2e-12 0.00050001266 
number of iterations: 1 
height = 5.000127e-04 
S-sub-bulk = 4.430443e-03
S-sub-base = 6.208819e-06
S-o2-bulk = 1.000000e-02
S-o2-base = 8.953257e-03

     254    2402.7937    25000        2e-12 0.00050001271 
number of iterations: 1 
height = 5.000127e-04 
S-sub-bulk = 4.430443e-03
S-sub-base = 6.208810e-06
S-o2-bulk = 1.000000e-02
S-o2-base = 8.953258e-03

     255    2402.8026    25000        2e-12 0.00050001273 
number of iterations: 1 
height = 5.000128e-04 
S-sub-bulk = 4.430443e-03
S-sub-base = 6.208800e-06
S-o2-bulk = 1.000000e-02
S-o2-base = 8.953258e-03

     256    2402.8118    25000        2e-12 0.00050001276 
number of iterations: 1 
height = 5.000128e-04 
S-sub-bulk = 4.430443e-03
S-sub-base = 6.208791e-06
S-o2-bulk = 1.000000e-02
S-o2-base = 8.953259e-03

     257    2402.8207    25000        2e-12 0.00050001278 
number of iterations: 1 
height = 5.000128e-04 
S-sub-bulk = 4.430443e-03
S-sub-base = 6.208782e-06
S-o2-bulk = 1.000000e-02
S-o2-base = 8.953259e-03

     258    2402.8298    25000        2e-12 0.00050001281 
number of iterations: 1 
height = 5.000128e-04 
S-sub-bulk = 4.430444e-03
S-sub-base = 6.208772e-06
S-o2-bulk = 1.000000e-02
S-o2-base = 8.953260e-03

     259    2402.8388    25000        2e-12 0.00050001284 
number of iterations: 1 
height = 5.000129e-04 
S-sub-bulk = 4.430444e-03
S-sub-base = 6.208763e-06
S-o2-bulk = 1.000000e-02
S-o2-base = 8.953260e-03

     260     2402.848    25000        2e-12 0.00050001287 
number of iterations: 1 
height = 5.000129e-04 
S-sub-bulk = 4.430444e-03
S-sub-base = 6.208754e-06
S-o2-bulk = 1.000000e-02
S-o2-base = 8.953261e-03

     261     2402.857    25000        2e-12 0.00050001291 
number of iterations: 1 
height = 5.000129e-04 
S-sub-bulk = 4.430444e-03
S-sub-base = 6.208744e-06
S-o2-bulk = 1.000000e-02
S-o2-base = 8.953261e-03

     262    2402.8662    25000        2e-12 0.00050001294 
number of iterations: 1 
height = 5.000130e-04 
S-sub-bulk = 4.430444e-03
S-sub-base = 6.208735e-06
S-o2-bulk = 1.000000e-02
S-o2-base = 8.953262e-03

     263    2402.8751    25000        2e-12 0.00050001298 
number of iterations: 1 
height = 5.000130e-04 
S-sub-bulk = 4.430444e-03
S-sub-base = 6.208726e-06
S-o2-bulk = 1.000000e-02
S-o2-base = 8.953262e-03

     264    2402.8843    25000        2e-12  0.000500013 
number of iterations: 1 
height = 5.000130e-04 
S-sub-bulk = 4.430444e-03
S-sub-base = 6.208716e-06
S-o2-bulk = 1.000000e-02
S-o2-base = 8.953263e-03

     265    2402.8932    25000        2e-12 0.00050001303 
number of iterations: 1 
height = 5.000131e-04 
S-sub-bulk = 4.430444e-03
S-sub-base = 6.208707e-06
S-o2-bulk = 1.000000e-02
S-o2-base = 8.953263e-03

     266    2402.9024    25000        2e-12 0.00050001306 
number of iterations: 1 
height = 5.000131e-04 
S-sub-bulk = 4.430444e-03
S-sub-base = 6.208698e-06
S-o2-bulk = 1.000000e-02
S-o2-base = 8.953264e-03

     267    2402.9113    25000        2e-12 0.00050001309 
number of iterations: 1 
height = 5.000131e-04 
S-sub-bulk = 4.430445e-03
S-sub-base = 6.208688e-06
S-o2-bulk = 1.000000e-02
S-o2-base = 8.953264e-03

     268    2402.9205    25000        2e-12 0.00050001312 
number of iterations: 1 
height = 5.000132e-04 
S-sub-bulk = 4.430445e-03
S-sub-base = 6.208679e-06
S-o2-bulk = 1.000000e-02
S-o2-base = 8.953265e-03

     269    2402.9294    25000        2e-12 0.00050001316 
number of iterations: 1 
height = 5.000132e-04 
S-sub-bulk = 4.430445e-03
S-sub-base = 6.208670e-06
S-o2-bulk = 1.000000e-02
S-o2-base = 8.953265e-03

     270    2402.9385    25000        2e-12 0.00050001319 
number of iterations: 1 
height = 5.000132e-04 
S-sub-bulk = 4.430445e-03
S-sub-base = 6.208660e-06
S-o2-bulk = 1.000000e-02
S-o2-base = 8.953266e-03

     271    2402.9475    25000        2e-12 0.00050001323 
number of iterations: 1 
height = 5.000133e-04 
S-sub-bulk = 4.430445e-03
S-sub-base = 6.208651e-06
S-o2-bulk = 1.000000e-02
S-o2-base = 8.953266e-03

     272    2402.9567    25000        2e-12 0.00050001326 
number of iterations: 1 
height = 5.000133e-04 
S-sub-bulk = 4.430445e-03
S-sub-base = 6.208642e-06
S-o2-bulk = 1.000000e-02
S-o2-base = 8.953267e-03

     273    2402.9656    25000        2e-12 0.00050001331 
number of iterations: 1 
height = 5.000133e-04 
S-sub-bulk = 4.430445e-03
S-sub-base = 6.208632e-06
S-o2-bulk = 1.000000e-02
S-o2-base = 8.953267e-03

     274    2402.9748    25000        2e-12 0.00050001334 
number of iterations: 1 
height = 5.000134e-04 
S-sub-bulk = 4.430445e-03
S-sub-base = 6.208623e-06
S-o2-bulk = 1.000000e-02
S-o2-base = 8.953268e-03

     275    2402.9838    25000        2e-12 0.00050001338 
number of iterations: 1 
height = 5.000134e-04 
S-sub-bulk = 4.430446e-03
S-sub-base = 6.208614e-06
S-o2-bulk = 1.000000e-02
S-o2-base = 8.953268e-03

     276     2402.993    25000        2e-12 0.00050001341 
number of iterations: 1 
height = 5.000135e-04 
S-sub-bulk = 4.430446e-03
S-sub-base = 6.208604e-06
S-o2-bulk = 1.000000e-02
S-o2-base = 8.953269e-03

     277    2403.0019    25000        2e-12 0.00050001345 
number of iterations: 1 
height = 5.000135e-04 
S-sub-bulk = 4.430446e-03
S-sub-base = 6.208595e-06
S-o2-bulk = 1.000000e-02
S-o2-base = 8.953269e-03

     278    2403.0111    25000        2e-12 0.00050001348 
number of iterations: 1 
height = 5.000135e-04 
S-sub-bulk = 4.430446e-03
S-sub-base = 6.208586e-06
S-o2-bulk = 1.000000e-02
S-o2-base = 8.953270e-03

     279      2403.02    25000        2e-12 0.00050001352 
number of iterations: 1 
height = 5.000136e-04 
S-sub-bulk = 4.430446e-03
S-sub-base = 6.208576e-06
S-o2-bulk = 1.000000e-02
S-o2-base = 8.953270e-03

     280    2403.0292    25000        2e-12 0.00050001355 
number of iterations: 1 
height = 5.000136e-04 
S-sub-bulk = 4.430446e-03
S-sub-base = 6.208567e-06
S-o2-bulk = 1.000000e-02
S-o2-base = 8.953271e-03

     281    2403.0382    25000        2e-12 0.0005000136 
number of iterations: 1 
height = 5.000136e-04 
S-sub-bulk = 4.430446e-03
S-sub-base = 6.208558e-06
S-o2-bulk = 1.000000e-02
S-o2-base = 8.953271e-03

     282    2403.0473    25000        2e-12 0.00050001364 
number of iterations: 1 
height = 5.000137e-04 
S-sub-bulk = 4.430446e-03
S-sub-base = 6.208548e-06
S-o2-bulk = 1.000000e-02
S-o2-base = 8.953272e-03

     283    2403.0563    25000        2e-12 0.00050001368 
number of iterations: 1 
height = 5.000137e-04 
S-sub-bulk = 4.430446e-03
S-sub-base = 6.208539e-06
S-o2-bulk = 1.000000e-02
S-o2-base = 8.953272e-03

     284    2403.0654    25000        2e-12 0.00050001371 
number of iterations: 1 
height = 5.000137e-04 
S-sub-bulk = 4.430447e-03
S-sub-base = 6.208530e-06
S-o2-bulk = 1.000000e-02
S-o2-base = 8.953273e-03

     285    2403.0744    25000        2e-12 0.00050001375 
number of iterations: 1 
height = 5.000138e-04 
S-sub-bulk = 4.430447e-03
S-sub-base = 6.208520e-06
S-o2-bulk = 1.000000e-02
S-o2-base = 8.953273e-03

     286    2403.0835    25000        2e-12 0.00050001378 
number of iterations: 1 
height = 5.000138e-04 
S-sub-bulk = 4.430447e-03
S-sub-base = 6.208511e-06
S-o2-bulk = 1.000000e-02
S-o2-base = 8.953274e-03

     287    2403.0925    25000        2e-12 0.00050001384 
number of iterations: 1 
height = 5.000139e-04 
S-sub-bulk = 4.430447e-03
S-sub-base = 6.208502e-06
S-o2-bulk = 1.000000e-02
S-o2-base = 8.953274e-03

     288    2403.1017    25000        2e-12 0.00050001387 
number of iterations: 1 
height = 5.000139e-04 
S-sub-bulk = 4.430447e-03
S-sub-base = 6.208492e-06
S-o2-bulk = 1.000000e-02
S-o2-base = 8.953275e-03

     289    2403.1106    25000        2e-12 0.00050001393 
number of iterations: 1 
height = 5.000140e-04 
S-sub-bulk = 4.430447e-03
S-sub-base = 6.208483e-06
S-o2-bulk = 1.000000e-02
S-o2-base = 8.953275e-03

     290    2403.1198    25000        2e-12 0.00050001396 
number of iterations: 1 
height = 5.000140e-04 
S-sub-bulk = 4.430447e-03
S-sub-base = 6.208473e-06
S-o2-bulk = 1.000000e-02
S-o2-base = 8.953276e-03

     291    2403.1287    25000        2e-12 0.00050001401 
number of iterations: 1 
height = 5.000140e-04 
S-sub-bulk = 4.430447e-03
S-sub-base = 6.208464e-06
S-o2-bulk = 1.000000e-02
S-o2-base = 8.953276e-03

     292    2403.1379    25000        2e-12 0.00050001404 
number of iterations: 1 
height = 5.000141e-04 
S-sub-bulk = 4.430447e-03
S-sub-base = 6.208455e-06
S-o2-bulk = 1.000000e-02
S-o2-base = 8.953277e-03

     293    2403.1469    25000        2e-12 0.00050001408 
number of iterations: 1 
height = 5.000141e-04 
S-sub-bulk = 4.430448e-03
S-sub-base = 6.208445e-06
S-o2-bulk = 1.000000e-02
S-o2-base = 8.953277e-03

     294     2403.156    25000        2e-12 0.00050001412 
number of iterations: 1 
height = 5.000142e-04 
S-sub-bulk = 4.430448e-03
S-sub-base = 6.208436e-06
S-o2-bulk = 1.000000e-02
S-o2-base = 8.953278e-03

     295     2403.165    25000        2e-12 0.00050001417 
number of iterations: 1 
height = 5.000142e-04 
S-sub-bulk = 4.430448e-03
S-sub-base = 6.208427e-06
S-o2-bulk = 1.000000e-02
S-o2-base = 8.953278e-03

     296    2403.1741    25000        2e-12 0.00050001419 
number of iterations: 1 
height = 5.000142e-04 
S-sub-bulk = 4.430448e-03
S-sub-base = 6.208417e-06
S-o2-bulk = 1.000000e-02
S-o2-base = 8.953279e-03

     297    2403.1831    25000        2e-12 0.00050001425 
number of iterations: 1 
height = 5.000143e-04 
S-sub-bulk = 4.430448e-03
S-sub-base = 6.208408e-06
S-o2-bulk = 1.000000e-02
S-o2-base = 8.953279e-03

     298    2403.1922    25000        2e-12 0.00050001429 
number of iterations: 1 
height = 5.000143e-04 
S-sub-bulk = 4.430448e-03
S-sub-base = 6.208399e-06
S-o2-bulk = 1.000000e-02
S-o2-base = 8.953280e-03

     299    2403.2012    25000        2e-12 0.00050001434 
number of iterations: 1 
height = 5.000144e-04 
S-sub-bulk = 4.430448e-03
S-sub-base = 6.208389e-06
S-o2-bulk = 1.000000e-02
S-o2-base = 8.953280e-03

     300    2403.2104    25000        2e-12 0.00050001437 
number of iterations: 1 
height = 5.000144e-04 
S-sub-bulk = 4.430448e-03
S-sub-base = 6.208380e-06
S-o2-bulk = 1.000000e-02
S-o2-base = 8.953281e-03

     301    2403.2194    25000        2e-12 0.00050001443 
number of iterations: 1 
height = 5.000145e-04 
S-sub-bulk = 4.430448e-03
S-sub-base = 6.208371e-06
S-o2-bulk = 1.000000e-02
S-o2-base = 8.953281e-03

     302    2403.2286    25000        2e-12 0.00050001446 
number of iterations: 1 
height = 5.000145e-04 
S-sub-bulk = 4.430449e-03
S-sub-base = 6.208361e-06
S-o2-bulk = 1.000000e-02
S-o2-base = 8.953282e-03

     303    2403.2375    25000        2e-12 0.00050001452 
number of iterations: 1 
height = 5.000146e-04 
S-sub-bulk = 4.430449e-03
S-sub-base = 6.208352e-06
S-o2-bulk = 1.000000e-02
S-o2-base = 8.953282e-03

     304    2403.2466    25000        2e-12 0.00050001456 
number of iterations: 1 
height = 5.000146e-04 
S-sub-bulk = 4.430449e-03
S-sub-base = 6.208343e-06
S-o2-bulk = 1.000000e-02
S-o2-base = 8.953283e-03

     305    2403.2556    25000        2e-12 0.00050001462 
number of iterations: 1 
height = 5.000147e-04 
S-sub-bulk = 4.430449e-03
S-sub-base = 6.208333e-06
S-o2-bulk = 1.000000e-02
S-o2-base = 8.953283e-03

     306    2403.2647    25000        2e-12 0.00050001466 
number of iterations: 1 
height = 5.000147e-04 
S-sub-bulk = 4.430449e-03
S-sub-base = 6.208324e-06
S-o2-bulk = 1.000000e-02
S-o2-base = 8.953284e-03

     307    2403.2737    25000        2e-12 0.00050001471 
number of iterations: 1 
height = 5.000147e-04 
S-sub-bulk = 4.430449e-03
S-sub-base = 6.208315e-06
S-o2-bulk = 1.000000e-02
S-o2-base = 8.953284e-03

     308    2403.2828    25000        2e-12 0.00050001474 
number of iterations: 1 
height = 5.000148e-04 
S-sub-bulk = 4.430449e-03
S-sub-base = 6.208305e-06
S-o2-bulk = 1.000000e-02
S-o2-base = 8.953285e-03

     309    2403.2918    25000        2e-12 0.0005000148 
number of iterations: 1 
height = 5.000148e-04 
S-sub-bulk = 4.430449e-03
S-sub-base = 6.208296e-06
S-o2-bulk = 1.000000e-02
S-o2-base = 8.953285e-03

     310    2403.3009    25000        2e-12 0.00050001484 
number of iterations: 1 
height = 5.000149e-04 
S-sub-bulk = 4.430449e-03
S-sub-base = 6.208287e-06
S-o2-bulk = 1.000000e-02
S-o2-base = 8.953286e-03

     311    2403.3099    25000        2e-12 0.00050001488 
number of iterations: 1 
height = 5.000149e-04 
S-sub-bulk = 4.430450e-03
S-sub-base = 6.208277e-06
S-o2-bulk = 1.000000e-02
S-o2-base = 8.953286e-03

     312     2403.319    25000        2e-12 0.00050001493 
number of iterations: 1 
height = 5.000150e-04 
S-sub-bulk = 4.430450e-03
S-sub-base = 6.208268e-06
S-o2-bulk = 1.000000e-02
S-o2-base = 8.953287e-03

     313     2403.328    25000        2e-12 0.00050001499 
number of iterations: 1 
height = 5.000150e-04 
S-sub-bulk = 4.430450e-03
S-sub-base = 6.208259e-06
S-o2-bulk = 1.000000e-02
S-o2-base = 8.953287e-03

     314    2403.3371    25000        2e-12 0.00050001502 
number of iterations: 1 
height = 5.000151e-04 
S-sub-bulk = 4.430450e-03
S-sub-base = 6.208249e-06
S-o2-bulk = 1.000000e-02
S-o2-base = 8.953288e-03

     315    2403.3461    25000        2e-12 0.00050001509 
number of iterations: 1 
height = 5.000151e-04 
S-sub-bulk = 4.430450e-03
S-sub-base = 6.208240e-06
S-o2-bulk = 1.000000e-02
S-o2-base = 8.953288e-03

     316    2403.3552    25000        2e-12 0.00050001513 
number of iterations: 1 
height = 5.000152e-04 
S-sub-bulk = 4.430450e-03
S-sub-base = 6.208231e-06
S-o2-bulk = 1.000000e-02
S-o2-base = 8.953289e-03

     317    2403.3642    25000        2e-12 0.00050001519 
number of iterations: 1 
height = 5.000152e-04 
S-sub-bulk = 4.430450e-03
S-sub-base = 6.208221e-06
S-o2-bulk = 1.000000e-02
S-o2-base = 8.953289e-03

     318    2403.3734    25000        2e-12 0.00050001523 
number of iterations: 1 
height = 5.000153e-04 
S-sub-bulk = 4.430450e-03
S-sub-base = 6.208212e-06
S-o2-bulk = 1.000000e-02
S-o2-base = 8.953290e-03

     319    2403.3824    25000        2e-12 0.0005000153 
number of iterations: 1 
height = 5.000153e-04 
S-sub-bulk = 4.430451e-03
S-sub-base = 6.208203e-06
S-o2-bulk = 1.000000e-02
S-o2-base = 8.953290e-03

     320    2403.3915    25000        2e-12 0.00050001534 
number of iterations: 1 
height = 5.000154e-04 
S-sub-bulk = 4.430451e-03
S-sub-base = 6.208194e-06
S-o2-bulk = 1.000000e-02
S-o2-base = 8.953291e-03

     321    2403.4005    25000        2e-12 0.00050001542 
number of iterations: 1 
height = 5.000155e-04 
S-sub-bulk = 4.430451e-03
S-sub-base = 6.208184e-06
S-o2-bulk = 1.000000e-02
S-o2-base = 8.953291e-03

     322    2403.4096    25000        2e-12 0.00050001547 
number of iterations: 1 
height = 5.000155e-04 
S-sub-bulk = 4.430451e-03
S-sub-base = 6.208175e-06
S-o2-bulk = 1.000000e-02
S-o2-base = 8.953292e-03

     323    2403.4185    25000        2e-12 0.00050001553 
number of iterations: 1 
height = 5.000156e-04 
S-sub-bulk = 4.430451e-03
S-sub-base = 6.208166e-06
S-o2-bulk = 1.000000e-02
S-o2-base = 8.953292e-03

     324    2403.4277    25000        2e-12 0.00050001558 
number of iterations: 1 
height = 5.000156e-04 
S-sub-bulk = 4.430451e-03
S-sub-base = 6.208156e-06
S-o2-bulk = 1.000000e-02
S-o2-base = 8.953293e-03

     325    2403.4367    25000        2e-12 0.00050001563 
number of iterations: 1 
height = 5.000157e-04 
S-sub-bulk = 4.430451e-03
S-sub-base = 6.208147e-06
S-o2-bulk = 1.000000e-02
S-o2-base = 8.953293e-03

     326    2403.4459    25000        2e-12 0.00050001572 
number of iterations: 1 
height = 5.000158e-04 
S-sub-bulk = 4.430451e-03
S-sub-base = 6.208138e-06
S-o2-bulk = 1.000000e-02
S-o2-base = 8.953294e-03

     327    2403.4548    25000        2e-12 0.00050001578 
number of iterations: 1 
height = 5.000158e-04 
S-sub-bulk = 4.430451e-03
S-sub-base = 6.208128e-06
S-o2-bulk = 1.000000e-02
S-o2-base = 8.953294e-03

     328     2403.464    25000        2e-12 0.00050001583 
number of iterations: 1 
height = 5.000159e-04 
S-sub-bulk = 4.430452e-03
S-sub-base = 6.208119e-06
S-o2-bulk = 1.000000e-02
S-o2-base = 8.953295e-03

     329    2403.4729    25000        2e-12 0.00050001589 
number of iterations: 1 
height = 5.000159e-04 
S-sub-bulk = 4.430452e-03
S-sub-base = 6.208110e-06
S-o2-bulk = 1.000000e-02
S-o2-base = 8.953295e-03

     330    2403.4821    25000        2e-12 0.00050001594 
number of iterations: 1 
height = 5.000160e-04 
S-sub-bulk = 4.430452e-03
S-sub-base = 6.208100e-06
S-o2-bulk = 1.000000e-02
S-o2-base = 8.953296e-03

     331     2403.491    25000        2e-12 0.00050001603 
number of iterations: 1 
height = 5.000161e-04 
S-sub-bulk = 4.430452e-03
S-sub-base = 6.208091e-06
S-o2-bulk = 1.000000e-02
S-o2-base = 8.953296e-03

     332    2403.5002    25000        2e-12 0.00050001608 
number of iterations: 1 
height = 5.000162e-04 
S-sub-bulk = 4.430452e-03
S-sub-base = 6.208082e-06
S-o2-bulk = 1.000000e-02
S-o2-base = 8.953297e-03

     333    2403.5092    25000        2e-12 0.00050001616 
number of iterations: 1 
height = 5.000162e-04 
S-sub-bulk = 4.430452e-03
S-sub-base = 6.208072e-06
S-o2-bulk = 1.000000e-02
S-o2-base = 8.953297e-03

     334    2403.5183    25000        2e-12 0.00050001621 
number of iterations: 1 
height = 5.000163e-04 
S-sub-bulk = 4.430452e-03
S-sub-base = 6.208063e-06
S-o2-bulk = 1.000000e-02
S-o2-base = 8.953298e-03

     335    2403.5273    25000        2e-12 0.00050001628 
number of iterations: 1 
height = 5.000163e-04 
S-sub-bulk = 4.430452e-03
S-sub-base = 6.208054e-06
S-o2-bulk = 1.000000e-02
S-o2-base = 8.953298e-03

     336    2403.5363    25000        2e-12 0.00050001634 
number of iterations: 1 
height = 5.000164e-04 
S-sub-bulk = 4.430452e-03
S-sub-base = 6.208044e-06
S-o2-bulk = 1.000000e-02
S-o2-base = 8.953299e-03

     337    2403.5453    25000        2e-12 0.0005000164 
number of iterations: 1 
height = 5.000164e-04 
S-sub-bulk = 4.430453e-03
S-sub-base = 6.208035e-06
S-o2-bulk = 1.000000e-02
S-o2-base = 8.953299e-03

     338    2403.5545    25000        2e-12 0.00050001644 
number of iterations: 1 
height = 5.000165e-04 
S-sub-bulk = 4.430453e-03
S-sub-base = 6.208026e-06
S-o2-bulk = 1.000000e-02
S-o2-base = 8.953300e-03

     339    2403.5635    25000        2e-12 0.0005000165 
number of iterations: 1 
height = 5.000166e-04 
S-sub-bulk = 4.430453e-03
S-sub-base = 6.208016e-06
S-o2-bulk = 1.000000e-02
S-o2-base = 8.953300e-03

     340    2403.5726    25000        2e-12 0.00050001657 
number of iterations: 1 
height = 5.000166e-04 
S-sub-bulk = 4.430453e-03
S-sub-base = 6.208007e-06
S-o2-bulk = 1.000000e-02
S-o2-base = 8.953301e-03

     341    2403.5816    25000        2e-12 0.00050001664 
number of iterations: 1 
height = 5.000167e-04 
S-sub-bulk = 4.430453e-03
S-sub-base = 6.207998e-06
S-o2-bulk = 1.000000e-02
S-o2-base = 8.953301e-03

     342    2403.5907    25000        2e-12 0.00050001671 
number of iterations: 1 
height = 5.000168e-04 
S-sub-bulk = 4.430453e-03
S-sub-base = 6.207988e-06
S-o2-bulk = 1.000000e-02
S-o2-base = 8.953302e-03

     343    2403.5996    25000        2e-12 0.00050001677 
number of iterations: 1 
height = 5.000168e-04 
S-sub-bulk = 4.430453e-03
S-sub-base = 6.207979e-06
S-o2-bulk = 1.000000e-02
S-o2-base = 8.953302e-03

     344    2403.6088    25000        2e-12 0.00050001683 
number of iterations: 1 
height = 5.000169e-04 
S-sub-bulk = 4.430453e-03
S-sub-base = 6.207970e-06
S-o2-bulk = 1.000000e-02
S-o2-base = 8.953303e-03

     345    2403.6178    25000        2e-12 0.0005000169 
number of iterations: 1 
height = 5.000170e-04 
S-sub-bulk = 4.430453e-03
S-sub-base = 6.207960e-06
S-o2-bulk = 1.000000e-02
S-o2-base = 8.953303e-03

     346    2403.6269    25000        2e-12 0.00050001695 
number of iterations: 1 
height = 5.000170e-04 
S-sub-bulk = 4.430454e-03
S-sub-base = 6.207951e-06
S-o2-bulk = 1.000000e-02
S-o2-base = 8.953304e-03

     347    2403.6358    25000        2e-12 0.00050001703 
number of iterations: 1 
height = 5.000171e-04 
S-sub-bulk = 4.430454e-03
S-sub-base = 6.207942e-06
S-o2-bulk = 1.000000e-02
S-o2-base = 8.953304e-03

     348     2403.645    25000        2e-12 0.0005000171 
number of iterations: 1 
height = 5.000172e-04 
S-sub-bulk = 4.430454e-03
S-sub-base = 6.207932e-06
S-o2-bulk = 1.000000e-02
S-o2-base = 8.953305e-03

     349    2403.6539    25000        2e-12 0.00050001718 
number of iterations: 1 
height = 5.000173e-04 
S-sub-bulk = 4.430454e-03
S-sub-base = 6.207923e-06
S-o2-bulk = 1.000000e-02
S-o2-base = 8.953305e-03

     350     2403.663    25000        2e-12 0.00050001726 
number of iterations: 1 
height = 5.000173e-04 
S-sub-bulk = 4.430454e-03
S-sub-base = 6.207914e-06
S-o2-bulk = 1.000000e-02
S-o2-base = 8.953306e-03

     351     2403.672    25000        2e-12 0.00050001735 
number of iterations: 1 
height = 5.000174e-04 
S-sub-bulk = 4.430454e-03
S-sub-base = 6.207904e-06
S-o2-bulk = 1.000000e-02
S-o2-base = 8.953306e-03

     352    2403.6811    25000        2e-12 0.0005000174 
number of iterations: 1 
height = 5.000175e-04 
S-sub-bulk = 4.430454e-03
S-sub-base = 6.207895e-06
S-o2-bulk = 1.000000e-02
S-o2-base = 8.953307e-03

     353    2403.6902    25000        2e-12 0.0005000175 
number of iterations: 1 
height = 5.000176e-04 
S-sub-bulk = 4.430454e-03
S-sub-base = 6.207886e-06
S-o2-bulk = 1.000000e-02
S-o2-base = 8.953307e-03

     354    2403.6993    25000        2e-12 0.00050001755 
number of iterations: 1 
height = 5.000176e-04 
S-sub-bulk = 4.430455e-03
S-sub-base = 6.207876e-06
S-o2-bulk = 1.000000e-02
S-o2-base = 8.953308e-03

     355    2403.7082    25000        2e-12 0.00050001764 
number of iterations: 1 
height = 5.000177e-04 
S-sub-bulk = 4.430455e-03
S-sub-base = 6.207867e-06
S-o2-bulk = 1.000000e-02
S-o2-base = 8.953308e-03

     356    2403.7173    25000        2e-12 0.00050001771 
number of iterations: 1 
height = 5.000178e-04 
S-sub-bulk = 4.430455e-03
S-sub-base = 6.207858e-06
S-o2-bulk = 1.000000e-02
S-o2-base = 8.953309e-03

     357    2403.7263    25000        2e-12 0.0005000178 
number of iterations: 1 
height = 5.000179e-04 
S-sub-bulk = 4.430455e-03
S-sub-base = 6.207848e-06
S-o2-bulk = 1.000000e-02
S-o2-base = 8.953309e-03

     358    2403.7354    25000        2e-12 0.00050001785 
number of iterations: 1 
height = 5.000179e-04 
S-sub-bulk = 4.430455e-03
S-sub-base = 6.207839e-06
S-o2-bulk = 1.000000e-02
S-o2-base = 8.953310e-03

     359    2403.7444    25000        2e-12 0.00050001792 
number of iterations: 1 
height = 5.000180e-04 
S-sub-bulk = 4.430455e-03
S-sub-base = 6.207830e-06
S-o2-bulk = 1.000000e-02
S-o2-base = 8.953310e-03

     360    2403.7535    25000        2e-12 0.00050001799 
number of iterations: 1 
height = 5.000181e-04 
S-sub-bulk = 4.430455e-03
S-sub-base = 6.207820e-06
S-o2-bulk = 1.000000e-02
S-o2-base = 8.953311e-03

     361    2403.7625    25000        2e-12 0.00050001808 
number of iterations: 1 
height = 5.000181e-04 
S-sub-bulk = 4.430455e-03
S-sub-base = 6.207811e-06
S-o2-bulk = 1.000000e-02
S-o2-base = 8.953311e-03

     362    2403.7716    25000        2e-12 0.00050001814 
number of iterations: 1 
height = 5.000182e-04 
S-sub-bulk = 4.430455e-03
S-sub-base = 6.207802e-06
S-o2-bulk = 1.000000e-02
S-o2-base = 8.953312e-03

     363    2403.7806    25000        2e-12 0.00050001824 
number of iterations: 1 
height = 5.000183e-04 
S-sub-bulk = 4.430456e-03
S-sub-base = 6.207793e-06
S-o2-bulk = 1.000000e-02
S-o2-base = 8.953312e-03

     364    2403.7898    25000        2e-12 0.0005000183 
number of iterations: 1 
height = 5.000184e-04 
S-sub-bulk = 4.430456e-03
S-sub-base = 6.207783e-06
S-o2-bulk = 1.000000e-02
S-o2-base = 8.953313e-03

     365    2403.7988    25000        2e-12 0.00050001842 
number of iterations: 1 
height = 5.000185e-04 
S-sub-bulk = 4.430456e-03
S-sub-base = 6.207774e-06
S-o2-bulk = 1.000000e-02
S-o2-base = 8.953313e-03

     366    2403.8079    25000        2e-12 0.00050001848 
[...]
S-o2-bulk = 1.000000e-02
S-o2-base = 8.953585e-03

     910    2408.6294    25000        2e-12 0.00050009184 
number of iterations: 1 
height = 5.000925e-04 
S-sub-bulk = 4.430519e-03
S-sub-base = 6.202725e-06
S-o2-bulk = 1.000000e-02
S-o2-base = 8.953585e-03

     911     2408.638    25000        2e-12 0.00050009248 
number of iterations: 1 
height = 5.000918e-04 
S-sub-bulk = 4.430519e-03
S-sub-base = 6.202715e-06
S-o2-bulk = 1.000000e-02
S-o2-base = 8.953586e-03

     912    2408.6466    25000        2e-12 0.00050009185 
number of iterations: 1 
height = 5.000925e-04 
S-sub-bulk = 4.430519e-03
S-sub-base = 6.202706e-06
S-o2-bulk = 1.000000e-02
S-o2-base = 8.953586e-03

     913    2408.6552    25000        2e-12 0.00050009254 
number of iterations: 1 
height = 5.000920e-04 
S-sub-bulk = 4.430519e-03
S-sub-base = 6.202697e-06
S-o2-bulk = 1.000000e-02
S-o2-base = 8.953587e-03

     914    2408.6639    25000        2e-12 0.00050009197 
number of iterations: 1 
height = 5.000928e-04 
S-sub-bulk = 4.430519e-03
S-sub-base = 6.202688e-06
S-o2-bulk = 1.000000e-02
S-o2-base = 8.953587e-03

     915    2408.6725    25000        2e-12 0.00050009276 
number of iterations: 1 
height = 5.000920e-04 
S-sub-bulk = 4.430519e-03
S-sub-base = 6.202679e-06
S-o2-bulk = 1.000000e-02
S-o2-base = 8.953588e-03

     916    2408.6811    25000        2e-12 0.00050009199 
number of iterations: 1 
height = 5.000929e-04 
S-sub-bulk = 4.430520e-03
S-sub-base = 6.202669e-06
S-o2-bulk = 1.000000e-02
S-o2-base = 8.953588e-03

     917    2408.6897    25000        2e-12 0.00050009292 
number of iterations: 1 
height = 5.000921e-04 
S-sub-bulk = 4.430520e-03
S-sub-base = 6.202660e-06
S-o2-bulk = 1.000000e-02
S-o2-base = 8.953589e-03

     918    2408.6983    25000        2e-12 0.00050009212 
number of iterations: 1 
height = 5.000931e-04 
S-sub-bulk = 4.430520e-03
S-sub-base = 6.202651e-06
S-o2-bulk = 1.000000e-02
S-o2-base = 8.953589e-03

     919    2408.7069    25000        2e-12 0.00050009307 
number of iterations: 1 
height = 5.000924e-04 
S-sub-bulk = 4.430520e-03
S-sub-base = 6.202642e-06
S-o2-bulk = 1.000000e-02
S-o2-base = 8.953590e-03

     920    2408.7155    25000        2e-12 0.00050009235 
number of iterations: 1 
height = 5.000932e-04 
S-sub-bulk = 4.430520e-03
S-sub-base = 6.202633e-06
S-o2-bulk = 1.000000e-02
S-o2-base = 8.953590e-03

     921    2408.7241    25000        2e-12 0.00050009323 
number of iterations: 1 
height = 5.000925e-04 
S-sub-bulk = 4.430520e-03
S-sub-base = 6.202623e-06
S-o2-bulk = 1.000000e-02
S-o2-base = 8.953591e-03

     922    2408.7328    25000        2e-12 0.00050009251 
number of iterations: 1 
height = 5.000933e-04 
S-sub-bulk = 4.430520e-03
S-sub-base = 6.202614e-06
S-o2-bulk = 1.000000e-02
S-o2-base = 8.953591e-03

     923    2408.7414    25000        2e-12 0.00050009331 
number of iterations: 1 
height = 5.000925e-04 
S-sub-bulk = 4.430520e-03
S-sub-base = 6.202605e-06
S-o2-bulk = 1.000000e-02
S-o2-base = 8.953592e-03

     924      2408.75    25000        2e-12 0.00050009253 
number of iterations: 1 
height = 5.000934e-04 
S-sub-bulk = 4.430521e-03
S-sub-base = 6.202596e-06
S-o2-bulk = 1.000000e-02
S-o2-base = 8.953592e-03

     925    2408.7586    25000        2e-12 0.00050009341 
number of iterations: 1 
height = 5.000926e-04 
S-sub-bulk = 4.430521e-03
S-sub-base = 6.202586e-06
S-o2-bulk = 1.000000e-02
S-o2-base = 8.953593e-03

     926    2408.7672    25000        2e-12 0.00050009259 
number of iterations: 1 
height = 5.000936e-04 
S-sub-bulk = 4.430521e-03
S-sub-base = 6.202577e-06
S-o2-bulk = 1.000000e-02
S-o2-base = 8.953593e-03

     927    2408.7758    25000        2e-12 0.00050009355 
number of iterations: 1 
height = 5.000926e-04 
S-sub-bulk = 4.430521e-03
S-sub-base = 6.202568e-06
S-o2-bulk = 1.000000e-02
S-o2-base = 8.953594e-03

     928    2408.7845    25000        2e-12 0.00050009263 
number of iterations: 1 
height = 5.000936e-04 
S-sub-bulk = 4.430521e-03
S-sub-base = 6.202559e-06
S-o2-bulk = 1.000000e-02
S-o2-base = 8.953594e-03

     929    2408.7931    25000        2e-12 0.00050009356 
number of iterations: 1 
height = 5.000927e-04 
S-sub-bulk = 4.430521e-03
S-sub-base = 6.202550e-06
S-o2-bulk = 1.000000e-02
S-o2-base = 8.953595e-03

     930    2408.8017    25000        2e-12 0.00050009266 
number of iterations: 1 
height = 5.000936e-04 
S-sub-bulk = 4.430521e-03
S-sub-base = 6.202540e-06
S-o2-bulk = 1.000000e-02
S-o2-base = 8.953595e-03

     931    2408.8102    25000        2e-12 0.00050009363 
number of iterations: 1 
height = 5.000927e-04 
S-sub-bulk = 4.430521e-03
S-sub-base = 6.202531e-06
S-o2-bulk = 1.000000e-02
S-o2-base = 8.953596e-03

     932    2408.8188    25000        2e-12 0.00050009271 
number of iterations: 1 
height = 5.000937e-04 
S-sub-bulk = 4.430521e-03
S-sub-base = 6.202522e-06
S-o2-bulk = 1.000000e-02
S-o2-base = 8.953596e-03

     933    2408.8274    25000        2e-12 0.00050009372 
number of iterations: 1 
height = 5.000927e-04 
S-sub-bulk = 4.430522e-03
S-sub-base = 6.202513e-06
S-o2-bulk = 1.000000e-02
S-o2-base = 8.953597e-03

     934    2408.8361    25000        2e-12 0.00050009274 
number of iterations: 1 
height = 5.000937e-04 
S-sub-bulk = 4.430522e-03
S-sub-base = 6.202504e-06
S-o2-bulk = 1.000000e-02
S-o2-base = 8.953597e-03

     935    2408.8446    25000        2e-12 0.00050009372 
number of iterations: 1 
height = 5.000928e-04 
S-sub-bulk = 4.430522e-03
S-sub-base = 6.202494e-06
S-o2-bulk = 1.000000e-02
S-o2-base = 8.953598e-03

     936    2408.8532    25000        2e-12 0.00050009276 
number of iterations: 1 
height = 5.000938e-04 
S-sub-bulk = 4.430522e-03
S-sub-base = 6.202485e-06
S-o2-bulk = 1.000000e-02
S-o2-base = 8.953598e-03

     937    2408.8617    25000        2e-12 0.00050009379 
number of iterations: 1 
height = 5.000929e-04 
S-sub-bulk = 4.430522e-03
S-sub-base = 6.202476e-06
S-o2-bulk = 1.000000e-02
S-o2-base = 8.953599e-03

     938    2408.8703    25000        2e-12 0.0005000929 
number of iterations: 1 
height = 5.000938e-04 
S-sub-bulk = 4.430522e-03
S-sub-base = 6.202467e-06
S-o2-bulk = 1.000000e-02
S-o2-base = 8.953599e-03

     939    2408.8789    25000        2e-12 0.0005000938 
number of iterations: 1 
height = 5.000929e-04 
S-sub-bulk = 4.430522e-03
S-sub-base = 6.202458e-06
S-o2-bulk = 1.000000e-02
S-o2-base = 8.953600e-03

     940    2408.8874    25000        2e-12 0.00050009291 
number of iterations: 1 
height = 5.000938e-04 
S-sub-bulk = 4.430522e-03
S-sub-base = 6.202448e-06
S-o2-bulk = 1.000000e-02
S-o2-base = 8.953600e-03

     941     2408.896    25000        2e-12 0.0005000938 
number of iterations: 1 
height = 5.000930e-04 
S-sub-bulk = 4.430523e-03
S-sub-base = 6.202439e-06
S-o2-bulk = 1.000000e-02
S-o2-base = 8.953601e-03

     942    2408.9045    25000        2e-12 0.00050009298 
number of iterations: 1 
height = 5.000939e-04 
S-sub-bulk = 4.430523e-03
S-sub-base = 6.202430e-06
S-o2-bulk = 1.000000e-02
S-o2-base = 8.953601e-03

     943    2408.9131    25000        2e-12 0.00050009388 
number of iterations: 1 
height = 5.000930e-04 
S-sub-bulk = 4.430523e-03
S-sub-base = 6.202421e-06
S-o2-bulk = 1.000000e-02
S-o2-base = 8.953602e-03

     944    2408.9216    25000        2e-12 0.00050009298 
number of iterations: 1 
height = 5.000940e-04 
S-sub-bulk = 4.430523e-03
S-sub-base = 6.202412e-06
S-o2-bulk = 1.000000e-02
S-o2-base = 8.953602e-03

     945    2408.9302    25000        2e-12 0.00050009401 
number of iterations: 1 
height = 5.000933e-04 
S-sub-bulk = 4.430523e-03
S-sub-base = 6.202402e-06
S-o2-bulk = 1.000000e-02
S-o2-base = 8.953603e-03

     946    2408.9387    25000        2e-12 0.00050009326 
number of iterations: 1 
height = 5.000943e-04 
S-sub-bulk = 4.430523e-03
S-sub-base = 6.202393e-06
S-o2-bulk = 1.000000e-02
S-o2-base = 8.953603e-03

     947    2408.9472    25000        2e-12 0.00050009431 
number of iterations: 1 
height = 5.000933e-04 
S-sub-bulk = 4.430523e-03
S-sub-base = 6.202384e-06
S-o2-bulk = 1.000000e-02
S-o2-base = 8.953604e-03

     948    2408.9558    25000        2e-12 0.00050009329 
number of iterations: 1 
height = 5.000945e-04 
S-sub-bulk = 4.430523e-03
S-sub-base = 6.202375e-06
S-o2-bulk = 1.000000e-02
S-o2-base = 8.953604e-03

     949    2408.9643    25000        2e-12 0.00050009449 
number of iterations: 1 
height = 5.000934e-04 
S-sub-bulk = 4.430523e-03
S-sub-base = 6.202366e-06
S-o2-bulk = 1.000000e-02
S-o2-base = 8.953605e-03

     950    2408.9729    25000        2e-12 0.00050009338 
number of iterations: 1 
height = 5.000944e-04 
S-sub-bulk = 4.430524e-03
S-sub-base = 6.202356e-06
S-o2-bulk = 1.000000e-02
S-o2-base = 8.953605e-03

     951    2408.9814    25000        2e-12 0.00050009441 
number of iterations: 1 
height = 5.000933e-04 
S-sub-bulk = 4.430524e-03
S-sub-base = 6.202347e-06
S-o2-bulk = 1.000000e-02
S-o2-base = 8.953606e-03

     952    2408.9899    25000        2e-12 0.00050009335 
number of iterations: 1 
height = 5.000944e-04 
S-sub-bulk = 4.430524e-03
S-sub-base = 6.202338e-06
S-o2-bulk = 1.000000e-02
S-o2-base = 8.953606e-03

     953    2408.9985    25000        2e-12 0.00050009445 
number of iterations: 1 
height = 5.000934e-04 
S-sub-bulk = 4.430524e-03
S-sub-base = 6.202329e-06
S-o2-bulk = 1.000000e-02
S-o2-base = 8.953607e-03

     954     2409.007    25000        2e-12 0.00050009343 
number of iterations: 1 
height = 5.000945e-04 
S-sub-bulk = 4.430524e-03
S-sub-base = 6.202320e-06
S-o2-bulk = 1.000000e-02
S-o2-base = 8.953607e-03

     955    2409.0156    25000        2e-12 0.00050009453 
number of iterations: 1 
height = 5.000936e-04 
S-sub-bulk = 4.430524e-03
S-sub-base = 6.202310e-06
S-o2-bulk = 1.000000e-02
S-o2-base = 8.953608e-03

     956    2409.0241    25000        2e-12 0.00050009364 
number of iterations: 1 
height = 5.000946e-04 
S-sub-bulk = 4.430524e-03
S-sub-base = 6.202301e-06
S-o2-bulk = 1.000000e-02
S-o2-base = 8.953608e-03

     957    2409.0326    25000        2e-12 0.00050009463 
number of iterations: 1 
height = 5.000936e-04 
S-sub-bulk = 4.430524e-03
S-sub-base = 6.202292e-06
S-o2-bulk = 1.000000e-02
S-o2-base = 8.953609e-03

     958    2409.0412    25000        2e-12 0.00050009364 
number of iterations: 1 
height = 5.000946e-04 
S-sub-bulk = 4.430524e-03
S-sub-base = 6.202283e-06
S-o2-bulk = 1.000000e-02
S-o2-base = 8.953609e-03

     959    2409.0497    25000        2e-12 0.00050009462 
number of iterations: 1 
height = 5.000937e-04 
S-sub-bulk = 4.430525e-03
S-sub-base = 6.202274e-06
S-o2-bulk = 1.000000e-02
S-o2-base = 8.953610e-03

     960    2409.0583    25000        2e-12 0.00050009374 
number of iterations: 1 
height = 5.000946e-04 
S-sub-bulk = 4.430525e-03
S-sub-base = 6.202264e-06
S-o2-bulk = 1.000000e-02
S-o2-base = 8.953610e-03

     961    2409.0668    25000        2e-12 0.00050009465 
number of iterations: 1 
height = 5.000938e-04 
S-sub-bulk = 4.430525e-03
S-sub-base = 6.202255e-06
S-o2-bulk = 1.000000e-02
S-o2-base = 8.953611e-03

     962    2409.0753    25000        2e-12 0.00050009384 
number of iterations: 1 
height = 5.000948e-04 
S-sub-bulk = 4.430525e-03
S-sub-base = 6.202246e-06
S-o2-bulk = 1.000000e-02
S-o2-base = 8.953611e-03

     963    2409.0839    25000        2e-12 0.00050009477 
number of iterations: 1 
height = 5.000939e-04 
S-sub-bulk = 4.430525e-03
S-sub-base = 6.202237e-06
S-o2-bulk = 1.000000e-02
S-o2-base = 8.953612e-03

     964    2409.0924    25000        2e-12 0.00050009391 
number of iterations: 1 
height = 5.000947e-04 
S-sub-bulk = 4.430525e-03
S-sub-base = 6.202228e-06
S-o2-bulk = 1.000000e-02
S-o2-base = 8.953612e-03

     965     2409.101    25000        2e-12 0.00050009469 
number of iterations: 1 
height = 5.000940e-04 
S-sub-bulk = 4.430525e-03
S-sub-base = 6.202218e-06
S-o2-bulk = 1.000000e-02
S-o2-base = 8.953613e-03

     966    2409.1095    25000        2e-12  0.000500094 
number of iterations: 1 
height = 5.000947e-04 
S-sub-bulk = 4.430525e-03
S-sub-base = 6.202209e-06
S-o2-bulk = 1.000000e-02
S-o2-base = 8.953613e-03

     967     2409.118    25000        2e-12 0.00050009474 
number of iterations: 1 
height = 5.000941e-04 
S-sub-bulk = 4.430526e-03
S-sub-base = 6.202200e-06
S-o2-bulk = 1.000000e-02
S-o2-base = 8.953614e-03

     968    2409.1265    25000        2e-12 0.00050009407 
number of iterations: 1 
height = 5.000949e-04 
S-sub-bulk = 4.430526e-03
S-sub-base = 6.202191e-06
S-o2-bulk = 1.000000e-02
S-o2-base = 8.953614e-03

     969    2409.1351    25000        2e-12 0.00050009486 
number of iterations: 1 
height = 5.000942e-04 
S-sub-bulk = 4.430526e-03
S-sub-base = 6.202182e-06
S-o2-bulk = 1.000000e-02
S-o2-base = 8.953615e-03

     970    2409.1436    25000        2e-12 0.00050009419 
number of iterations: 1 
height = 5.000949e-04 
S-sub-bulk = 4.430526e-03
S-sub-base = 6.202172e-06
S-o2-bulk = 1.000000e-02
S-o2-base = 8.953615e-03

     971    2409.1521    25000        2e-12 0.00050009494 
number of iterations: 1 
height = 5.000942e-04 
S-sub-bulk = 4.430526e-03
S-sub-base = 6.202163e-06
S-o2-bulk = 1.000000e-02
S-o2-base = 8.953616e-03

     972    2409.1606    25000        2e-12 0.00050009418 
number of iterations: 1 
height = 5.000949e-04 
S-sub-bulk = 4.430526e-03
S-sub-base = 6.202154e-06
S-o2-bulk = 1.000000e-02
S-o2-base = 8.953616e-03

     973    2409.1691    25000        2e-12 0.00050009485 
number of iterations: 1 
height = 5.000942e-04 
S-sub-bulk = 4.430526e-03
S-sub-base = 6.202145e-06
S-o2-bulk = 1.000000e-02
S-o2-base = 8.953617e-03

     974    2409.1777    25000        2e-12 0.00050009423 
number of iterations: 1 
height = 5.000950e-04 
S-sub-bulk = 4.430526e-03
S-sub-base = 6.202136e-06
S-o2-bulk = 1.000000e-02
S-o2-base = 8.953617e-03

     975    2409.1861    25000        2e-12  0.000500095 
number of iterations: 1 
height = 5.000944e-04 
S-sub-bulk = 4.430526e-03
S-sub-base = 6.202126e-06
S-o2-bulk = 1.000000e-02
S-o2-base = 8.953618e-03

     976    2409.1947    25000        2e-12 0.00050009445 
number of iterations: 1 
height = 5.000949e-04 
S-sub-bulk = 4.430527e-03
S-sub-base = 6.202117e-06
S-o2-bulk = 1.000000e-02
S-o2-base = 8.953618e-03

     977    2409.2031    25000        2e-12 0.00050009491 
number of iterations: 1 
height = 5.000945e-04 
S-sub-bulk = 4.430527e-03
S-sub-base = 6.202108e-06
S-o2-bulk = 1.000000e-02
S-o2-base = 8.953619e-03

     978    2409.2117    25000        2e-12 0.00050009449 
number of iterations: 1 
height = 5.000950e-04 
S-sub-bulk = 4.430527e-03
S-sub-base = 6.202099e-06
S-o2-bulk = 1.000000e-02
S-o2-base = 8.953619e-03

     979    2409.2202    25000        2e-12 0.00050009496 
number of iterations: 1 
height = 5.000947e-04 
S-sub-bulk = 4.430527e-03
S-sub-base = 6.202090e-06
S-o2-bulk = 1.000000e-02
S-o2-base = 8.953620e-03

     980    2409.2287    25000        2e-12 0.00050009466 
number of iterations: 1 
height = 5.000950e-04 
S-sub-bulk = 4.430527e-03
S-sub-base = 6.202080e-06
S-o2-bulk = 1.000000e-02
S-o2-base = 8.953620e-03

     981    2409.2372    25000        2e-12 0.00050009502 
number of iterations: 1 
height = 5.000947e-04 
S-sub-bulk = 4.430527e-03
S-sub-base = 6.202071e-06
S-o2-bulk = 1.000000e-02
S-o2-base = 8.953621e-03

     982    2409.2457    25000        2e-12 0.00050009466 
number of iterations: 1 
height = 5.000952e-04 
S-sub-bulk = 4.430527e-03
S-sub-base = 6.202062e-06
S-o2-bulk = 1.000000e-02
S-o2-base = 8.953621e-03

     983    2409.2543    25000        2e-12 0.00050009525 
number of iterations: 1 
height = 5.000948e-04 
S-sub-bulk = 4.430527e-03
S-sub-base = 6.202053e-06
S-o2-bulk = 1.000000e-02
S-o2-base = 8.953622e-03

     984    2409.2628    25000        2e-12 0.00050009479 
number of iterations: 1 
height = 5.000955e-04 
S-sub-bulk = 4.430527e-03
S-sub-base = 6.202044e-06
S-o2-bulk = 1.000000e-02
S-o2-base = 8.953622e-03

     985    2409.2713    25000        2e-12 0.00050009554 
number of iterations: 1 
height = 5.000946e-04 
S-sub-bulk = 4.430528e-03
S-sub-base = 6.202035e-06
S-o2-bulk = 1.000000e-02
S-o2-base = 8.953623e-03

     986    2409.2798    25000        2e-12 0.00050009463 
number of iterations: 1 
height = 5.000957e-04 
S-sub-bulk = 4.430528e-03
S-sub-base = 6.202025e-06
S-o2-bulk = 1.000000e-02
S-o2-base = 8.953623e-03

     987    2409.2883    25000        2e-12 0.00050009567 
number of iterations: 1 
height = 5.000948e-04 
S-sub-bulk = 4.430528e-03
S-sub-base = 6.202016e-06
S-o2-bulk = 1.000000e-02
S-o2-base = 8.953624e-03

     988    2409.2968    25000        2e-12 0.0005000948 
number of iterations: 1 
height = 5.000957e-04 
S-sub-bulk = 4.430528e-03
S-sub-base = 6.202007e-06
S-o2-bulk = 1.000000e-02
S-o2-base = 8.953624e-03

     989    2409.3054    25000        2e-12 0.00050009575 
number of iterations: 1 
height = 5.000948e-04 
S-sub-bulk = 4.430528e-03
S-sub-base = 6.201998e-06
S-o2-bulk = 1.000000e-02
S-o2-base = 8.953625e-03

     990    2409.3139    25000        2e-12 0.00050009484 
number of iterations: 1 
height = 5.000958e-04 
S-sub-bulk = 4.430528e-03
S-sub-base = 6.201989e-06
S-o2-bulk = 1.000000e-02
S-o2-base = 8.953625e-03

     991    2409.3224    25000        2e-12 0.00050009579 
number of iterations: 1 
height = 5.000949e-04 
S-sub-bulk = 4.430528e-03
S-sub-base = 6.201979e-06
S-o2-bulk = 1.000000e-02
S-o2-base = 8.953626e-03

     992    2409.3309    25000        2e-12 0.00050009494 
number of iterations: 1 
height = 5.000958e-04 
S-sub-bulk = 4.430528e-03
S-sub-base = 6.201970e-06
S-o2-bulk = 1.000000e-02
S-o2-base = 8.953626e-03

     993    2409.3395    25000        2e-12 0.00050009584 
number of iterations: 1 
height = 5.000950e-04 
S-sub-bulk = 4.430529e-03
S-sub-base = 6.201961e-06
S-o2-bulk = 1.000000e-02
S-o2-base = 8.953627e-03

     994    2409.3481    25000        2e-12 0.00050009499 
number of iterations: 1 
height = 5.000959e-04 
S-sub-bulk = 4.430529e-03
S-sub-base = 6.201952e-06
S-o2-bulk = 1.000000e-02
S-o2-base = 8.953627e-03

     995    2409.3566    25000        2e-12 0.00050009591 
number of iterations: 1 
height = 5.000950e-04 
S-sub-bulk = 4.430529e-03
S-sub-base = 6.201943e-06
S-o2-bulk = 1.000000e-02
S-o2-base = 8.953628e-03

     996    2409.3651    25000        2e-12 0.00050009503 
number of iterations: 1 
height = 5.000959e-04 
S-sub-bulk = 4.430529e-03
S-sub-base = 6.201933e-06
S-o2-bulk = 1.000000e-02
S-o2-base = 8.953628e-03

     997    2409.3736    25000        2e-12 0.00050009593 
number of iterations: 1 
height = 5.000951e-04 
S-sub-bulk = 4.430529e-03
S-sub-base = 6.201924e-06
S-o2-bulk = 1.000000e-02
S-o2-base = 8.953629e-03

     998    2409.3821    25000        2e-12 0.00050009505 
number of iterations: 1 
height = 5.000960e-04 
S-sub-bulk = 4.430529e-03
S-sub-base = 6.201915e-06
S-o2-bulk = 1.000000e-02
S-o2-base = 8.953629e-03

     999    2409.3907    25000        2e-12 0.00050009599 
number of iterations: 1 
height = 5.000951e-04 
S-sub-bulk = 4.430529e-03
S-sub-base = 6.201906e-06
S-o2-bulk = 1.000000e-02
S-o2-base = 8.953630e-03

    1000    2409.3992    25000        2e-12 0.00050009513 
Loop time of 2409.4 on 4 procs for 1000 steps with 25000 atoms

99.9% CPU use with 4 MPI tasks x no OpenMP threads

MPI task timing breakdown:
Section |  min time  |  avg time  |  max time  |%varavg| %total
---------------------------------------------------------------
Pair    | 0.39727    | 1.5038     | 2.1892     |  58.4 |  0.06
Neigh   | 0.0011721  | 0.0037272  | 0.0053208  |   2.8 |  0.00
Comm    | 0.28885    | 0.29259    | 0.29469    |   0.4 |  0.01
Output  | 0.1981     | 0.20204    | 0.21152    |   1.2 |  0.01
Modify  | 2406.6     | 2407.3     | 2408.3     |   1.4 | 99.91
Other   |            | 0.147      |            |       |  0.01

Nlocal:    6250 ave 7500 max 2500 min
Histogram: 1 0 0 0 0 0 0 0 0 3
Nghost:    2966 ave 3588 max 1244 min
Histogram: 1 0 0 0 0 0 0 0 0 3
Neighs:    20050 ave 24100 max 8000 min
Histogram: 1 0 0 0 0 0 0 0 0 3

Total # of neighbors = 80200
Ave neighs/atom = 3.208
Neighbor list builds = 1
Dangerous builds = 0
Total wall time: 0:40:09
