ITEM: TIMESTEP
0
ITEM: NUMBER OF ATOMS
5
ITEM: BOX BOUNDS ff ff ff
0 0.0001
0 0.0001
0 0.0001
ITEM: ATOMS id type diameter x y z vx vy vz fx fy fz 
2 2 1.2839e-06 5e-05 4.9e-05 2e-06 0 0 0 -7.678e-05 0 0 
5 5 1.4839e-06 5.1e-05 4.9e-05 2e-06 0 0 0 7.678e-05 -5.122e-05 0 
4 4 1.0539e-06 4.9e-05 5e-05 2e-06 0 0 0 0 0 0 
3 3 1.0283e-06 5.1e-05 5e-05 2e-06 0 0 0 0 5.122e-05 0 
1 1 1.0839e-06 5e-05 5.1e-05 2e-06 0 0 0 0 0 0 
ITEM: TIMESTEP
500
ITEM: NUMBER OF ATOMS
6
ITEM: BOX BOUNDS ff ff ff
0 0.0001
0 0.0001
0 0.0001
ITEM: ATOMS id type diameter x y z vx vy vz fx fy fz 
2 2 1.35581e-06 5.21338e-05 4.5124e-05 2e-06 5.40667e-10 -8.41236e-10 0 0 0 0 
5 5 1.4839e-06 5.59698e-05 4.86127e-05 2e-06 9.97953e-10 -6.39515e-11 0 0 0 0 
4 4 1.05045e-06 4.64967e-05 5.38949e-05 2e-06 -5.40667e-10 8.41236e-10 0 0 0 0 
3 3 1.07736e-06 5.08477e-05 5.04481e-05 1.99183e-06 8.65406e-10 -5.00132e-10 3.06728e-11 1.45849e-06 -8.42886e-07 5.16937e-08 
1 1 1.22057e-06 4.98607e-05 5.10186e-05 1.95684e-06 -6.62072e-10 -4.93503e-10 -5.64017e-10 -1.55099e-06 -1.1561e-06 -1.32128e-06 
6 4 9.07185e-07 4.99018e-05 5.19059e-05 2.52044e-06 3.90305e-11 8.43494e-10 5.35719e-10 9.24978e-08 1.99898e-06 1.26959e-06 
ITEM: TIMESTEP
1000
ITEM: NUMBER OF ATOMS
8
ITEM: BOX BOUNDS ff ff ff
0 0.0001
0 0.0001
0 0.0001
ITEM: ATOMS id type diameter x y z vx vy vz fx fy fz 
2 2 1.16911e-06 5.30773e-05 4.22681e-05 1.50373e-06 -6.2972e-11 6.65347e-10 7.43873e-10 0 0 0 
5 5 1.4839e-06 6.09596e-05 4.82929e-05 2e-06 9.97953e-10 -6.39515e-11 0 0 0 0 
4 4 1.04701e-06 4.37934e-05 5.81011e-05 2e-06 -5.40667e-10 8.41236e-10 0 0 0 0 
3 3 1.12876e-06 5.08405e-05 5.04337e-05 1.98504e-06 9.04684e-10 -4.23728e-10 4.4726e-11 1.40702e-06 -6.59008e-07 6.95605e-08 
1 1 1.37448e-06 4.97152e-05 5.09608e-05 1.92941e-06 -2.98533e-10 -9.41894e-10 1.53996e-10 -7.33305e-07 -2.31363e-06 3.7827e-07 
6 4 9.04215e-07 4.98924e-05 5.19058e-05 2.52195e-06 1.56865e-10 8.36743e-10 5.24648e-10 3.12244e-07 1.66556e-06 1.04432e-06 
7 2 1.10166e-06 5.25911e-05 4.74049e-05 4.03485e-06 -8.16025e-11 8.62192e-10 4.99966e-10 0 0 0 
8 4 9.86742e-07 4.91946e-05 5.16509e-05 1.14162e-06 -4.45088e-10 5.90053e-10 -6.73598e-10 -9.85959e-07 1.30709e-06 -1.49216e-06 
ITEM: TIMESTEP
1500
ITEM: NUMBER OF ATOMS
9
ITEM: BOX BOUNDS ff ff ff
0 0.0001
0 0.0001
0 0.0001
ITEM: ATOMS id type diameter x y z vx vy vz fx fy fz 
8 4 9.83512e-07 4.90818e-05 5.17888e-05 9.47913e-07 5.46976e-10 -1.93022e-10 8.14592e-10 1.63233e-13 -5.76033e-14 2.43097e-13 
2 2 1.23459e-06 5.27624e-05 4.55949e-05 5.2231e-06 -6.2972e-11 6.65347e-10 7.43873e-10 0 0 0 
3 3 1.18261e-06 5.08994e-05 5.04087e-05 1.97835e-06 9.22214e-10 -6.54234e-11 -3.81106e-10 9.57642e-07 -6.79367e-08 -3.95746e-07 
9 1 1.23546e-06 4.96973e-05 5.15716e-05 1.86455e-06 -1.33878e-10 -9.68434e-10 2.10266e-10 -9.54179e-14 -6.90226e-13 1.49862e-13 
5 5 1.4839e-06 6.59493e-05 4.79732e-05 2e-06 9.97953e-10 -6.39515e-11 0 0 0 0 
1 1 1.22143e-06 4.97957e-05 5.0487e-05 2.43447e-06 -9.22214e-10 6.54241e-11 3.81105e-10 -9.57642e-07 6.79375e-08 3.95746e-07 
4 4 1.04358e-06 4.109e-05 6.23073e-05 2e-06 -5.40667e-10 8.41236e-10 0 0 0 0 
6 4 9.01254e-07 5.06767e-05 5.60895e-05 5.14519e-06 1.56865e-10 8.36743e-10 5.24648e-10 0 0 0 
7 2 1.16337e-06 5.21831e-05 5.17158e-05 6.53468e-06 -8.16025e-11 8.62192e-10 4.99966e-10 0 0 0 
ITEM: TIMESTEP
2000
ITEM: NUMBER OF ATOMS
11
ITEM: BOX BOUNDS ff ff ff
0 0.0001
0 0.0001
0 0.0001
ITEM: ATOMS id type diameter x y z vx vy vz fx fy fz 
8 4 9.80292e-07 4.93753e-05 5.17319e-05 1.37282e-06 -5.24051e-10 3.65857e-11 -8.50901e-10 -2.89084e-07 2.01819e-08 -4.69385e-07 
2 2 1.30375e-06 5.24475e-05 4.89216e-05 8.94247e-06 -6.2972e-11 6.65347e-10 7.43873e-10 0 0 0 
3 3 1.23903e-06 5.47043e-05 5.05566e-05 2.71998e-06 9.82781e-10 3.69781e-11 1.81039e-10 0 0 0 
9 1 1.39125e-06 4.99952e-05 5.16887e-05 2.37944e-06 4.51523e-10 8.7378e-10 1.80654e-10 1.58854e-06 3.07412e-06 6.35575e-07 
5 5 1.4839e-06 7.09391e-05 4.76534e-05 2e-06 9.97953e-10 -6.39515e-11 0 0 0 0 
1 1 1.37545e-06 4.9111e-05 5.07176e-05 2.78443e-06 -8.46935e-10 -2.41525e-10 4.73674e-10 -2.94134e-06 -8.38798e-07 1.64504e-06 
4 4 1.04017e-06 3.83867e-05 6.65135e-05 2e-06 -5.40667e-10 8.41236e-10 0 0 0 0 
6 4 8.98304e-07 5.1461e-05 6.02732e-05 7.76842e-06 1.56865e-10 8.36743e-10 5.24648e-10 0 0 0 
7 2 1.22853e-06 5.17751e-05 5.60268e-05 9.03451e-06 -8.16025e-11 8.62192e-10 4.99966e-10 0 0 0 
10 4 9.55967e-07 4.9915e-05 5.06053e-05 1.96167e-06 3.9178e-10 -6.34926e-10 -6.65866e-10 1.23812e-06 -2.00652e-06 -2.1043e-06 
11 4 9.48775e-07 4.99505e-05 5.02e-05 3.39378e-06 7.24121e-10 -4.46523e-10 5.25611e-10 4.03765e-07 -2.48978e-07 2.93077e-07 
ITEM: TIMESTEP
2500
ITEM: NUMBER OF ATOMS
15
ITEM: BOX BOUNDS ff ff ff
0 0.0001
0 0.0001
0 0.0001
ITEM: ATOMS id type diameter x y z vx vy vz fx fy fz 
8 4 9.77082e-07 4.97728e-05 5.14811e-05 1.75311e-06 7.7771e-11 -1.90788e-10 9.78546e-10 8.16852e-15 -2.0039e-14 1.02779e-13 
10 4 9.52838e-07 4.9723e-05 5.05273e-05 1.93365e-06 9.53012e-10 -2.24584e-11 -3.02099e-10 1.29059e-06 -3.04136e-08 -4.09109e-07 
5 5 1.4839e-06 7.59289e-05 4.73336e-05 2e-06 9.97953e-10 -6.39515e-11 0 0 0 0 
1 1 1.27248e-06 4.86691e-05 5.05521e-05 2.26774e-06 -5.63196e-10 -6.02096e-10 -5.65942e-10 -2.18497e-06 -2.33589e-06 -2.19562e-06 
12 1 1.19193e-06 4.98574e-05 5.12736e-05 2.81776e-06 5.36521e-10 6.22286e-10 -5.70005e-10 1.45748e-06 1.69047e-06 -1.54844e-06 
9 1 1.29106e-06 5.184e-05 5.607e-05 3.04532e-06 -3.07682e-11 9.3229e-12 -9.99483e-10 -5.21882e-15 1.58133e-15 -1.6953e-13 
4 4 1.03676e-06 3.56834e-05 7.07197e-05 2e-06 -5.40667e-10 8.41236e-10 0 0 0 0 
3 3 1.29814e-06 5.96182e-05 5.07415e-05 3.62517e-06 9.82781e-10 3.69781e-11 1.81039e-10 0 0 0 
11 4 9.45669e-07 4.98249e-05 5.03614e-05 3.36116e-06 4.44043e-10 -8.385e-10 3.15823e-10 8.75156e-07 -1.65258e-06 6.22449e-07 
13 1 1.18297e-06 4.891e-05 5.08929e-05 3.40645e-06 -4.14209e-10 1.91254e-10 8.89861e-10 -1.73849e-06 8.02721e-07 3.73488e-06 
6 4 8.95363e-07 5.22453e-05 6.44569e-05 1.03917e-05 1.56865e-10 8.36743e-10 5.24648e-10 0 0 0 
2 2 1.37677e-06 5.21327e-05 5.22483e-05 1.26618e-05 -6.2972e-11 6.65347e-10 7.43873e-10 0 0 0 
7 2 1.29735e-06 5.13671e-05 6.03378e-05 1.15343e-05 -8.16025e-11 8.62192e-10 4.99966e-10 0 0 0 
14 4 9.60022e-07 4.88813e-05 5.16304e-05 2.12345e-06 1.9144e-10 9.72834e-10 -1.30174e-10 3.00235e-07 1.5257e-06 -2.04152e-07 
15 4 9.39405e-07 5.18054e-05 5.60804e-05 1.92202e-06 3.07682e-11 -9.3229e-12 9.99483e-10 5.21882e-15 -1.58133e-15 1.6953e-13 
ITEM: TIMESTEP
3000
ITEM: NUMBER OF ATOMS
20
ITEM: BOX BOUNDS ff ff ff
0 0.0001
0 0.0001
0 0.0001
ITEM: ATOMS id type diameter x y z vx vy vz fx fy fz 
8 4 9.73884e-07 4.98793e-05 5.18658e-05 2.41601e-06 3.1159e-10 8.9163e-10 -3.28493e-10 5.85134e-07 1.67439e-06 -6.16875e-07 
10 4 9.49718e-07 4.87262e-05 5.04261e-05 1.91188e-06 -9.87266e-10 1.48421e-10 5.72377e-11 -1.2206e-13 1.835e-14 7.07655e-15 
5 5 1.4839e-06 8.09186e-05 4.70139e-05 2e-06 9.97953e-10 -6.39515e-11 0 0 0 0 
1 1 1.18497e-06 4.77553e-05 5.07222e-05 3.11105e-06 9.99965e-10 6.7646e-12 -4.84901e-12 4.97893e-13 3.36816e-15 -2.41437e-15 
12 1 1.34223e-06 4.98193e-05 5.17355e-05 3.57285e-06 -7.12187e-10 -6.51834e-10 -2.6058e-10 -8.48563e-13 -7.76654e-13 -3.10478e-13 
9 1 1.07562e-06 5.18961e-05 5.66312e-05 2.91654e-06 1.07053e-10 9.94211e-10 9.22248e-12 3.97275e-07 3.68952e-06 3.42247e-08 
4 4 1.03337e-06 3.298e-05 7.49258e-05 2e-06 -5.40667e-10 8.41236e-10 0 0 0 0 
3 3 1.36007e-06 6.45321e-05 5.09264e-05 4.53036e-06 9.82781e-10 3.69781e-11 1.81039e-10 0 0 0 
11 4 9.42573e-07 4.95754e-05 5.06185e-05 3.56872e-06 -3.75216e-10 9.10493e-10 1.73827e-10 -1.80072e-13 4.36959e-13 8.34221e-14 
13 1 1.33213e-06 4.86346e-05 5.11912e-05 3.88737e-06 5.32211e-10 1.21528e-11 -8.46524e-10 5.82116e-13 1.32923e-14 -9.25902e-13 
6 4 8.92431e-07 5.30297e-05 6.86406e-05 1.30149e-05 1.56865e-10 8.36743e-10 5.24648e-10 0 0 0 
2 2 1.0807e-06 5.49126e-05 5.18179e-05 1.62519e-05 7.07367e-10 -3.45292e-10 6.1677e-10 0 0 0 
7 2 1.37001e-06 5.0959e-05 6.46487e-05 1.40342e-05 -8.16025e-11 8.62192e-10 4.99966e-10 0 0 0 
14 4 9.56879e-07 4.87129e-05 5.13803e-05 2.74204e-06 -6.72987e-11 -1.62485e-10 9.84413e-10 -1.87898e-14 -4.53657e-14 2.74848e-13 
15 4 9.36329e-07 5.18173e-05 5.61571e-05 2.0389e-06 -7.87542e-11 -4.73771e-10 -8.77119e-10 -8.47573e-08 -5.09885e-07 -9.43979e-07 
16 2 1.21893e-06 4.91219e-05 5.46446e-05 1.12029e-05 -7.07367e-10 3.45292e-10 -6.1677e-10 0 0 0 
17 4 1.1007e-06 4.82301e-05 4.97444e-05 2.75523e-06 -4.15077e-10 8.54945e-10 3.11095e-10 -8.86282e-14 1.8255e-13 6.64258e-14 
18 4 9.09964e-07 4.95887e-05 5.10343e-05 2.72234e-06 -3.1159e-10 -8.9163e-10 3.28493e-10 -5.85134e-07 -1.67439e-06 6.16875e-07 
19 1 1.0853e-06 4.77112e-05 5.05787e-05 1.97073e-06 4.06129e-10 6.18183e-11 9.11722e-10 1.33989e-13 2.03949e-14 3.00792e-13 
20 1 1.22283e-06 5.17896e-05 5.55471e-05 3.22672e-06 -9.40762e-11 -9.57157e-10 2.73861e-10 -3.12517e-07 -3.17964e-06 9.09754e-07 
ITEM: TIMESTEP
3500
ITEM: NUMBER OF ATOMS
28
ITEM: BOX BOUNDS ff ff ff
0 0.0001
0 0.0001
0 0.0001
ITEM: ATOMS id type diameter x y z vx vy vz fx fy fz 
10 4 9.46609e-07 4.80764e-05 5.05583e-05 2.0096e-06 9.54548e-10 -1.84547e-10 -2.34051e-10 5.52574e-07 -1.06832e-07 -1.35489e-07 
19 1 1.22215e-06 4.70441e-05 5.07579e-05 2.26272e-06 -3.82748e-10 6.8762e-11 -9.2129e-10 -1.37373e-06 2.46796e-07 -3.30663e-06 
5 5 1.4839e-06 8.59084e-05 4.66941e-05 2e-06 9.97953e-10 -6.39515e-11 0 0 0 0 
8 4 9.70695e-07 5.08962e-05 5.46679e-05 1.79403e-06 3.30583e-10 8.98686e-10 -2.88232e-10 0 0 0 
15 4 9.33264e-07 5.18367e-05 5.62637e-05 2.20806e-06 1.06798e-10 4.56775e-10 8.83148e-10 1.08679e-14 4.6482e-14 8.98703e-14 
4 4 1.02998e-06 3.02767e-05 7.9132e-05 2e-06 -5.40667e-10 8.41236e-10 0 0 0 0 
17 4 1.09709e-06 4.78195e-05 5.02802e-05 2.96924e-06 8.04228e-10 -5.94298e-10 5.11428e-12 2.22849e-06 -1.64678e-06 1.41715e-08 
14 4 9.53746e-07 4.80804e-05 5.12129e-05 3.33871e-06 8.45571e-10 2.3579e-10 -4.78971e-10 2.54887e-06 7.1076e-07 -1.4438e-06 
18 4 9.06985e-07 4.97564e-05 5.2545e-05 4.85173e-07 -2.20869e-11 -1.84845e-10 9.8252e-10 0 0 0 
9 1 1.21125e-06 5.19521e-05 5.67576e-05 3.16307e-06 -3.34511e-10 -9.17603e-10 -2.14725e-10 -1.69494e-13 -4.6494e-13 -1.08799e-13 
1 1 1.33439e-06 4.69886e-05 5.09683e-05 3.50899e-06 -9.11079e-10 -4.2216e-11 4.10065e-10 -5.2622e-06 -2.43831e-07 2.36845e-06 
20 1 1.37703e-06 5.17653e-05 5.54736e-05 3.24474e-06 -1.74652e-10 9.62448e-10 -2.07824e-10 -9.48706e-14 5.22798e-13 -1.12889e-13 
11 4 9.39487e-07 4.95723e-05 5.06966e-05 3.79211e-06 2.84239e-10 8.87046e-10 3.6381e-10 1.07013e-13 3.33965e-13 1.36971e-13 
13 1 1.1145e-06 4.89901e-05 5.14655e-05 4.16141e-06 8.55393e-10 3.58278e-10 -3.74086e-10 4.8146e-13 2.01658e-13 -2.10555e-13 
12 1 1.21538e-06 5.01629e-05 5.15378e-05 4.1162e-06 -9.16786e-10 2.32908e-10 -3.24434e-10 -1.13167e-12 2.87498e-13 -4.00477e-13 
3 3 1.17019e-06 6.59702e-05 5.16263e-05 7.76598e-06 -3.49009e-10 1.999e-10 9.15551e-10 0 0 0 
16 2 1.2872e-06 4.5585e-05 5.6371e-05 8.11901e-06 -7.07367e-10 3.45292e-10 -6.1677e-10 0 0 0 
6 4 8.8951e-07 5.3814e-05 7.28244e-05 1.56381e-05 1.56865e-10 8.36743e-10 5.24648e-10 0 0 0 
21 2 1.08212e-06 5.48948e-05 6.56178e-05 1.11922e-05 7.86032e-10 1.13259e-10 -6.07722e-10 0 0 0 
7 2 1.2076e-06 4.69012e-05 6.4466e-05 1.73724e-05 -7.86032e-10 -1.13259e-10 6.07722e-10 0 0 0 
2 2 1.14123e-06 5.84494e-05 5.00914e-05 1.93357e-05 7.07367e-10 -3.45292e-10 6.1677e-10 0 0 0 
22 1 1.25812e-06 4.79081e-05 5.10346e-05 4.41085e-06 3.9738e-10 -2.22642e-10 8.90236e-10 9.92866e-07 -5.56278e-07 2.22428e-06 
23 1 1.18352e-06 4.94575e-05 5.23846e-05 3.62953e-06 2.58974e-10 -8.36872e-10 4.82263e-10 2.86364e-13 -9.25383e-13 5.33268e-13 
24 3 1.08886e-06 6.80726e-05 5.04222e-05 2.25082e-06 3.49009e-10 -1.999e-10 -9.15551e-10 0 0 0 
25 4 9.9694e-07 5.0981e-05 5.62779e-05 4.61335e-06 4.70457e-11 -2.338e-11 9.98619e-10 0 0 0 
26 4 1.05816e-06 5.09835e-05 5.62905e-05 2.77315e-06 8.33386e-10 -3.43025e-10 4.33361e-10 2.53496e-13 -1.0434e-13 1.31818e-13 
27 4 8.24741e-07 4.91549e-05 5.1905e-05 2.47888e-06 -2.06557e-10 6.81057e-10 -7.02492e-10 0 0 0 
28 4 9.78205e-07 4.74438e-05 5.19322e-05 3.93884e-06 1.89733e-10 9.67171e-10 1.69061e-10 3.13126e-07 1.59617e-06 2.7901e-07 
ITEM: TIMESTEP
4000
ITEM: NUMBER OF ATOMS
35
ITEM: BOX BOUNDS ff ff ff
0 0.0001
0 0.0001
0 0.0001
ITEM: ATOMS id type diameter x y z vx vy vz fx fy fz 
10 4 9.4351e-07 4.77364e-05 5.05818e-05 2.02004e-06 9.85515e-10 1.48159e-10 -8.25129e-11 6.50029e-07 9.77233e-08 -5.44241e-08 
19 1 1.37626e-06 4.65965e-05 5.04104e-05 2.11547e-06 -3.81454e-10 8.65162e-11 -9.2033e-10 -5.50325e-07 1.24817e-07 -1.32776e-06 
5 5 1.4839e-06 9.08982e-05 4.63744e-05 2e-06 9.97953e-10 -6.39515e-11 0 0 0 0 
8 4 9.67517e-07 5.22711e-05 5.84055e-05 7.32188e-07 -2.87252e-10 -7.80893e-10 5.547e-10 0 0 0 
15 4 9.30208e-07 5.19283e-05 5.63782e-05 2.22416e-06 2.33667e-10 5.25423e-10 -8.18126e-10 3.25649e-07 7.32255e-07 -1.14018e-06 
4 4 1.02661e-06 2.75734e-05 8.33382e-05 2e-06 -5.40667e-10 8.41236e-10 0 0 0 0 
17 4 1.0935e-06 4.74583e-05 5.04357e-05 3.0001e-06 6.96599e-10 -6.95826e-10 -1.7486e-10 1.13725e-06 -1.13599e-06 -2.85474e-07 
14 4 9.50623e-07 4.81783e-05 5.10273e-05 3.80241e-06 -1.75932e-10 1.65174e-10 -9.70446e-10 -3.59114e-09 3.37156e-09 -1.98089e-08 
18 4 9.04015e-07 4.9574e-05 5.2322e-05 3.00093e-06 2.65312e-10 -3.88946e-10 -8.8223e-10 1.40348e-07 -2.05749e-07 -4.66692e-07 
9 1 1.36398e-06 5.20027e-05 5.64906e-05 3.35962e-06 3.14383e-10 8.72151e-10 3.74854e-10 1.10143e-06 3.05555e-06 1.31329e-06 
1 1 1.17856e-06 4.73597e-05 5.04887e-05 4.22595e-06 8.05954e-10 4.6555e-10 3.65653e-10 7.06185e-13 4.0792e-13 3.20389e-13 
20 1 1.17939e-06 5.21565e-05 5.52867e-05 3.70635e-06 3.68571e-10 -6.82441e-10 6.31213e-10 1.11849e-06 -2.07097e-06 1.91551e-06 
11 4 9.36411e-07 4.96539e-05 5.11184e-05 4.05054e-06 -7.48902e-10 -5.48637e-10 -3.71677e-10 -2.82477e-06 -2.06939e-06 -1.40192e-06 
13 1 1.25503e-06 4.93194e-05 5.17848e-05 4.86674e-06 -7.91498e-10 6.10962e-10 1.60108e-11 -1.23787e-06 9.55517e-07 2.50402e-08 
12 1 1.36863e-06 5.03974e-05 5.19806e-05 4.05184e-06 6.53028e-10 7.57333e-10 1.13613e-12 1.82964e-06 2.12188e-06 3.18319e-09 
3 3 1.22602e-06 6.42252e-05 5.26258e-05 1.23437e-05 -3.49009e-10 1.999e-10 9.15551e-10 0 0 0 
16 2 1.3593e-06 4.20482e-05 5.80975e-05 5.03517e-06 -7.07367e-10 3.45292e-10 -6.1677e-10 0 0 0 
6 4 8.86597e-07 5.45983e-05 7.70081e-05 1.82614e-05 1.56865e-10 8.36743e-10 5.24648e-10 0 0 0 
21 2 1.14273e-06 5.8825e-05 6.61841e-05 8.15356e-06 7.86032e-10 1.13259e-10 -6.07722e-10 0 0 0 
7 2 1.27524e-06 4.29711e-05 6.38997e-05 2.0411e-05 -7.86032e-10 -1.13259e-10 6.07722e-10 0 0 0 
2 2 1.20516e-06 6.19862e-05 4.8365e-05 2.24196e-05 7.07367e-10 -3.45292e-10 6.1677e-10 0 0 0 
22 1 1.41676e-06 4.83865e-05 5.08318e-05 4.95102e-06 1.75925e-10 -1.65149e-10 9.70452e-10 3.59089e-09 -3.37092e-09 1.98083e-08 
23 1 1.33276e-06 4.9278e-05 5.2756e-05 3.98528e-06 -2.65311e-10 3.88944e-10 8.82232e-10 -1.40347e-07 2.05748e-07 4.66693e-07 
24 3 1.1408e-06 6.82137e-05 5.03413e-05 3.63283e-06 -1.6179e-10 9.26677e-11 9.82465e-10 0 0 0 
25 4 9.93676e-07 5.12162e-05 5.6161e-05 9.60644e-06 4.70457e-11 -2.338e-11 9.98619e-10 0 0 0 
26 4 1.0547e-06 5.09169e-05 5.64628e-05 2.83713e-06 -8.214e-10 5.50664e-10 -1.48563e-10 -1.23197e-06 8.25909e-07 -2.22821e-07 
27 4 8.2204e-07 4.87678e-05 5.31812e-05 2.30807e-06 1.08436e-10 -3.57534e-10 9.27583e-10 0 0 0 
28 4 9.75002e-07 4.7594e-05 5.15417e-05 4.38324e-06 4.75354e-10 -8.09844e-10 3.43791e-10 2.1463e-13 -3.65658e-13 1.55227e-13 
29 1 1.20641e-06 4.66855e-05 5.12535e-05 3.1947e-06 -2.1657e-10 9.51431e-10 2.18808e-10 -6.71389e-07 2.94954e-06 6.78327e-07 
30 1 1.27817e-06 5.15089e-05 5.54746e-05 2.68907e-06 -3.84489e-10 -7.44259e-10 -5.4612e-10 -1.3136e-06 -2.54274e-06 -1.8658e-06 
31 4 1.01328e-06 4.56124e-05 5.12673e-05 1.29572e-06 1.71096e-10 5.25769e-11 9.83851e-10 0 0 0 
32 4 8.83828e-07 4.65168e-05 5.02324e-05 3.22142e-06 -1.78283e-10 -8.18056e-10 5.46809e-10 -4.71152e-07 -2.16189e-06 1.44506e-06 
33 4 1.04024e-06 5.02216e-05 5.10885e-05 4.84849e-06 7.94999e-10 -3.58872e-10 4.89069e-10 2.233e-06 -1.008e-06 1.3737e-06 
34 4 9.698e-07 4.8909e-05 5.16637e-05 3.78904e-06 4.02027e-10 6.75441e-10 6.18186e-10 1.4883e-13 2.50047e-13 2.28852e-13 
35 4 8.22757e-07 4.64872e-05 5.15176e-05 2.23791e-06 -1.95845e-10 2.60938e-10 -9.45281e-10 -9.44179e-08 1.258e-07 -4.55725e-07 
ITEM: TIMESTEP
4500
ITEM: NUMBER OF ATOMS
52
ITEM: BOX BOUNDS ff ff ff
0 0.0001
0 0.0001
0 0.0001
ITEM: ATOMS id type diameter x y z vx vy vz fx fy fz 
8 4 9.64349e-07 5.17498e-05 5.73579e-05 1.42629e-06 1.50382e-10 -7.65103e-10 6.26101e-10 0 0 0 
31 4 1.00996e-06 4.57889e-05 5.10022e-05 1.51724e-06 4.92121e-10 -8.62046e-10 1.2122e-10 1.74766e-13 -3.06137e-13 4.30488e-14 
36 1 1.30117e-06 4.63626e-05 4.99973e-05 1.65855e-06 -7.95173e-11 8.04438e-10 5.8869e-10 -7.75183e-14 7.84215e-13 5.7389e-13 
5 5 1.4839e-06 9.58879e-05 4.60546e-05 2e-06 9.97953e-10 -6.39515e-11 0 0 0 0 
10 4 9.40421e-07 4.74498e-05 5.06142e-05 2.16069e-06 -8.89061e-10 1.24705e-10 4.40477e-10 -2.07071e-13 2.90451e-14 1.02592e-13 
35 4 8.20063e-07 4.64777e-05 5.1714e-05 2.77152e-06 -3.7853e-11 9.87883e-10 1.50514e-10 -3.3064e-08 8.62898e-07 1.31472e-07 
27 4 8.19349e-07 4.89269e-05 5.3227e-05 3.37739e-06 1.87613e-10 6.37651e-10 7.4713e-10 4.24425e-14 1.44252e-13 1.69019e-13 
15 4 9.27163e-07 5.1955e-05 5.621e-05 2.19393e-06 -4.09417e-10 -4.03508e-10 -8.18266e-10 -2.31029e-07 -2.27695e-07 -4.61738e-07 
4 4 1.02325e-06 2.487e-05 8.75444e-05 2e-06 -5.40667e-10 8.41236e-10 0 0 0 0 
17 4 1.08992e-06 4.72273e-05 5.05205e-05 3.46688e-06 7.60982e-10 -6.06343e-10 -2.30772e-10 1.45904e-06 -1.16255e-06 -4.42461e-07 
19 1 1.14965e-06 4.65148e-05 5.07454e-05 2.62394e-06 8.40885e-11 -9.09856e-10 -4.06313e-10 9.31641e-08 -1.00806e-06 -4.50166e-07 
18 4 9.01055e-07 4.9931e-05 5.26296e-05 3.666e-06 3.44726e-10 3.99575e-10 8.49414e-10 1.38487e-13 1.60521e-13 3.41235e-13 
30 1 1.11761e-06 5.03983e-05 5.49855e-05 1.63198e-06 -4.34077e-10 -2.24517e-10 -8.7245e-10 0 0 0 
26 4 1.05125e-06 5.12844e-05 5.64311e-05 2.88928e-06 9.73524e-10 1.78327e-10 1.43005e-10 9.9796e-14 1.82803e-14 1.46595e-14 
32 4 8.80934e-07 4.63069e-05 5.0138e-05 3.41758e-06 -2.18541e-10 -3.27837e-11 -9.75277e-10 -1.5301e-07 -2.29533e-08 -6.82834e-07 
29 1 1.35854e-06 4.63029e-05 5.1257e-05 3.74719e-06 -7.67204e-10 5.82811e-10 -2.67822e-10 -3.34537e-06 2.54133e-06 -1.16783e-06 
9 1 1.26219e-06 5.20734e-05 5.62108e-05 4.15273e-06 1.67591e-10 -6.79732e-10 -7.14058e-10 7.34716e-14 -2.97993e-13 -3.13042e-13 
24 3 1.19523e-06 6.74048e-05 5.08047e-05 8.54516e-06 -1.6179e-10 9.26677e-11 9.82465e-10 0 0 0 
14 4 9.47511e-07 4.80805e-05 5.08366e-05 4.1162e-06 3.17689e-10 4.46085e-10 -8.36709e-10 4.18396e-07 5.87493e-07 -1.10194e-06 
34 4 9.66625e-07 4.90885e-05 5.21301e-05 4.51139e-06 -5.97898e-10 -7.92192e-10 -1.22271e-10 -1.19701e-07 -1.58599e-07 -2.4479e-08 
12 1 1.15448e-06 5.08002e-05 5.2963e-05 4.12153e-06 -5.59515e-10 -6.67437e-10 4.91397e-10 -6.17602e-13 -7.36728e-13 5.42413e-13 
23 1 1.18532e-06 4.91178e-05 5.38759e-05 4.13774e-06 4.33611e-10 -8.81217e-10 1.8825e-10 3.48e-13 -7.07232e-13 1.51083e-13 
20 1 1.32811e-06 5.23116e-05 5.49321e-05 4.07396e-06 7.43054e-11 9.73796e-10 -2.14942e-10 3.15109e-14 4.12961e-13 -9.11511e-14 
1 1 1.32717e-06 4.65474e-05 5.01741e-05 4.49092e-06 2.18459e-10 -5.80016e-10 7.84765e-10 3.94968e-07 -1.04865e-06 1.41883e-06 
11 4 9.33345e-07 5.00152e-05 5.16426e-05 4.41605e-06 -3.45714e-10 5.02192e-10 -7.92645e-10 -5.58525e-07 8.11326e-07 -1.28057e-06 
28 4 9.7181e-07 4.72227e-05 5.11629e-05 4.4398e-06 7.96188e-10 -8.14229e-11 5.99546e-10 1.58427e-06 -1.62017e-07 1.19299e-06 
38 1 1.27356e-06 4.77298e-05 5.03442e-05 5.03988e-06 -9.09618e-10 -3.72391e-10 1.84173e-10 -1.94805e-06 -7.97516e-07 3.94426e-07 
33 4 1.03684e-06 5.0353e-05 5.1152e-05 5.19048e-06 3.45714e-10 -5.02192e-10 7.92645e-10 5.58525e-07 -8.11326e-07 1.28057e-06 
37 1 1.28507e-06 5.10775e-05 5.19e-05 4.65928e-06 -8.71907e-10 4.61081e-10 1.64873e-10 -9.3683e-13 4.95413e-13 1.77149e-13 
13 1 1.05277e-06 4.92082e-05 5.20863e-05 5.60208e-06 -5.16248e-10 -7.76071e-10 -3.62218e-10 -1.54599e-13 -2.32408e-13 -1.08473e-13 
22 1 1.2589e-06 4.85279e-05 5.13221e-05 5.05004e-06 4.17281e-10 8.64494e-10 -2.80226e-10 3.14938e-07 6.52467e-07 -2.11497e-07 
16 2 1.06576e-06 4.05108e-05 6.15562e-05 5.10022e-06 6.62921e-11 8.53185e-10 5.17379e-10 0 0 0 
21 2 1.20674e-06 6.27552e-05 6.67504e-05 5.11495e-06 7.86032e-10 1.13259e-10 -6.07722e-10 0 0 0 
25 4 9.90422e-07 5.14514e-05 5.60441e-05 1.45995e-05 4.70457e-11 -2.338e-11 9.98619e-10 0 0 0 
3 3 1.28451e-06 6.24801e-05 5.36253e-05 1.69215e-05 -3.49009e-10 1.999e-10 9.15551e-10 0 0 0 
6 4 8.83695e-07 5.53826e-05 8.11918e-05 2.08846e-05 1.56865e-10 8.36743e-10 5.24648e-10 0 0 0 
7 2 1.34667e-06 3.90409e-05 6.33335e-05 2.34496e-05 -7.86032e-10 -1.13259e-10 6.07722e-10 0 0 0 
2 2 1.27266e-06 6.55231e-05 4.66385e-05 2.55034e-05 7.07367e-10 -3.45292e-10 6.1677e-10 0 0 0 
39 1 1.17274e-06 5.23837e-05 5.66325e-05 3.05076e-06 4.09416e-10 4.03508e-10 8.18266e-10 2.31029e-07 2.27694e-07 4.61738e-07 
40 1 1.19701e-06 4.97348e-05 5.29863e-05 4.64354e-06 -1.63859e-10 2.30714e-11 -9.86214e-10 -1.15246e-07 1.62267e-08 -6.93631e-07 
41 2 1.20442e-06 4.01009e-05 5.628e-05 1.90072e-06 -6.62921e-11 -8.53185e-10 -5.17379e-10 0 0 0 
42 1 1.16617e-06 5.21465e-05 5.50948e-05 2.42592e-06 -8.53635e-10 5.03289e-10 -1.34192e-10 -8.67835e-07 5.11661e-07 -1.36424e-07 
43 1 1.1831e-06 5.04908e-05 5.21976e-05 5.71925e-06 3.89587e-10 -7.91307e-11 -9.17584e-10 1.88692e-13 -3.8326e-14 -4.44421e-13 
44 4 8.73261e-07 5.04916e-05 5.42198e-05 3.33474e-06 -7.71411e-10 -6.32892e-10 -6.61305e-11 0 0 0 
45 4 1.01846e-06 5.16705e-05 5.55518e-05 3.30086e-06 8.59856e-10 -3.68092e-10 3.53774e-10 2.02955e-13 -8.68823e-14 8.35029e-14 
46 4 1.05418e-06 5.35064e-05 5.50113e-05 4.10779e-06 -9.97411e-10 -6.61385e-11 -2.82406e-11 -1.84603e-13 -1.2241e-14 -5.22682e-15 
47 4 1.03472e-06 4.93246e-05 5.04948e-05 5.17048e-06 -6.89922e-10 7.16332e-10 -1.04293e-10 -1.32395e-13 1.37463e-13 -2.00135e-14 
48 4 8.59977e-07 4.91929e-05 5.11516e-05 5.85505e-06 6.28572e-10 -1.61173e-10 7.60868e-10 1.79929e-07 -4.61358e-08 2.17799e-07 
49 4 9.17179e-07 4.8589e-05 5.00151e-05 5.62211e-06 7.89121e-10 -3.02222e-10 5.34743e-10 1.03478e-06 -3.96308e-07 7.01216e-07 
50 4 9.29731e-07 5.28705e-05 5.56997e-05 2.89442e-06 -9.46008e-10 3.27438e-11 -3.22485e-10 -1.29764e-13 4.49146e-15 -4.42353e-14 
51 4 8.88299e-07 5.3019e-05 5.45804e-05 2.56308e-06 8.53635e-10 -5.03289e-10 1.34192e-10 8.67835e-07 -5.11661e-07 1.36424e-07 
52 4 9.67383e-07 5.00643e-05 5.3186e-05 5.65071e-06 3.05578e-10 1.85173e-10 9.33988e-10 2.34947e-07 1.42373e-07 7.18109e-07 
ITEM: TIMESTEP
5000
ITEM: NUMBER OF ATOMS
69
ITEM: BOX BOUNDS ff ff ff
0 0.0001
0 0.0001
0 0.0001
ITEM: ATOMS id type diameter x y z vx vy vz fx fy fz 
8 4 9.61192e-07 5.17367e-05 5.72327e-05 1.60588e-06 2.51977e-10 -7.92979e-10 5.547e-10 0 0 0 
31 4 1.00665e-06 4.18293e-05 5.11742e-05 1.47276e-06 -9.98498e-10 5.33892e-11 -1.22674e-11 0 0 0 
36 1 1.21983e-06 4.5965e-05 5.03483e-05 1.84868e-06 -6.82732e-10 -6.0271e-10 4.13059e-10 -8.93194e-07 -7.88504e-07 5.40391e-07 
5 5 1.4839e-06 9.76441e-05 4.59379e-05 2e-06 -9.98113e-10 6.14084e-11 0 0 0 0 
10 4 9.37342e-07 4.69901e-05 5.04679e-05 2.1627e-06 -9.50252e-10 -1.10835e-10 -2.91095e-10 -1.67038e-13 -1.94828e-14 -5.11695e-14 
35 4 8.17378e-07 4.61599e-05 5.17355e-05 3.01327e-06 -9.00002e-10 -3.70564e-10 2.2952e-10 -1.83821e-13 -7.56859e-14 4.68784e-14 
27 4 8.16667e-07 4.57705e-05 5.24092e-05 1.15458e-06 -8.0404e-10 -2.00657e-10 -5.59693e-10 0 0 0 
15 4 9.24127e-07 5.20627e-05 5.62162e-05 2.42689e-06 1.91761e-10 9.53311e-10 2.33294e-10 1.64438e-07 8.17476e-07 2.00053e-07 
4 4 1.0199e-06 2.21667e-05 9.17506e-05 2e-06 -5.40667e-10 8.41236e-10 0 0 0 0 
17 4 1.08635e-06 4.64592e-05 5.0824e-05 2.95026e-06 -9.10161e-10 2.86393e-10 -2.99309e-10 -2.10316e-13 6.61785e-14 -6.9163e-14 
19 1 1.29462e-06 4.53629e-05 5.1169e-05 2.58973e-06 6.57946e-10 -5.71298e-10 4.90637e-10 5.50785e-13 -4.7825e-13 4.10726e-13 
18 4 8.98105e-07 5.01107e-05 5.26399e-05 3.89455e-06 -7.89782e-11 5.02875e-10 8.60743e-10 -2.68463e-14 1.70938e-13 2.92585e-13 
30 1 1.25853e-06 4.99208e-05 5.47385e-05 6.32289e-07 0 0 -1e-09 0 0 -1.82002e-22 
26 4 1.0478e-06 5.15418e-05 5.65798e-05 3.30038e-06 -9.97196e-10 -5.05553e-11 5.51744e-11 -9.42558e-07 -4.77853e-08 5.21513e-08 
32 4 8.7805e-07 4.58426e-05 5.0078e-05 3.14004e-06 -4.86214e-10 6.16615e-10 6.19178e-10 -1.08997e-13 1.3823e-13 1.38804e-13 
29 1 1.1491e-06 4.57622e-05 5.18727e-05 3.90627e-06 -2.47447e-10 -9.19635e-10 -3.05027e-10 -1.25926e-13 -4.68003e-13 -1.55228e-13 
9 1 1.42134e-06 5.20589e-05 5.64083e-05 4.41404e-06 -4.81037e-10 -1.68668e-10 8.60323e-10 -8.39136e-08 -2.9423e-08 1.50077e-07 
24 3 1.25225e-06 6.65958e-05 5.1268e-05 1.34575e-05 -1.6179e-10 9.26677e-11 9.82465e-10 0 0 0 
14 4 9.44409e-07 4.77414e-05 5.15206e-05 4.62096e-06 -2.62897e-11 -6.67148e-10 -7.44461e-10 -7.55664e-09 -1.91763e-07 -2.13986e-07 
34 4 9.6346e-07 4.86464e-05 5.21113e-05 4.70264e-06 -3.39425e-10 6.1429e-10 7.12347e-10 -1.38732e-13 2.51076e-13 2.91154e-13 
12 1 1.30006e-06 5.07288e-05 5.32544e-05 4.58638e-06 -6.33577e-10 -7.33649e-10 2.45642e-10 -5.23893e-13 -6.0664e-13 2.03117e-13 
23 1 1.33479e-06 4.90653e-05 5.42902e-05 4.08757e-06 -2.28517e-10 9.2494e-10 -3.03754e-10 -3.8655e-07 1.56459e-06 -5.13818e-07 
20 1 1.13729e-06 5.14958e-05 5.52525e-05 4.25305e-06 -6.21354e-10 7.82802e-10 3.37769e-11 -6.59633e-07 8.31027e-07 3.58578e-08 
1 1 1.20943e-06 4.5754e-05 5.03128e-05 4.88467e-06 3.53501e-10 -3.49386e-10 8.67736e-10 2.15818e-07 -2.13306e-07 5.29768e-07 
11 4 9.30289e-07 5.0631e-05 5.2067e-05 4.60228e-06 4.39562e-10 7.61741e-10 4.75959e-10 7.77321e-14 1.34706e-13 8.41686e-14 
28 4 9.68629e-07 4.56106e-05 5.46752e-05 5.55106e-06 -3.60114e-10 8.89003e-10 2.82827e-10 0 0 0 
38 1 1.0758e-06 4.73102e-05 5.0195e-05 5.96846e-06 2.55102e-10 -9.10666e-10 3.24978e-10 4.01407e-07 -1.43295e-06 5.11359e-07 
33 4 1.03344e-06 4.92675e-05 4.96937e-05 5.0786e-06 -6.7292e-10 -7.3755e-10 5.6561e-11 0 0 0 
37 1 1.06625e-06 5.12197e-05 5.246e-05 5.3148e-06 -8.72062e-10 4.67712e-10 1.44057e-10 -5.15342e-13 2.76393e-13 8.513e-14 
13 1 1.18552e-06 4.90142e-05 5.24737e-05 5.83254e-06 6.31005e-10 -1.24802e-10 7.65674e-10 7.36939e-07 -1.45754e-07 8.94216e-07 
22 1 1.41764e-06 4.77724e-05 5.23076e-05 5.49912e-06 -9.96798e-10 6.15727e-11 -5.1021e-11 -9.75297e-07 6.02446e-08 -4.99205e-08 
16 2 1.12546e-06 4.08423e-05 6.58221e-05 7.68711e-06 6.62921e-11 8.53185e-10 5.17379e-10 0 0 0 
21 2 1.27433e-06 6.66853e-05 6.73167e-05 2.07634e-06 7.86032e-10 1.13259e-10 -6.07722e-10 0 0 0 
25 4 9.8718e-07 5.16867e-05 5.59272e-05 1.95926e-05 4.70457e-11 -2.338e-11 9.98619e-10 0 0 0 
3 3 1.34579e-06 6.07351e-05 5.46248e-05 2.14992e-05 -3.49009e-10 1.999e-10 9.15551e-10 0 0 0 
6 4 8.80801e-07 5.6167e-05 8.53755e-05 2.35078e-05 1.56865e-10 8.36743e-10 5.24648e-10 0 0 0 
7 2 1.07086e-06 3.57502e-05 6.28513e-05 2.75363e-05 -2.7635e-10 -4.37076e-11 9.60063e-10 0 0 0 
2 2 1.34395e-06 6.90599e-05 4.49121e-05 2.85873e-05 7.07367e-10 -3.45292e-10 6.1677e-10 0 0 0 
39 1 1.32061e-06 5.27179e-05 5.66394e-05 3.2353e-06 6.62791e-10 7.40375e-10 1.12038e-10 1.24429e-06 1.38994e-06 2.10333e-07 
40 1 1.34794e-06 4.9439e-05 5.29527e-05 4.74374e-06 3.3632e-10 3.79204e-10 -8.62029e-10 2.45915e-07 2.77271e-07 -6.3031e-07 
41 2 1.27188e-06 4.00989e-05 5.62546e-05 2.01546e-06 6.44557e-11 8.2955e-10 5.547e-10 0 0 0 
42 1 1.31321e-06 5.17215e-05 5.52292e-05 2.03704e-06 -2.10291e-10 -6.01986e-11 -9.75784e-10 -8.56374e-07 -2.45148e-07 -3.97371e-06 
43 1 1.33229e-06 5.05679e-05 5.25734e-05 6.32032e-06 4.98507e-10 -6.70135e-10 5.49918e-10 2.53464e-07 -3.40728e-07 2.79604e-07 
44 4 8.70402e-07 5.09831e-05 5.46411e-05 2.58291e-06 -6.77157e-10 -5.39332e-10 5.00579e-10 -1.79959e-07 -1.43331e-07 1.33032e-07 
45 4 1.01512e-06 5.15911e-05 5.53392e-05 3.17303e-06 -1.13538e-10 9.57274e-11 9.88911e-10 -3.50611e-07 2.95611e-07 3.05381e-06 
46 4 1.05073e-06 5.31866e-05 5.49345e-05 4.09741e-06 8.40829e-10 5.31671e-10 -1.01655e-10 4.71924e-07 2.98406e-07 -5.70551e-08 
47 4 1.03133e-06 4.84999e-05 5.12433e-05 5.19412e-06 -5.49155e-10 8.0338e-10 2.30239e-10 -1.03516e-13 1.51437e-13 4.34e-14 
48 4 8.57161e-07 4.84965e-05 5.16189e-05 6.07036e-06 -3.06718e-10 8.14347e-10 -4.9271e-10 -1.43788e-13 3.81763e-13 -2.30981e-13 
49 4 9.14176e-07 4.82668e-05 5.00626e-05 5.66231e-06 -9.44251e-10 1.30635e-10 3.022e-10 -1.2312e-13 1.70335e-14 3.94036e-14 
50 4 9.26687e-07 5.25434e-05 5.55872e-05 2.90462e-06 -9.32483e-11 -9.69506e-10 -2.26635e-10 -1.36495e-07 -1.41914e-06 -3.31744e-07 
51 4 8.85391e-07 5.26164e-05 5.47444e-05 2.43382e-06 8.19215e-10 -4.43781e-10 3.63242e-10 1.14118e-06 -6.18197e-07 5.06004e-07 
52 4 9.64216e-07 4.99967e-05 5.33411e-05 5.69028e-06 -4.98507e-10 6.70134e-10 -5.49919e-10 -2.53464e-07 3.40727e-07 -2.79604e-07 
53 1 1.27304e-06 4.53163e-05 5.07454e-05 3.81026e-06 -3.535e-10 3.49386e-10 -8.67737e-10 -2.15818e-07 2.13307e-07 -5.29769e-07 
54 4 1.10514e-06 4.89594e-05 4.63234e-05 6.8984e-07 -3.31645e-10 7.63098e-10 5.547e-10 0 0 0 
55 4 9.61598e-07 4.67052e-05 5.10018e-05 1.40085e-06 6.82732e-10 6.0271e-10 -4.13059e-10 8.93194e-07 7.88504e-07 -5.40391e-07 
56 4 8.77368e-07 4.26132e-05 5.25385e-05 5.44159e-07 -8.39493e-10 1.70323e-10 -5.15985e-10 0 0 0 
57 4 9.53377e-07 5.30188e-05 5.4447e-05 4.95681e-06 7.23855e-10 1.08186e-10 6.81417e-10 2.73092e-07 4.08158e-08 2.57081e-07 
58 4 9.63469e-07 4.89162e-05 5.42623e-05 5.22027e-06 -1.30469e-10 -2.44858e-11 9.9115e-10 -1.6479e-07 -3.0927e-08 1.25188e-06 
59 4 1.0741e-06 5.08775e-05 5.14485e-05 5.98446e-06 -2.54988e-10 9.26522e-10 2.76655e-10 -8.26383e-14 3.00273e-13 8.96601e-14 
60 4 1.02546e-06 4.94262e-05 5.32863e-05 3.60442e-06 3.08169e-10 -8.57232e-10 -4.12534e-10 5.51341e-07 -1.53366e-06 -7.38059e-07 
61 4 9.02923e-07 4.71633e-05 5.06991e-05 4.70855e-06 1.34658e-10 -5.00147e-10 -8.55407e-10 1.11818e-07 -4.15314e-07 -7.10316e-07 