LAMMPS (5 Nov 2016)
# NUFEB simulation

units si
atom_style      bio
atom_modify     map array sort 1000 5.0e-6
boundary        pp pp ff
newton          off
processors 2 1 2

comm_modify     vel yes

read_data_bio atom.in
  orthogonal box = (0 0 0) to (0.0004 3e-05 0.0006)
  2 by 1 by 2 MPI processor grid
  reading atoms ...
  0 atoms
  5 nutrients

group HET type 1
0 atoms in group HET
group AOB type 2
0 atoms in group AOB

variable  x equal 40
variable  y equal 3
variable  z equal 2

lattice sc 2e-5 origin 0.75 0.5 0.5
Lattice spacing in x,y,z = 2e-05 2e-05 2e-05
region reg block 0 $x 0 $y 0 $z
region reg block 0 40 0 $y 0 $z
region reg block 0 40 0 3 0 $z
region reg block 0 40 0 3 0 2
create_atoms 1 random 100 5345 reg
Created 100 atoms

#lattice sc 2e-5 origin 0.25 0.5 0.5
region reg2 block 0 $x 0 $y 0 $z
region reg2 block 0 40 0 $y 0 $z
region reg2 block 0 40 0 3 0 $z
region reg2 block 0 40 0 3 0 2
create_atoms 2 random 100 42342 reg
Created 100 atoms

neighbor        5e-7 bin

set type 1 diameter 9.5e-6
  100 settings made for diameter
set type 1 density 14.5
  100 settings made for density
set type 2 diameter 9.5e-6
  100 settings made for diameter
set type 2 density 14.5
  100 settings made for density

neigh_modify    delay 0 one 2000

##############Define DEM Variables&Commands##############

pair_style  gran/hooke/history 1.e-4 NULL 1.e-5 NULL 0.0 1
pair_coeff  * *

timestep 720

variable kanc equal 50

fix 1 all nve/limit 1e-7
fix fv all viscous 1e-5

fix zw all wall/gran hooke/history 2000 NULL 500.0 NULL 1.5 0 zplane  0.0  6e-04

fix zwa all walladh v_kanc zplane  0.0   6e-04

variable ke equal 5e+10
fix j1 all epsadh 1 v_ke 1

##############Define IBm Variables##############

#EPS density, ratio variables and division diameter
variable EPSdens equal 30
variable EPSratio equal 1.25
variable divDia equal 1e-5

#kinetics variables
variable etaHET equal 0.0
variable diffT equal 1e-4
variable tol equal 1e-6
variable layer equal 0

##############Define IBm Commands##############

fix k1 all kinetics 1 40 3 60 v_diffT v_layer niter -1 demflag 0
fix kgm all kinetics/growth/monod v_EPSdens v_etaHET
fix g1 all kinetics/diffusion v_tol pp pp nd kg bulk 2.31e-7 1.25e-3 0.1
fix d1 all divide 1 v_EPSdens v_divDia 31231 demflag 0
fix vf1 all verify 1 bm3 demflag 0

##############Simulation Output##############

compute myHeight all avg_height
compute myMass all biomass
compute myNtype all ntypes

dump du0 all bio 5010 biomass ntypes bulk
dump		id all custom 120100 snapshot.bubblemd id type diameter x y z
thermo_style    custom step cpu atoms biomass c_myHeight c_myNtype[*]
thermo          1001
thermo_modify   lost warn

##############Two-loops Run##############

run 3600 pre no post no every 1 "fix_modify k1 demflag 1" "fix_modify d1 demflag 1" "fix_modify vf1 demflag 1" "timestep 0.1" "run 2000 pre no post no" "timestep 720" "fix_modify k1 demflag 0" "fix_modify d1 demflag 0" "fix_modify vf1 demflag 0"
WARNING: EPS is not defined in fix_kinetics/kinetics/monod (../fix_bio_kinetics_monod.cpp:253)
ae = 4.530000e+02, top = 4.464078e-05, base = 4.918342e-06, ave_h = 1.996319e-05 
Neighbor list info ...
  3 neighbor list requests
  update every 1 steps, delay 0 steps, check yes
  max neighbors/atom: 2000, page size: 100000
  master list distance cutoff = 1e-05
  ghost atom cutoff = 1e-05
  binsize = 5e-06 -> bins = 80 6 120
Memory usage per processor = 8.72881 Mbytes
Step CPU Atoms biomass c_myHeight c_myNtype[1] c_myNtype[2] c_myNtype[3] 
       0            0      200 1.3018695e-12 2.1217731e-05            0          100          100 
number of iterations: 9651 
maxz = 4.479553e-05 
       1   0.58859015      200 1.3380856e-12 2.1356044e-05            0          100          100 
Loop time of 0.588605 on 4 procs for 1 steps with 200 atoms

99.8% CPU use with 4 MPI tasks x no OpenMP threads
fix_modify k1 demflag 1
fix_modify d1 demflag 1
fix_modify vf1 demflag 1
timestep 0.1
run 2000 pre no post no
Step CPU Atoms biomass c_myHeight c_myNtype[1] c_myNtype[2] c_myNtype[3] 
       1            0      200 1.3380856e-12 2.1356044e-05            0          100          100 
    1001  0.020840883      200 1.3380856e-12 2.3251853e-05            0          100          100 
    2001  0.038589954      200 1.3380856e-12 2.3251853e-05            0          100          100 
Loop time of 0.0386109 on 4 procs for 2000 steps with 200 atoms

100.0% CPU use with 4 MPI tasks x no OpenMP threads
timestep 720
fix_modify k1 demflag 0
fix_modify d1 demflag 0
fix_modify vf1 demflag 0
Step CPU Atoms biomass c_myHeight c_myNtype[1] c_myNtype[2] c_myNtype[3] 
    2001            0      200 1.3380856e-12 2.3251853e-05            0          100          100 
number of iterations: 6863 
maxz = 4.790473e-05 
    2002   0.37221503      200 1.3754712e-12 2.3367919e-05            0          100          100 
Loop time of 0.372228 on 4 procs for 1 steps with 200 atoms

100.0% CPU use with 4 MPI tasks x no OpenMP threads
fix_modify k1 demflag 1
fix_modify d1 demflag 1
fix_modify vf1 demflag 1
timestep 0.1
run 2000 pre no post no
Step CPU Atoms biomass c_myHeight c_myNtype[1] c_myNtype[2] c_myNtype[3] 
    2002            0      200 1.3754712e-12 2.3367919e-05            0          100          100 
    3003  0.017485857      200 1.3754712e-12  2.32923e-05            0          100          100 
    4002  0.034061909      200 1.3754712e-12 2.3699752e-05            0          100          100 
Loop time of 0.0340765 on 4 procs for 2000 steps with 200 atoms

100.0% CPU use with 4 MPI tasks x no OpenMP threads
timestep 720
fix_modify k1 demflag 0
fix_modify d1 demflag 0
fix_modify vf1 demflag 0
Step CPU Atoms biomass c_myHeight c_myNtype[1] c_myNtype[2] c_myNtype[3] 
    4002            0      200 1.3754712e-12 2.3699752e-05            0          100          100 
number of iterations: 7445 
maxz = 4.806101e-05 
    4003   0.38304806      200 1.4140621e-12 2.3320337e-05            0          100          100 
Loop time of 0.383062 on 4 procs for 1 steps with 200 atoms

100.0% CPU use with 4 MPI tasks x no OpenMP threads
fix_modify k1 demflag 1
fix_modify d1 demflag 1
fix_modify vf1 demflag 1
timestep 0.1
run 2000 pre no post no
Step CPU Atoms biomass c_myHeight c_myNtype[1] c_myNtype[2] c_myNtype[3] 
    4003            0      200 1.4140621e-12 2.3320337e-05            0          100          100 
    4004 4.3153763e-05      200 1.4140621e-12 2.3740427e-05            0          100          100 
    5005   0.01692605      200 1.4140621e-12 2.3652464e-05            0          100          100 
    6003  0.033881187      200 1.4140621e-12 2.3652464e-05            0          100          100 
Loop time of 0.033906 on 4 procs for 2000 steps with 200 atoms

100.0% CPU use with 4 MPI tasks x no OpenMP threads
timestep 720
fix_modify k1 demflag 0
fix_modify d1 demflag 0
fix_modify vf1 demflag 0
Step CPU Atoms biomass c_myHeight c_myNtype[1] c_myNtype[2] c_myNtype[3] 
    6003            0      200 1.4140621e-12 2.3652464e-05            0          100          100 
number of iterations: 7089 
maxz = 4.821805e-05 
    6004   0.37374711      200 1.4539012e-12 2.3777537e-05            0          100          100 
Loop time of 0.373762 on 4 procs for 1 steps with 200 atoms

100.0% CPU use with 4 MPI tasks x no OpenMP threads
fix_modify k1 demflag 1
fix_modify d1 demflag 1
fix_modify vf1 demflag 1
timestep 0.1
run 2000 pre no post no
Step CPU Atoms biomass c_myHeight c_myNtype[1] c_myNtype[2] c_myNtype[3] 
    6004            0      200 1.4539012e-12 2.3777537e-05            0          100          100 
    6006 6.1035156e-05      200 1.4539012e-12 2.3973335e-05            0          100          100 
    7007  0.016701937      200 1.4539012e-12 2.3916745e-05            0          100          100 
    8004  0.033595085      200 1.4539012e-12 2.4364336e-05            0          100          100 
Loop time of 0.0336325 on 4 procs for 2000 steps with 200 atoms

100.0% CPU use with 4 MPI tasks x no OpenMP threads
timestep 720
fix_modify k1 demflag 0
fix_modify d1 demflag 0
fix_modify vf1 demflag 0
Step CPU Atoms biomass c_myHeight c_myNtype[1] c_myNtype[2] c_myNtype[3] 
    8004            0      200 1.4539012e-12 2.4364336e-05            0          100          100 
number of iterations: 6769 
maxz = 4.999432e-05 
    8005   0.35681295      300 1.4950349e-12 2.7540913e-05            0          200          100 
Loop time of 0.35683 on 4 procs for 1 steps with 300 atoms

100.0% CPU use with 4 MPI tasks x no OpenMP threads
fix_modify k1 demflag 1
fix_modify d1 demflag 1
fix_modify vf1 demflag 1
timestep 0.1
run 2000 pre no post no
Step CPU Atoms biomass c_myHeight c_myNtype[1] c_myNtype[2] c_myNtype[3] 
    8005            0      300 1.4950349e-12 2.7540913e-05            0          200          100 
    8008 0.00036597252      300 1.4950349e-12 2.8219131e-05            0          200          100 
    9009  0.028697014      300 1.4950349e-12 2.8372575e-05            0          200          100 
   10005  0.052506924      300 1.4950349e-12 2.8372575e-05            0          200          100 
Loop time of 0.0525365 on 4 procs for 2000 steps with 300 atoms

100.0% CPU use with 4 MPI tasks x no OpenMP threads
timestep 720
fix_modify k1 demflag 0
fix_modify d1 demflag 0
fix_modify vf1 demflag 0
Step CPU Atoms biomass c_myHeight c_myNtype[1] c_myNtype[2] c_myNtype[3] 
   10005            0      300 1.4950349e-12 2.8372575e-05            0          200          100 
number of iterations: 6354 
maxz = 5.011860e-05 
   10006      0.35042      300 1.5375103e-12 2.8482058e-05            0          200          100 
Loop time of 0.350437 on 4 procs for 1 steps with 300 atoms

100.0% CPU use with 4 MPI tasks x no OpenMP threads
fix_modify k1 demflag 1
fix_modify d1 demflag 1
fix_modify vf1 demflag 1
timestep 0.1
run 2000 pre no post no
Step CPU Atoms biomass c_myHeight c_myNtype[1] c_myNtype[2] c_myNtype[3] 
   10006            0      300 1.5375103e-12 2.8482058e-05            0          200          100 
   10010 0.00036907196      300 1.5375103e-12 2.8418065e-05            0          200          100 
   11011  0.025707006      300 1.5375103e-12 2.8872295e-05            0          200          100 
   12006  0.052826881      300 1.5375103e-12 2.8543225e-05            0          200          100 
Loop time of 0.0528569 on 4 procs for 2000 steps with 300 atoms

100.0% CPU use with 4 MPI tasks x no OpenMP threads
timestep 720
fix_modify k1 demflag 0
fix_modify d1 demflag 0
fix_modify vf1 demflag 0
Step CPU Atoms biomass c_myHeight c_myNtype[1] c_myNtype[2] c_myNtype[3] 
   12006            0      300 1.5375103e-12 2.8543225e-05            0          200          100 
number of iterations: 7899 
maxz = 5.009861e-05 
   12007   0.54303694      300 1.5813705e-12 2.8902932e-05            0          200          100 
Loop time of 0.543055 on 4 procs for 1 steps with 300 atoms

100.0% CPU use with 4 MPI tasks x no OpenMP threads
fix_modify k1 demflag 1
fix_modify d1 demflag 1
fix_modify vf1 demflag 1
timestep 0.1
run 2000 pre no post no
Step CPU Atoms biomass c_myHeight c_myNtype[1] c_myNtype[2] c_myNtype[3] 
   12007            0      300 1.5813705e-12 2.8902932e-05            0          200          100 
   12012 0.00043296814      300 1.5813705e-12 2.8635849e-05            0          200          100 
   13013  0.026910067      300 1.5813705e-12 2.8921365e-05            0          200          100 
   14007     0.056566      300 1.5813705e-12 2.8921365e-05            0          200          100 
Loop time of 0.0565886 on 4 procs for 2000 steps with 300 atoms

100.0% CPU use with 4 MPI tasks x no OpenMP threads
timestep 720
fix_modify k1 demflag 0
fix_modify d1 demflag 0
fix_modify vf1 demflag 0
Step CPU Atoms biomass c_myHeight c_myNtype[1] c_myNtype[2] c_myNtype[3] 
   14007            0      300 1.5813705e-12 2.8921365e-05            0          200          100 
number of iterations: 6585 
maxz = 5.021980e-05 
   14008   0.39255786      300 1.6266698e-12 2.8670415e-05            0          200          100 
Loop time of 0.392575 on 4 procs for 1 steps with 300 atoms

100.0% CPU use with 4 MPI tasks x no OpenMP threads
fix_modify k1 demflag 1
fix_modify d1 demflag 1
fix_modify vf1 demflag 1
timestep 0.1
run 2000 pre no post no
Step CPU Atoms biomass c_myHeight c_myNtype[1] c_myNtype[2] c_myNtype[3] 
   14008            0      300 1.6266698e-12 2.8670415e-05            0          200          100 
   14014 0.00042700768      300 1.6266698e-12 2.9066019e-05            0          200          100 
   15015   0.02644515      300 1.6266698e-12 2.9031264e-05            0          200          100 
   16008  0.053879023      300 1.6266698e-12 2.9071735e-05            0          200          100 
Loop time of 0.0539076 on 4 procs for 2000 steps with 300 atoms

100.0% CPU use with 4 MPI tasks x no OpenMP threads
timestep 720
fix_modify k1 demflag 0
fix_modify d1 demflag 0
fix_modify vf1 demflag 0
Step CPU Atoms biomass c_myHeight c_myNtype[1] c_myNtype[2] c_myNtype[3] 
   16008            0      300 1.6266698e-12 2.9071735e-05            0          200          100 
number of iterations: 6183 
maxz = 5.020545e-05 
   16009   0.37158298      300 1.6734607e-12 2.9062874e-05            0          200          100 
Loop time of 0.3716 on 4 procs for 1 steps with 300 atoms

99.9% CPU use with 4 MPI tasks x no OpenMP threads
fix_modify k1 demflag 1
fix_modify d1 demflag 1
fix_modify vf1 demflag 1
timestep 0.1
run 2000 pre no post no
Step CPU Atoms biomass c_myHeight c_myNtype[1] c_myNtype[2] c_myNtype[3] 
   16009            0      300 1.6734607e-12 2.9062874e-05            0          200          100 
   16016 0.00045800209      300 1.6734607e-12 2.9323667e-05            0          200          100 
   17017  0.027307987      300 1.6734607e-12 2.9278666e-05            0          200          100 
   18009  0.055502892      300 1.6734607e-12 2.9278666e-05            0          200          100 
Loop time of 0.0555284 on 4 procs for 2000 steps with 300 atoms

100.0% CPU use with 4 MPI tasks x no OpenMP threads
timestep 720
fix_modify k1 demflag 0
fix_modify d1 demflag 0
fix_modify vf1 demflag 0
Step CPU Atoms biomass c_myHeight c_myNtype[1] c_myNtype[2] c_myNtype[3] 
   18009            0      300 1.6734607e-12 2.9278666e-05            0          200          100 
number of iterations: 6068 
maxz = 5.032622e-05 
   18010   0.35500693      300 1.7217965e-12 2.9356534e-05            0          200          100 
Loop time of 0.355022 on 4 procs for 1 steps with 300 atoms

100.0% CPU use with 4 MPI tasks x no OpenMP threads
fix_modify k1 demflag 1
fix_modify d1 demflag 1
fix_modify vf1 demflag 1
timestep 0.1
run 2000 pre no post no
Step CPU Atoms biomass c_myHeight c_myNtype[1] c_myNtype[2] c_myNtype[3] 
   18010            0      300 1.7217965e-12 2.9356534e-05            0          200          100 
   18018 0.00068306923      300 1.7217965e-12 2.9496453e-05            0          200          100 
   19019  0.027147055      300 1.7217965e-12 2.9500765e-05            0          200          100 
   20010  0.056118965      300 1.7217965e-12 2.9497293e-05            0          200          100 
Loop time of 0.0561473 on 4 procs for 2000 steps with 300 atoms

100.0% CPU use with 4 MPI tasks x no OpenMP threads
timestep 720
fix_modify k1 demflag 0
fix_modify d1 demflag 0
fix_modify vf1 demflag 0
Step CPU Atoms biomass c_myHeight c_myNtype[1] c_myNtype[2] c_myNtype[3] 
   20010            0      300 1.7217965e-12 2.9497293e-05            0          200          100 
number of iterations: 5877 
maxz = 5.031492e-05 
   20011     0.370996      400 1.7717322e-12 3.1567838e-05            0          200          200 
Loop time of 0.371011 on 4 procs for 1 steps with 400 atoms

100.0% CPU use with 4 MPI tasks x no OpenMP threads
fix_modify k1 demflag 1
fix_modify d1 demflag 1
fix_modify vf1 demflag 1
timestep 0.1
run 2000 pre no post no
Step CPU Atoms biomass c_myHeight c_myNtype[1] c_myNtype[2] c_myNtype[3] 
   20011            0      400 1.7717322e-12 3.1567838e-05            0          200          200 
   20020 0.0013201237      400 1.7717322e-12 3.2437372e-05            0          200          200 
   21021  0.043529987      400 1.7717322e-12 3.2768604e-05            0          200          200 
   22011  0.078694105      400 1.7717322e-12 3.2768604e-05            0          200          200 
Loop time of 0.0787464 on 4 procs for 2000 steps with 400 atoms

100.0% CPU use with 4 MPI tasks x no OpenMP threads
timestep 720
fix_modify k1 demflag 0
fix_modify d1 demflag 0
fix_modify vf1 demflag 0
Step CPU Atoms biomass c_myHeight c_myNtype[1] c_myNtype[2] c_myNtype[3] 
   22011            0      400 1.7717322e-12 3.2768604e-05            0          200          200 
number of iterations: 5787 
maxz = 5.109982e-05 
   22012   0.34402418      400 1.8233257e-12 3.2754321e-05            0          200          200 
Loop time of 0.344037 on 4 procs for 1 steps with 400 atoms

100.0% CPU use with 4 MPI tasks x no OpenMP threads
fix_modify k1 demflag 1
fix_modify d1 demflag 1
fix_modify vf1 demflag 1
timestep 0.1
run 2000 pre no post no
Step CPU Atoms biomass c_myHeight c_myNtype[1] c_myNtype[2] c_myNtype[3] 
   22012            0      400 1.8233257e-12 3.2754321e-05            0          200          200 
   22022 0.0010118484      400 1.8233257e-12 3.2844689e-05            0          200          200 
   23023  0.039625883      400 1.8233257e-12 3.2834485e-05            0          200          200 
   24012  0.073944807      400 1.8233257e-12 3.2852747e-05            0          200          200 
Loop time of 0.0739796 on 4 procs for 2000 steps with 400 atoms

100.0% CPU use with 4 MPI tasks x no OpenMP threads
timestep 720
fix_modify k1 demflag 0
fix_modify d1 demflag 0
fix_modify vf1 demflag 0
Step CPU Atoms biomass c_myHeight c_myNtype[1] c_myNtype[2] c_myNtype[3] 
   24012            0      400 1.8233257e-12 3.2852747e-05            0          200          200 
number of iterations: 5776 
maxz = 5.125568e-05 
   24013   0.32472706      400 1.8766355e-12 3.2866534e-05            0          200          200 
Loop time of 0.324744 on 4 procs for 1 steps with 400 atoms

99.7% CPU use with 4 MPI tasks x no OpenMP threads
fix_modify k1 demflag 1
fix_modify d1 demflag 1
fix_modify vf1 demflag 1
timestep 0.1
run 2000 pre no post no
Step CPU Atoms biomass c_myHeight c_myNtype[1] c_myNtype[2] c_myNtype[3] 
   24013            0      400 1.8766355e-12 3.2866534e-05            0          200          200 
   24024 0.0010459423      400 1.8766355e-12 3.2895946e-05            0          200          200 
   25025  0.037039995      400 1.8766355e-12 3.2878385e-05            0          200          200 
   26013  0.072679996      400 1.8766355e-12 3.2878385e-05            0          200          200 
Loop time of 0.0727196 on 4 procs for 2000 steps with 400 atoms

100.0% CPU use with 4 MPI tasks x no OpenMP threads
timestep 720
fix_modify k1 demflag 0
fix_modify d1 demflag 0
fix_modify vf1 demflag 0
Step CPU Atoms biomass c_myHeight c_myNtype[1] c_myNtype[2] c_myNtype[3] 
   26013            0      400 1.8766355e-12 3.2878385e-05            0          200          200 
number of iterations: 5712 
maxz = 5.141383e-05 
   26014   0.32773304      400 1.9317228e-12 3.2929452e-05            0          200          200 
Loop time of 0.32775 on 4 procs for 1 steps with 400 atoms

100.0% CPU use with 4 MPI tasks x no OpenMP threads
fix_modify k1 demflag 1
fix_modify d1 demflag 1
fix_modify vf1 demflag 1
timestep 0.1
run 2000 pre no post no
Step CPU Atoms biomass c_myHeight c_myNtype[1] c_myNtype[2] c_myNtype[3] 
   26014            0      400 1.9317228e-12 3.2929452e-05            0          200          200 
   26026 0.0010910034      400 1.9317228e-12 3.2959125e-05            0          200          200 
   27027  0.037852049      400 1.9317228e-12 3.3011025e-05            0          200          200 
   28014  0.077936888      400 1.9317228e-12 3.2958839e-05            0          200          200 
Loop time of 0.0779838 on 4 procs for 2000 steps with 400 atoms

99.9% CPU use with 4 MPI tasks x no OpenMP threads
timestep 720
fix_modify k1 demflag 0
fix_modify d1 demflag 0
fix_modify vf1 demflag 0
Step CPU Atoms biomass c_myHeight c_myNtype[1] c_myNtype[2] c_myNtype[3] 
   28014            0      400 1.9317228e-12 3.2958839e-05            0          200          200 
number of iterations: 5737 
maxz = 5.137917e-05 
   28015   0.32509708      400 1.9886499e-12 3.3044405e-05            0          200          200 
Loop time of 0.325116 on 4 procs for 1 steps with 400 atoms

100.0% CPU use with 4 MPI tasks x no OpenMP threads
fix_modify k1 demflag 1
fix_modify d1 demflag 1
fix_modify vf1 demflag 1
timestep 0.1
run 2000 pre no post no
Step CPU Atoms biomass c_myHeight c_myNtype[1] c_myNtype[2] c_myNtype[3] 
   28015            0      400 1.9886499e-12 3.3044405e-05            0          200          200 
   28028 0.0011589527      400 1.9886499e-12 3.3070751e-05            0          200          200 
   29029  0.044348001      400 1.9886499e-12 3.3150903e-05            0          200          200 
   30015  0.081924915      400 1.9886499e-12 3.3150676e-05            0          200          200 
Loop time of 0.0819712 on 4 procs for 2000 steps with 400 atoms

100.0% CPU use with 4 MPI tasks x no OpenMP threads
timestep 720
fix_modify k1 demflag 0
fix_modify d1 demflag 0
fix_modify vf1 demflag 0
Step CPU Atoms biomass c_myHeight c_myNtype[1] c_myNtype[2] c_myNtype[3] 
   30015            0      400 1.9886499e-12 3.3150676e-05            0          200          200 
number of iterations: 5756 
maxz = 5.153922e-05 
   30016   0.31528902      400 2.0474823e-12 3.3106764e-05            0          200          200 
Loop time of 0.315304 on 4 procs for 1 steps with 400 atoms

100.0% CPU use with 4 MPI tasks x no OpenMP threads
fix_modify k1 demflag 1
fix_modify d1 demflag 1
fix_modify vf1 demflag 1
timestep 0.1
run 2000 pre no post no
Step CPU Atoms biomass c_myHeight c_myNtype[1] c_myNtype[2] c_myNtype[3] 
   30016            0      400 2.0474823e-12 3.3106764e-05            0          200          200 
   30030 0.0011730194      400 2.0474823e-12 3.3472208e-05            0          200          200 
   31031  0.038793087      400 2.0474823e-12 3.3233032e-05            0          200          200 
   32016  0.076793909      400 2.0474823e-12 3.3475919e-05            0          200          200 
Loop time of 0.0768142 on 4 procs for 2000 steps with 400 atoms

100.0% CPU use with 4 MPI tasks x no OpenMP threads
timestep 720
fix_modify k1 demflag 0
fix_modify d1 demflag 0
fix_modify vf1 demflag 0
Step CPU Atoms biomass c_myHeight c_myNtype[1] c_myNtype[2] c_myNtype[3] 
   32016            0      400 2.0474823e-12 3.3475919e-05            0          200          200 
number of iterations: 5808 
maxz = 5.169989e-05 
   32017   0.32723594      400 2.1082864e-12 3.3267083e-05            0          200          200 
Loop time of 0.327251 on 4 procs for 1 steps with 400 atoms

100.0% CPU use with 4 MPI tasks x no OpenMP threads
fix_modify k1 demflag 1
fix_modify d1 demflag 1
fix_modify vf1 demflag 1
timestep 0.1
run 2000 pre no post no
Step CPU Atoms biomass c_myHeight c_myNtype[1] c_myNtype[2] c_myNtype[3] 
   32017            0      400 2.1082864e-12 3.3267083e-05            0          200          200 
   32032 0.0014970303      400 2.1082864e-12 3.3553978e-05            0          200          200 
   33033  0.040895939      400 2.1082864e-12 3.3633763e-05            0          200          200 
   34017  0.078039885      400 2.1082864e-12 3.3633759e-05            0          200          200 
Loop time of 0.0780737 on 4 procs for 2000 steps with 400 atoms

100.0% CPU use with 4 MPI tasks x no OpenMP threads
timestep 720
fix_modify k1 demflag 0
fix_modify d1 demflag 0
fix_modify vf1 demflag 0
Step CPU Atoms biomass c_myHeight c_myNtype[1] c_myNtype[2] c_myNtype[3] 
   34017            0      400 2.1082864e-12 3.3633759e-05            0          200          200 
number of iterations: 5886 
maxz = 5.186128e-05 
   34018    0.3093369      400 2.1711319e-12 3.3689764e-05            0          200          200 
Loop time of 0.309353 on 4 procs for 1 steps with 400 atoms

100.0% CPU use with 4 MPI tasks x no OpenMP threads
fix_modify k1 demflag 1
fix_modify d1 demflag 1
fix_modify vf1 demflag 1
timestep 0.1
run 2000 pre no post no
Step CPU Atoms biomass c_myHeight c_myNtype[1] c_myNtype[2] c_myNtype[3] 
   34018            0      400 2.1711319e-12 3.3689764e-05            0          200          200 
   34034 0.0015859604      400 2.1711319e-12 3.3719974e-05            0          200          200 
   35035  0.040764809      400 2.1711319e-12  3.37631e-05            0          200          200 
   36018  0.077656984      400 2.1711319e-12 3.3725632e-05            0          200          200 
Loop time of 0.0776859 on 4 procs for 2000 steps with 400 atoms

100.0% CPU use with 4 MPI tasks x no OpenMP threads
timestep 720
fix_modify k1 demflag 0
fix_modify d1 demflag 0
fix_modify vf1 demflag 0
Step CPU Atoms biomass c_myHeight c_myNtype[1] c_myNtype[2] c_myNtype[3] 
   36018            0      400 2.1711319e-12 3.3725632e-05            0          200          200 
number of iterations: 5986 
maxz = 5.455180e-05 
   36019    0.3349719      425 2.2360893e-12 3.3950697e-05            0          225          200 
Loop time of 0.334988 on 4 procs for 1 steps with 425 atoms

100.0% CPU use with 4 MPI tasks x no OpenMP threads
fix_modify k1 demflag 1
fix_modify d1 demflag 1
fix_modify vf1 demflag 1
timestep 0.1
run 2000 pre no post no
Step CPU Atoms biomass c_myHeight c_myNtype[1] c_myNtype[2] c_myNtype[3] 
   36019            0      425 2.2360893e-12 3.3950697e-05            0          225          200 
   36036 0.0024049282      425 2.2360893e-12 3.4001692e-05            0          225          200 
   37037  0.045643806      425 2.2360893e-12 3.4104584e-05            0          225          200 
   38019  0.085901976      425 2.2360893e-12 3.4104584e-05            0          225          200 
Loop time of 0.0859244 on 4 procs for 2000 steps with 425 atoms

99.9% CPU use with 4 MPI tasks x no OpenMP threads
timestep 720
fix_modify k1 demflag 0
fix_modify d1 demflag 0
fix_modify vf1 demflag 0
Step CPU Atoms biomass c_myHeight c_myNtype[1] c_myNtype[2] c_myNtype[3] 
   38019            0      425 2.2360893e-12 3.4104584e-05            0          225          200 
number of iterations: 5963 
maxz = 5.609874e-05 
   38020   0.33305717      441 2.3032337e-12 3.4484297e-05            0          241          200 
Loop time of 0.333072 on 4 procs for 1 steps with 441 atoms

100.0% CPU use with 4 MPI tasks x no OpenMP threads
fix_modify k1 demflag 1
fix_modify d1 demflag 1
fix_modify vf1 demflag 1
timestep 0.1
run 2000 pre no post no
Step CPU Atoms biomass c_myHeight c_myNtype[1] c_myNtype[2] c_myNtype[3] 
   38020            0      441 2.3032337e-12 3.4484297e-05            0          241          200 
   38038  0.002851963      441 2.3032337e-12 3.4614424e-05            0          241          200 
   39039  0.050746918      441 2.3032337e-12 3.4639335e-05            0          241          200 
   40020  0.090971947      441 2.3032337e-12 3.4635225e-05            0          241          200 
Loop time of 0.0910022 on 4 procs for 2000 steps with 441 atoms

100.0% CPU use with 4 MPI tasks x no OpenMP threads
timestep 720
fix_modify k1 demflag 0
fix_modify d1 demflag 0
fix_modify vf1 demflag 0
Step CPU Atoms biomass c_myHeight c_myNtype[1] c_myNtype[2] c_myNtype[3] 
   40020            0      441 2.3032337e-12 3.4635225e-05            0          241          200 
number of iterations: 6108 
maxz = 5.624786e-05 
   40021   0.33292007      465 2.3726408e-12 3.4774921e-05            0          265          200 
Loop time of 0.332934 on 4 procs for 1 steps with 465 atoms

100.0% CPU use with 4 MPI tasks x no OpenMP threads
fix_modify k1 demflag 1
fix_modify d1 demflag 1
fix_modify vf1 demflag 1
timestep 0.1
run 2000 pre no post no
Step CPU Atoms biomass c_myHeight c_myNtype[1] c_myNtype[2] c_myNtype[3] 
   40021            0      465 2.3726408e-12 3.4774921e-05            0          265          200 
   40040 0.0031239986      465 2.3726408e-12 3.5289168e-05            0          265          200 
   41041  0.054410934      465 2.3726408e-12 3.5238299e-05            0          265          200 
   42021   0.09978199      465 2.3726408e-12 3.5238272e-05            0          265          200 
Loop time of 0.0998032 on 4 procs for 2000 steps with 465 atoms

100.0% CPU use with 4 MPI tasks x no OpenMP threads
timestep 720
fix_modify k1 demflag 0
fix_modify d1 demflag 0
fix_modify vf1 demflag 0
Step CPU Atoms biomass c_myHeight c_myNtype[1] c_myNtype[2] c_myNtype[3] 
   42021            0      465 2.3726408e-12 3.5238272e-05            0          265          200 
number of iterations: 6408 
maxz = 5.639748e-05 
   42022   0.33800507      490 2.4443865e-12 3.5694292e-05            0          290          200 
Loop time of 0.338019 on 4 procs for 1 steps with 490 atoms

100.0% CPU use with 4 MPI tasks x no OpenMP threads
fix_modify k1 demflag 1
fix_modify d1 demflag 1
fix_modify vf1 demflag 1
timestep 0.1
run 2000 pre no post no
Step CPU Atoms biomass c_myHeight c_myNtype[1] c_myNtype[2] c_myNtype[3] 
   42022            0      490 2.4443865e-12 3.5694292e-05            0          290          200 
   42042 0.0034160614      490 2.4443865e-12 3.5912425e-05            0          290          200 
   43043  0.063134909      490 2.4443865e-12 3.6008445e-05            0          290          200 
   44022   0.11428595      490 2.4443865e-12 3.5992875e-05            0          290          200 
Loop time of 0.114308 on 4 procs for 2000 steps with 490 atoms

100.0% CPU use with 4 MPI tasks x no OpenMP threads
timestep 720
fix_modify k1 demflag 0
fix_modify d1 demflag 0
fix_modify vf1 demflag 0
Step CPU Atoms biomass c_myHeight c_myNtype[1] c_myNtype[2] c_myNtype[3] 
   44022            0      490 2.4443865e-12 3.5992875e-05            0          290          200 
number of iterations: 6555 
maxz = 5.654825e-05 
   44023   0.34631801      500 2.5185522e-12 3.6329767e-05            0          300          200 
Loop time of 0.346328 on 4 procs for 1 steps with 500 atoms

100.0% CPU use with 4 MPI tasks x no OpenMP threads
fix_modify k1 demflag 1
fix_modify d1 demflag 1
fix_modify vf1 demflag 1
timestep 0.1
run 2000 pre no post no
Step CPU Atoms biomass c_myHeight c_myNtype[1] c_myNtype[2] c_myNtype[3] 
   44023            0      500 2.5185522e-12 3.6329767e-05            0          300          200 
   44044 0.0039038658      500 2.5185522e-12 3.6354181e-05            0          300          200 
   45045  0.060031891      500 2.5185522e-12 3.634212e-05            0          300          200 
   46023   0.11538982      500 2.5185522e-12 3.6341331e-05            0          300          200 
Loop time of 0.115412 on 4 procs for 2000 steps with 500 atoms

100.0% CPU use with 4 MPI tasks x no OpenMP threads
timestep 720
fix_modify k1 demflag 0
fix_modify d1 demflag 0
fix_modify vf1 demflag 0
Step CPU Atoms biomass c_myHeight c_myNtype[1] c_myNtype[2] c_myNtype[3] 
   46023            0      500 2.5185522e-12 3.6341331e-05            0          300          200 
number of iterations: 6698 
maxz = 5.650096e-05 
   46024   0.36832404      519 2.5952199e-12 3.648729e-05            0          319          200 
Loop time of 0.368343 on 4 procs for 1 steps with 519 atoms

99.7% CPU use with 4 MPI tasks x no OpenMP threads
fix_modify k1 demflag 1
fix_modify d1 demflag 1
fix_modify vf1 demflag 1
timestep 0.1
run 2000 pre no post no
Step CPU Atoms biomass c_myHeight c_myNtype[1] c_myNtype[2] c_myNtype[3] 
   46024            0      519 2.5952199e-12 3.648729e-05            0          319          200 
   46046 0.0041911602      519 2.5952199e-12 3.6616192e-05            0          319          200 
   47047  0.065236092      519 2.5952199e-12 3.6576134e-05            0          319          200 
   48024   0.12051797      519 2.5952199e-12 3.6654824e-05            0          319          200 
Loop time of 0.120542 on 4 procs for 2000 steps with 519 atoms

100.0% CPU use with 4 MPI tasks x no OpenMP threads
timestep 720
fix_modify k1 demflag 0
fix_modify d1 demflag 0
fix_modify vf1 demflag 0
Step CPU Atoms biomass c_myHeight c_myNtype[1] c_myNtype[2] c_myNtype[3] 
   48024            0      519 2.5952199e-12 3.6654824e-05            0          319          200 
number of iterations: 6954 
maxz = 5.665205e-05 
   48025   0.36598897      538 2.6744747e-12 3.6779679e-05            0          338          200 
Loop time of 0.366008 on 4 procs for 1 steps with 538 atoms

100.0% CPU use with 4 MPI tasks x no OpenMP threads
fix_modify k1 demflag 1
fix_modify d1 demflag 1
fix_modify vf1 demflag 1
timestep 0.1
run 2000 pre no post no
Step CPU Atoms biomass c_myHeight c_myNtype[1] c_myNtype[2] c_myNtype[3] 
   48025            0      538 2.6744747e-12 3.6779679e-05            0          338          200 
   48048 0.0046229362      538 2.6744747e-12 3.7129644e-05            0          338          200 
   49049  0.068668842      538 2.6744747e-12 3.7171442e-05            0          338          200 
   50025    0.1255219      538 2.6744747e-12 3.7171447e-05            0          338          200 
Loop time of 0.125561 on 4 procs for 2000 steps with 538 atoms

100.0% CPU use with 4 MPI tasks x no OpenMP threads
timestep 720
fix_modify k1 demflag 0
fix_modify d1 demflag 0
fix_modify vf1 demflag 0
Step CPU Atoms biomass c_myHeight c_myNtype[1] c_myNtype[2] c_myNtype[3] 
   50025            0      538 2.6744747e-12 3.7171447e-05            0          338          200 
number of iterations: 6899 
maxz = 5.680372e-05 
   50026   0.36543012      559 2.7564075e-12 3.7501623e-05            0          359          200 
Loop time of 0.365443 on 4 procs for 1 steps with 559 atoms

100.0% CPU use with 4 MPI tasks x no OpenMP threads
fix_modify k1 demflag 1
fix_modify d1 demflag 1
fix_modify vf1 demflag 1
timestep 0.1
run 2000 pre no post no
Step CPU Atoms biomass c_myHeight c_myNtype[1] c_myNtype[2] c_myNtype[3] 
   50026            0      559 2.7564075e-12 3.7501623e-05            0          359          200 
   50050 0.0053720474      559 2.7564075e-12 3.8000107e-05            0          359          200 
   51051  0.080974102      559 2.7564075e-12 3.8139375e-05            0          359          200 
   52026   0.14107203      559 2.7564075e-12 3.813031e-05            0          359          200 
Loop time of 0.141103 on 4 procs for 2000 steps with 559 atoms

99.3% CPU use with 4 MPI tasks x no OpenMP threads
timestep 720
fix_modify k1 demflag 0
fix_modify d1 demflag 0
fix_modify vf1 demflag 0
Step CPU Atoms biomass c_myHeight c_myNtype[1] c_myNtype[2] c_myNtype[3] 
   52026            0      559 2.7564075e-12 3.813031e-05            0          359          200 
number of iterations: 7339 
maxz = 5.695514e-05 
   52027   0.36762905      568 2.8411058e-12 3.8179108e-05            0          368          200 
Loop time of 0.367643 on 4 procs for 1 steps with 568 atoms

99.7% CPU use with 4 MPI tasks x no OpenMP threads
fix_modify k1 demflag 1
fix_modify d1 demflag 1
fix_modify vf1 demflag 1
timestep 0.1
run 2000 pre no post no
Step CPU Atoms biomass c_myHeight c_myNtype[1] c_myNtype[2] c_myNtype[3] 
   52027            0      568 2.8411058e-12 3.8179108e-05            0          368          200 
   52052 0.0055949688      568 2.8411058e-12   3.8356e-05            0          368          200 
   53053  0.080595016      568 2.8411058e-12 3.8351548e-05            0          368          200 
   54027    0.1412251      568 2.8411058e-12 3.835194e-05            0          368          200 
Loop time of 0.141248 on 4 procs for 2000 steps with 568 atoms

100.0% CPU use with 4 MPI tasks x no OpenMP threads
timestep 720
fix_modify k1 demflag 0
fix_modify d1 demflag 0
fix_modify vf1 demflag 0
Step CPU Atoms biomass c_myHeight c_myNtype[1] c_myNtype[2] c_myNtype[3] 
   54027            0      568 2.8411058e-12 3.835194e-05            0          368          200 
number of iterations: 7545 
maxz = 5.710719e-05 
   54028   0.39658689      592 2.9286625e-12 3.8575125e-05            0          392          200 
Loop time of 0.396605 on 4 procs for 1 steps with 592 atoms

100.0% CPU use with 4 MPI tasks x no OpenMP threads
fix_modify k1 demflag 1
fix_modify d1 demflag 1
fix_modify vf1 demflag 1
timestep 0.1
run 2000 pre no post no
Step CPU Atoms biomass c_myHeight c_myNtype[1] c_myNtype[2] c_myNtype[3] 
   54028            0      592 2.9286625e-12 3.8575125e-05            0          392          200 
   54054 0.0061490536      592 2.9286625e-12 3.8865549e-05            0          392          200 
   55055  0.091948986      592 2.9286625e-12 3.8852388e-05            0          392          200 
   56028   0.15348101      592 2.9286625e-12 3.889973e-05            0          392          200 
Loop time of 0.153542 on 4 procs for 2000 steps with 592 atoms

99.3% CPU use with 4 MPI tasks x no OpenMP threads
timestep 720
fix_modify k1 demflag 0
fix_modify d1 demflag 0
fix_modify vf1 demflag 0
Step CPU Atoms biomass c_myHeight c_myNtype[1] c_myNtype[2] c_myNtype[3] 
   56028            0      592 2.9286625e-12 3.889973e-05            0          392          200 
number of iterations: 7663 
maxz = 5.725948e-05 
   56029    0.3732388      600 3.0191754e-12 3.8880468e-05            0          400          200 
Loop time of 0.373254 on 4 procs for 1 steps with 600 atoms

100.0% CPU use with 4 MPI tasks x no OpenMP threads
fix_modify k1 demflag 1
fix_modify d1 demflag 1
fix_modify vf1 demflag 1
timestep 0.1
run 2000 pre no post no
Step CPU Atoms biomass c_myHeight c_myNtype[1] c_myNtype[2] c_myNtype[3] 
   56029            0      600 3.0191754e-12 3.8880468e-05            0          400          200 
   56056 0.0068171024      600 3.0191754e-12 3.9074121e-05            0          400          200 
   57057   0.10215688      600 3.0191754e-12 3.9181997e-05            0          400          200 
   58029   0.16257787      600 3.0191754e-12 3.9182019e-05            0          400          200 
Loop time of 0.162608 on 4 procs for 2000 steps with 600 atoms

100.0% CPU use with 4 MPI tasks x no OpenMP threads
timestep 720
fix_modify k1 demflag 0
fix_modify d1 demflag 0
fix_modify vf1 demflag 0
Step CPU Atoms biomass c_myHeight c_myNtype[1] c_myNtype[2] c_myNtype[3] 
   58029            0      600 3.0191754e-12 3.9182019e-05            0          400          200 
number of iterations: 7959 
maxz = 5.740933e-05 
   58030   0.42072296      600 3.1127408e-12   3.9154e-05            0          400          200 
Loop time of 0.420738 on 4 procs for 1 steps with 600 atoms

100.0% CPU use with 4 MPI tasks x no OpenMP threads
fix_modify k1 demflag 1
fix_modify d1 demflag 1
fix_modify vf1 demflag 1
timestep 0.1
run 2000 pre no post no
Step CPU Atoms biomass c_myHeight c_myNtype[1] c_myNtype[2] c_myNtype[3] 
   58030            0      600 3.1127408e-12   3.9154e-05            0          400          200 
   58058 0.0043709278      600 3.1127408e-12 3.9427721e-05            0          400          200 
   59059   0.10177898      600 3.1127408e-12 3.9391166e-05            0          400          200 
   60030   0.17362189      600 3.1127408e-12 3.952123e-05            0          400          200 
Loop time of 0.173647 on 4 procs for 2000 steps with 600 atoms

100.0% CPU use with 4 MPI tasks x no OpenMP threads
timestep 720
fix_modify k1 demflag 0
fix_modify d1 demflag 0
fix_modify vf1 demflag 0
Step CPU Atoms biomass c_myHeight c_myNtype[1] c_myNtype[2] c_myNtype[3] 
   60030            0      600 3.1127408e-12 3.952123e-05            0          400          200 
number of iterations: 8176 
maxz = 5.755982e-05 
   60031   0.39850783      600 3.2094593e-12 3.9468707e-05            0          400          200 
Loop time of 0.398526 on 4 procs for 1 steps with 600 atoms

100.0% CPU use with 4 MPI tasks x no OpenMP threads
fix_modify k1 demflag 1
fix_modify d1 demflag 1
fix_modify vf1 demflag 1
timestep 0.1
run 2000 pre no post no
Step CPU Atoms biomass c_myHeight c_myNtype[1] c_myNtype[2] c_myNtype[3] 
   60031            0      600 3.2094593e-12 3.9468707e-05            0          400          200 
   60060 0.0040171146      600 3.2094593e-12 3.9626454e-05            0          400          200 
   61061   0.10966015      600 3.2094593e-12 3.9745541e-05            0          400          200 
   62031   0.17674708      600 3.2094593e-12 3.975018e-05            0          400          200 
Loop time of 0.176771 on 4 procs for 2000 steps with 600 atoms

99.2% CPU use with 4 MPI tasks x no OpenMP threads
timestep 720
fix_modify k1 demflag 0
fix_modify d1 demflag 0
fix_modify vf1 demflag 0
Step CPU Atoms biomass c_myHeight c_myNtype[1] c_myNtype[2] c_myNtype[3] 
   62031            0      600 3.2094593e-12 3.975018e-05            0          400          200 
number of iterations: 8482 
maxz = 5.752282e-05 
   62032   0.43909287      600 3.3094316e-12 3.9792858e-05            0          400          200 
Loop time of 0.439111 on 4 procs for 1 steps with 600 atoms

100.0% CPU use with 4 MPI tasks x no OpenMP threads
fix_modify k1 demflag 1
fix_modify d1 demflag 1
fix_modify vf1 demflag 1
timestep 0.1
run 2000 pre no post no
Step CPU Atoms biomass c_myHeight c_myNtype[1] c_myNtype[2] c_myNtype[3] 
   62032            0      600 3.3094316e-12 3.9792858e-05            0          400          200 
   62062  0.004732132      600 3.3094316e-12 3.9847219e-05            0          400          200 
   63063   0.10578799      600 3.3094316e-12 4.0063486e-05            0          400          200 
   64032   0.17140102      600 3.3094316e-12 3.9997118e-05            0          400          200 
Loop time of 0.171427 on 4 procs for 2000 steps with 600 atoms

100.0% CPU use with 4 MPI tasks x no OpenMP threads
timestep 720
fix_modify k1 demflag 0
fix_modify d1 demflag 0
fix_modify vf1 demflag 0
Step CPU Atoms biomass c_myHeight c_myNtype[1] c_myNtype[2] c_myNtype[3] 
   64032            0      600 3.3094316e-12 3.9997118e-05            0          400          200 
number of iterations: 8724 
maxz = 5.767462e-05 
   64033   0.43234992      607 3.4127639e-12 4.0123342e-05            0          407          200 
Loop time of 0.432368 on 4 procs for 1 steps with 607 atoms

100.0% CPU use with 4 MPI tasks x no OpenMP threads
fix_modify k1 demflag 1
fix_modify d1 demflag 1
fix_modify vf1 demflag 1
timestep 0.1
run 2000 pre no post no
Step CPU Atoms biomass c_myHeight c_myNtype[1] c_myNtype[2] c_myNtype[3] 
   64033            0      607 3.4127639e-12 4.0123342e-05            0          407          200 
   64064 0.0079159737      607 3.4127639e-12 4.0230021e-05            0          407          200 
   65065   0.11673999      607 3.4127639e-12 4.0391156e-05            0          407          200 
   66033    0.1917069      607 3.4127639e-12 4.0474146e-05            0          407          200 
Loop time of 0.191729 on 4 procs for 2000 steps with 607 atoms

100.0% CPU use with 4 MPI tasks x no OpenMP threads
timestep 720
fix_modify k1 demflag 0
fix_modify d1 demflag 0
fix_modify vf1 demflag 0
Step CPU Atoms biomass c_myHeight c_myNtype[1] c_myNtype[2] c_myNtype[3] 
   66033            0      607 3.4127639e-12 4.0474146e-05            0          407          200 
number of iterations: 8850 
maxz = 5.782726e-05 
   66034   0.45525908      619 3.5195673e-12 4.0466552e-05            0          419          200 
Loop time of 0.455274 on 4 procs for 1 steps with 619 atoms

100.0% CPU use with 4 MPI tasks x no OpenMP threads
fix_modify k1 demflag 1
fix_modify d1 demflag 1
fix_modify vf1 demflag 1
timestep 0.1
run 2000 pre no post no
Step CPU Atoms biomass c_myHeight c_myNtype[1] c_myNtype[2] c_myNtype[3] 
   66034            0      619 3.5195673e-12 4.0466552e-05            0          419          200 
   66066 0.0082449913      619 3.5195673e-12 4.0627655e-05            0          419          200 
   67067   0.11947703      619 3.5195673e-12 4.0971943e-05            0          419          200 
   68034   0.19036388      619 3.5195673e-12 4.0846294e-05            0          419          200 
Loop time of 0.190389 on 4 procs for 2000 steps with 619 atoms

100.0% CPU use with 4 MPI tasks x no OpenMP threads
timestep 720
fix_modify k1 demflag 0
fix_modify d1 demflag 0
fix_modify vf1 demflag 0
Step CPU Atoms biomass c_myHeight c_myNtype[1] c_myNtype[2] c_myNtype[3] 
   68034            0      619 3.5195673e-12 4.0846294e-05            0          419          200 
number of iterations: 9218 
maxz = 5.779202e-05 
   68035   0.42744112      631 3.6299508e-12 4.1189178e-05            0          431          200 
Loop time of 0.427455 on 4 procs for 1 steps with 631 atoms

100.0% CPU use with 4 MPI tasks x no OpenMP threads
fix_modify k1 demflag 1
fix_modify d1 demflag 1
fix_modify vf1 demflag 1
timestep 0.1
run 2000 pre no post no
Step CPU Atoms biomass c_myHeight c_myNtype[1] c_myNtype[2] c_myNtype[3] 
   68035            0      631 3.6299508e-12 4.1189178e-05            0          431          200 
   68068 0.0086789131      631 3.6299508e-12 4.1492509e-05            0          431          200 
   69069   0.12856889      631 3.6299508e-12 4.1675373e-05            0          431          200 
   70035   0.21543384      631 3.6299508e-12 4.1705494e-05            0          431          200 
Loop time of 0.21546 on 4 procs for 2000 steps with 631 atoms

99.5% CPU use with 4 MPI tasks x no OpenMP threads
timestep 720
fix_modify k1 demflag 0
fix_modify d1 demflag 0
fix_modify vf1 demflag 0
Step CPU Atoms biomass c_myHeight c_myNtype[1] c_myNtype[2] c_myNtype[3] 
   70035            0      631 3.6299508e-12 4.1705494e-05            0          431          200 
number of iterations: 9264 
maxz = 5.794597e-05 
   70036   0.48667407      644 3.7440318e-12 4.1457952e-05            0          444          200 
Loop time of 0.486692 on 4 procs for 1 steps with 644 atoms

100.0% CPU use with 4 MPI tasks x no OpenMP threads
fix_modify k1 demflag 1
fix_modify d1 demflag 1
fix_modify vf1 demflag 1
timestep 0.1
run 2000 pre no post no
Step CPU Atoms biomass c_myHeight c_myNtype[1] c_myNtype[2] c_myNtype[3] 
   70036            0      644 3.7440318e-12 4.1457952e-05            0          444          200 
   70070 0.0095319748      644 3.7440318e-12 4.1942843e-05            0          444          200 
   71071   0.13669205      644 3.7440318e-12 4.2257537e-05            0          444          200 
   72036   0.23130393      644 3.7440318e-12 4.2253545e-05            0          444          200 
Loop time of 0.231356 on 4 procs for 2000 steps with 644 atoms

100.0% CPU use with 4 MPI tasks x no OpenMP threads
timestep 720
fix_modify k1 demflag 0
fix_modify d1 demflag 0
fix_modify vf1 demflag 0
Step CPU Atoms biomass c_myHeight c_myNtype[1] c_myNtype[2] c_myNtype[3] 
   72036            0      644 3.7440318e-12 4.2253545e-05            0          444          200 
number of iterations: 9817 
maxz = 5.791205e-05 
   72037   0.46857691      668 3.8619192e-12 4.2604332e-05            0          468          200 
Loop time of 0.468594 on 4 procs for 1 steps with 668 atoms

100.0% CPU use with 4 MPI tasks x no OpenMP threads
fix_modify k1 demflag 1
fix_modify d1 demflag 1
fix_modify vf1 demflag 1
timestep 0.1
run 2000 pre no post no
Step CPU Atoms biomass c_myHeight c_myNtype[1] c_myNtype[2] c_myNtype[3] 
   72037            0      668 3.8619192e-12 4.2604332e-05            0          468          200 
   72072  0.010282993      668 3.8619192e-12 4.3064042e-05            0          468          200 
   73073   0.14825797      668 3.8619192e-12 4.3165322e-05            0          468          200 
   74037   0.24412298      668 3.8619192e-12 4.3176068e-05            0          468          200 
Loop time of 0.244145 on 4 procs for 2000 steps with 668 atoms

100.0% CPU use with 4 MPI tasks x no OpenMP threads
timestep 720
fix_modify k1 demflag 0
fix_modify d1 demflag 0
fix_modify vf1 demflag 0
Step CPU Atoms biomass c_myHeight c_myNtype[1] c_myNtype[2] c_myNtype[3] 
   74037            0      668 3.8619192e-12 4.3176068e-05            0          468          200 
number of iterations: 9908 
maxz = 5.807272e-05 
   74038   0.50918913      694 3.9837352e-12 4.3212813e-05            0          494          200 
Loop time of 0.50921 on 4 procs for 1 steps with 694 atoms

100.0% CPU use with 4 MPI tasks x no OpenMP threads
fix_modify k1 demflag 1
fix_modify d1 demflag 1
fix_modify vf1 demflag 1
timestep 0.1
run 2000 pre no post no
Step CPU Atoms biomass c_myHeight c_myNtype[1] c_myNtype[2] c_myNtype[3] 
   74038            0      694 3.9837352e-12 4.3212813e-05            0          494          200 
   74074  0.013642073      694 3.9837352e-12 4.3620422e-05            0          494          200 
   75075   0.14936709      694 3.9837352e-12 4.3837777e-05            0          494          200 
   76038   0.22905493      694 3.9837352e-12 4.3934892e-05            0          494          200 
Loop time of 0.229094 on 4 procs for 2000 steps with 694 atoms

100.0% CPU use with 4 MPI tasks x no OpenMP threads
timestep 720
fix_modify k1 demflag 0
fix_modify d1 demflag 0
fix_modify vf1 demflag 0
Step CPU Atoms biomass c_myHeight c_myNtype[1] c_myNtype[2] c_myNtype[3] 
   76038            0      694 3.9837352e-12 4.3934892e-05            0          494          200 
number of iterations: 10255 
maxz = 5.970611e-05 
   76039   0.52445912      721 4.1095973e-12 4.4001048e-05            0          521          200 
Loop time of 0.524477 on 4 procs for 1 steps with 721 atoms

100.0% CPU use with 4 MPI tasks x no OpenMP threads
fix_modify k1 demflag 1
fix_modify d1 demflag 1
fix_modify vf1 demflag 1
timestep 0.1
run 2000 pre no post no
Step CPU Atoms biomass c_myHeight c_myNtype[1] c_myNtype[2] c_myNtype[3] 
   76039            0      721 4.1095973e-12 4.4001048e-05            0          521          200 
   76076     0.011868      721 4.1095973e-12 4.4906056e-05            0          521          200 
   77077   0.14534903      721 4.1095973e-12 4.5001608e-05            0          521          200 
   78039   0.24494314      721 4.1095973e-12 4.5015663e-05            0          521          200 
Loop time of 0.244967 on 4 procs for 2000 steps with 721 atoms

100.0% CPU use with 4 MPI tasks x no OpenMP threads
timestep 720
fix_modify k1 demflag 0
fix_modify d1 demflag 0
fix_modify vf1 demflag 0
Step CPU Atoms biomass c_myHeight c_myNtype[1] c_myNtype[2] c_myNtype[3] 
   78039            0      721 4.1095973e-12 4.5015663e-05            0          521          200 
number of iterations: 10634 
maxz = 6.317985e-05 
   78040   0.53952289      753 4.2396244e-12 4.5113861e-05            0          553          200 
Loop time of 0.539543 on 4 procs for 1 steps with 753 atoms

100.0% CPU use with 4 MPI tasks x no OpenMP threads
fix_modify k1 demflag 1
fix_modify d1 demflag 1
fix_modify vf1 demflag 1
timestep 0.1
run 2000 pre no post no
Step CPU Atoms biomass c_myHeight c_myNtype[1] c_myNtype[2] c_myNtype[3] 
   78040            0      753 4.2396244e-12 4.5113861e-05            0          553          200 
   78078  0.012938023      753 4.2396244e-12 4.5615682e-05            0          553          200 
   79079   0.16970086      753 4.2396244e-12 4.6202198e-05            0          553          200 
   80040   0.27121401      753 4.2396244e-12 4.6121098e-05            0          553          200 
Loop time of 0.271237 on 4 procs for 2000 steps with 753 atoms

99.6% CPU use with 4 MPI tasks x no OpenMP threads
timestep 720
fix_modify k1 demflag 0
fix_modify d1 demflag 0
fix_modify vf1 demflag 0
Step CPU Atoms biomass c_myHeight c_myNtype[1] c_myNtype[2] c_myNtype[3] 
   80040            0      753 4.2396244e-12 4.6121098e-05            0          553          200 
number of iterations: 15931 
maxz = 6.552058e-05 
   80041     1.117095      789 4.3737529e-12 4.6316468e-05            0          589          200 
Loop time of 1.11711 on 4 procs for 1 steps with 789 atoms

100.0% CPU use with 4 MPI tasks x no OpenMP threads
fix_modify k1 demflag 1
fix_modify d1 demflag 1
fix_modify vf1 demflag 1
timestep 0.1
run 2000 pre no post no
Step CPU Atoms biomass c_myHeight c_myNtype[1] c_myNtype[2] c_myNtype[3] 
   80041            0      789 4.3737529e-12 4.6316468e-05            0          589          200 
   80080   0.01493597      789 4.3737529e-12 4.6889232e-05            0          589          200 
   81081   0.18628907      789 4.3737529e-12 4.7696037e-05            0          589          200 
   82041   0.31077814      789 4.3737529e-12 4.7745274e-05            0          589          200 
Loop time of 0.3108 on 4 procs for 2000 steps with 789 atoms

100.0% CPU use with 4 MPI tasks x no OpenMP threads
timestep 720
fix_modify k1 demflag 0
fix_modify d1 demflag 0
fix_modify vf1 demflag 0
Step CPU Atoms biomass c_myHeight c_myNtype[1] c_myNtype[2] c_myNtype[3] 
   82041            0      789 4.3737529e-12 4.7745274e-05            0          589          200 
number of iterations: 12054 
maxz = 6.547068e-05 
   82042   0.66804504      825 4.5122935e-12 4.7921555e-05            0          625          200 
Loop time of 0.668059 on 4 procs for 1 steps with 825 atoms

100.0% CPU use with 4 MPI tasks x no OpenMP threads
fix_modify k1 demflag 1
fix_modify d1 demflag 1
fix_modify vf1 demflag 1
timestep 0.1
run 2000 pre no post no
Step CPU Atoms biomass c_myHeight c_myNtype[1] c_myNtype[2] c_myNtype[3] 
   82042            0      825 4.5122935e-12 4.7921555e-05            0          625          200 
   82082  0.015662909      825 4.5122935e-12 4.8078197e-05            0          625          200 
   83083   0.19767308      825 4.5122935e-12 4.8484308e-05            0          625          200 
   84042   0.32067394      825 4.5122935e-12 4.8441875e-05            0          625          200 
Loop time of 0.320699 on 4 procs for 2000 steps with 825 atoms

100.0% CPU use with 4 MPI tasks x no OpenMP threads
timestep 720
fix_modify k1 demflag 0
fix_modify d1 demflag 0
fix_modify vf1 demflag 0
Step CPU Atoms biomass c_myHeight c_myNtype[1] c_myNtype[2] c_myNtype[3] 
   84042            0      825 4.5122935e-12 4.8441875e-05            0          625          200 
number of iterations: 12760 
maxz = 6.601728e-05 
   84043   0.68778396      853 4.6553582e-12 4.8659258e-05            0          653          200 
Loop time of 0.687803 on 4 procs for 1 steps with 853 atoms

100.0% CPU use with 4 MPI tasks x no OpenMP threads
fix_modify k1 demflag 1
fix_modify d1 demflag 1
fix_modify vf1 demflag 1
timestep 0.1
run 2000 pre no post no
Step CPU Atoms biomass c_myHeight c_myNtype[1] c_myNtype[2] c_myNtype[3] 
   84043            0      853 4.6553582e-12 4.8659258e-05            0          653          200 
   84084  0.016078949      853 4.6553582e-12 4.9103225e-05            0          653          200 
   85085   0.20369983      853 4.6553582e-12 4.9393583e-05            0          653          200 
   86043   0.32771087      853 4.6553582e-12 4.950252e-05            0          653          200 
Loop time of 0.327735 on 4 procs for 2000 steps with 853 atoms

99.7% CPU use with 4 MPI tasks x no OpenMP threads
timestep 720
fix_modify k1 demflag 0
fix_modify d1 demflag 0
fix_modify vf1 demflag 0
Step CPU Atoms biomass c_myHeight c_myNtype[1] c_myNtype[2] c_myNtype[3] 
   86043            0      853 4.6553582e-12 4.950252e-05            0          653          200 
number of iterations: 13543 
maxz = 6.661463e-05 
   86044     0.780756      880 4.8030522e-12 4.9590932e-05            0          679          201 
Loop time of 0.780775 on 4 procs for 1 steps with 880 atoms

100.0% CPU use with 4 MPI tasks x no OpenMP threads
fix_modify k1 demflag 1
fix_modify d1 demflag 1
fix_modify vf1 demflag 1
timestep 0.1
run 2000 pre no post no
Step CPU Atoms biomass c_myHeight c_myNtype[1] c_myNtype[2] c_myNtype[3] 
   86044            0      880 4.8030522e-12 4.9590932e-05            0          679          201 
   86086  0.016710997      880 4.8030522e-12 5.0086117e-05            0          679          201 
   87087   0.20218682      880 4.8030522e-12 5.0758749e-05            0          679          201 
   88044     0.326792      880 4.8030522e-12 5.0856469e-05            0          679          201 
Loop time of 0.326815 on 4 procs for 2000 steps with 880 atoms

100.0% CPU use with 4 MPI tasks x no OpenMP threads
timestep 720
fix_modify k1 demflag 0
fix_modify d1 demflag 0
fix_modify vf1 demflag 0
Step CPU Atoms biomass c_myHeight c_myNtype[1] c_myNtype[2] c_myNtype[3] 
   88044            0      880 4.8030522e-12 5.0856469e-05            0          679          201 
number of iterations: 13546 
maxz = 6.698841e-05 
   88045   0.69993806      922 4.9555233e-12 5.1081586e-05            0          714          208 
Loop time of 0.699958 on 4 procs for 1 steps with 922 atoms

100.0% CPU use with 4 MPI tasks x no OpenMP threads
fix_modify k1 demflag 1
fix_modify d1 demflag 1
fix_modify vf1 demflag 1
timestep 0.1
run 2000 pre no post no
Step CPU Atoms biomass c_myHeight c_myNtype[1] c_myNtype[2] c_myNtype[3] 
   88045            0      922 4.9555233e-12 5.1081586e-05            0          714          208 
   88088  0.019113064      922 4.9555233e-12 5.1369208e-05            0          714          208 
   89089     0.222435      922 4.9555233e-12 5.1990953e-05            0          714          208 
   90045   0.37125897      922 4.9555233e-12 5.2129799e-05            0          714          208 
Loop time of 0.371283 on 4 procs for 2000 steps with 922 atoms

100.0% CPU use with 4 MPI tasks x no OpenMP threads
timestep 720
fix_modify k1 demflag 0
fix_modify d1 demflag 0
fix_modify vf1 demflag 0
Step CPU Atoms biomass c_myHeight c_myNtype[1] c_myNtype[2] c_myNtype[3] 
   90045            0      922 4.9555233e-12 5.2129799e-05            0          714          208 
number of iterations: 14189 
maxz = 6.855467e-05 
   90046    0.7948029      949 5.112885e-12 5.2067364e-05            0          735          214 
Loop time of 0.79482 on 4 procs for 1 steps with 949 atoms

100.0% CPU use with 4 MPI tasks x no OpenMP threads
fix_modify k1 demflag 1
fix_modify d1 demflag 1
fix_modify vf1 demflag 1
timestep 0.1
run 2000 pre no post no
Step CPU Atoms biomass c_myHeight c_myNtype[1] c_myNtype[2] c_myNtype[3] 
   90046            0      949 5.112885e-12 5.2067364e-05            0          735          214 
   90090  0.020004034      949 5.112885e-12 5.2636542e-05            0          735          214 
   91091   0.22373295      949 5.112885e-12 5.3015721e-05            0          735          214 
   92046   0.38091803      949 5.112885e-12 5.3020743e-05            0          735          214 
Loop time of 0.380941 on 4 procs for 2000 steps with 949 atoms

100.0% CPU use with 4 MPI tasks x no OpenMP threads
timestep 720
fix_modify k1 demflag 0
fix_modify d1 demflag 0
fix_modify vf1 demflag 0
Step CPU Atoms biomass c_myHeight c_myNtype[1] c_myNtype[2] c_myNtype[3] 
   92046            0      949 5.112885e-12 5.3020743e-05            0          735          214 
number of iterations: 14674 
maxz = 7.012011e-05 
   92047   0.78312302      982 5.2752547e-12 5.3358643e-05            0          758          224 
Loop time of 0.783143 on 4 procs for 1 steps with 982 atoms

100.0% CPU use with 4 MPI tasks x no OpenMP threads
fix_modify k1 demflag 1
fix_modify d1 demflag 1
fix_modify vf1 demflag 1
timestep 0.1
run 2000 pre no post no
Step CPU Atoms biomass c_myHeight c_myNtype[1] c_myNtype[2] c_myNtype[3] 
   92047            0      982 5.2752547e-12 5.3358643e-05            0          758          224 
   92092   0.02126193      982 5.2752547e-12 5.3841065e-05            0          758          224 
   93093   0.25029492      982 5.2752547e-12 5.4419679e-05            0          758          224 
   94047   0.42389202      982 5.2752547e-12 5.4516581e-05            0          758          224 
Loop time of 0.423915 on 4 procs for 2000 steps with 982 atoms

99.7% CPU use with 4 MPI tasks x no OpenMP threads
timestep 720
fix_modify k1 demflag 0
fix_modify d1 demflag 0
fix_modify vf1 demflag 0
Step CPU Atoms biomass c_myHeight c_myNtype[1] c_myNtype[2] c_myNtype[3] 
   94047            0      982 5.2752547e-12 5.4516581e-05            0          758          224 
number of iterations: 22222 
maxz = 7.083797e-05 
   94048    1.6653709     1010 5.4423953e-12 5.4623669e-05            0          779          231 
Loop time of 1.66538 on 4 procs for 1 steps with 1010 atoms

100.0% CPU use with 4 MPI tasks x no OpenMP threads
fix_modify k1 demflag 1
fix_modify d1 demflag 1
fix_modify vf1 demflag 1
timestep 0.1
run 2000 pre no post no
Step CPU Atoms biomass c_myHeight c_myNtype[1] c_myNtype[2] c_myNtype[3] 
   94048            0     1010 5.4423953e-12 5.4623669e-05            0          779          231 
   94094  0.020478964     1010 5.4423953e-12 5.5246414e-05            0          779          231 
   95095   0.24668384     1010 5.4423953e-12 5.5789811e-05            0          779          231 
   96048   0.40924692     1010 5.4423953e-12 5.5765491e-05            0          779          231 
Loop time of 0.409268 on 4 procs for 2000 steps with 1010 atoms

100.0% CPU use with 4 MPI tasks x no OpenMP threads
timestep 720
fix_modify k1 demflag 0
fix_modify d1 demflag 0
fix_modify vf1 demflag 0
Step CPU Atoms biomass c_myHeight c_myNtype[1] c_myNtype[2] c_myNtype[3] 
   96048            0     1010 5.4423953e-12 5.5765491e-05            0          779          231 
number of iterations: 17098 
maxz = 7.233600e-05 
   96049    1.0671351     1034 5.6147485e-12 5.5905717e-05            0          797          237 
Loop time of 1.06715 on 4 procs for 1 steps with 1034 atoms

100.0% CPU use with 4 MPI tasks x no OpenMP threads
fix_modify k1 demflag 1
fix_modify d1 demflag 1
fix_modify vf1 demflag 1
timestep 0.1
run 2000 pre no post no
Step CPU Atoms biomass c_myHeight c_myNtype[1] c_myNtype[2] c_myNtype[3] 
   96049            0     1034 5.6147485e-12 5.5905717e-05            0          797          237 
   96096  0.022106171     1034 5.6147485e-12 5.6381196e-05            0          797          237 
   97097    0.2547152     1034 5.6147485e-12 5.7020985e-05            0          797          237 
   98049   0.43937612     1034 5.6147485e-12 5.7073504e-05            0          797          237 
Loop time of 0.4394 on 4 procs for 2000 steps with 1034 atoms

100.0% CPU use with 4 MPI tasks x no OpenMP threads
timestep 720
fix_modify k1 demflag 0
fix_modify d1 demflag 0
fix_modify vf1 demflag 0
Step CPU Atoms biomass c_myHeight c_myNtype[1] c_myNtype[2] c_myNtype[3] 
   98049            0     1034 5.6147485e-12 5.7073504e-05            0          797          237 
number of iterations: 17692 
maxz = 7.678303e-05 
   98050    1.0115681     1062 5.7924229e-12 5.7222171e-05            0          814          248 
Loop time of 1.01159 on 4 procs for 1 steps with 1062 atoms

100.0% CPU use with 4 MPI tasks x no OpenMP threads
fix_modify k1 demflag 1
fix_modify d1 demflag 1
fix_modify vf1 demflag 1
timestep 0.1
run 2000 pre no post no
Step CPU Atoms biomass c_myHeight c_myNtype[1] c_myNtype[2] c_myNtype[3] 
   98050            0     1062 5.7924229e-12 5.7222171e-05            0          814          248 
   98098  0.025250912     1062 5.7924229e-12 5.7592837e-05            0          814          248 
   99099   0.27447796     1062 5.7924229e-12 5.8445088e-05            0          814          248 
  100050   0.45798898     1062 5.7924229e-12 5.8581046e-05            0          814          248 
Loop time of 0.458012 on 4 procs for 2000 steps with 1062 atoms

100.0% CPU use with 4 MPI tasks x no OpenMP threads
timestep 720
fix_modify k1 demflag 0
fix_modify d1 demflag 0
fix_modify vf1 demflag 0
Step CPU Atoms biomass c_myHeight c_myNtype[1] c_myNtype[2] c_myNtype[3] 
  100050            0     1062 5.7924229e-12 5.8581046e-05            0          814          248 
number of iterations: 18156 
maxz = 7.826515e-05 
  100051    1.0827119     1088 5.9755422e-12 5.8799996e-05            0          828          260 
Loop time of 1.08273 on 4 procs for 1 steps with 1088 atoms

99.9% CPU use with 4 MPI tasks x no OpenMP threads
fix_modify k1 demflag 1
fix_modify d1 demflag 1
fix_modify vf1 demflag 1
timestep 0.1
run 2000 pre no post no
Step CPU Atoms biomass c_myHeight c_myNtype[1] c_myNtype[2] c_myNtype[3] 
  100051            0     1088 5.9755422e-12 5.8799996e-05            0          828          260 
  100100  0.025982141     1088 5.9755422e-12 5.9096542e-05            0          828          260 
  101101   0.29017901     1088 5.9755422e-12 5.9871299e-05            0          828          260 
  102051   0.48080516     1088 5.9755422e-12 6.0021232e-05            0          828          260 
Loop time of 0.480825 on 4 procs for 2000 steps with 1088 atoms

100.0% CPU use with 4 MPI tasks x no OpenMP threads
timestep 720
fix_modify k1 demflag 0
fix_modify d1 demflag 0
fix_modify vf1 demflag 0
Step CPU Atoms biomass c_myHeight c_myNtype[1] c_myNtype[2] c_myNtype[3] 
  102051            0     1088 5.9755422e-12 6.0021232e-05            0          828          260 
number of iterations: 18657 
maxz = 7.898780e-05 
  102052     1.122159     1115 6.1642168e-12 6.0126101e-05            0          849          266 
Loop time of 1.12218 on 4 procs for 1 steps with 1115 atoms

100.0% CPU use with 4 MPI tasks x no OpenMP threads
fix_modify k1 demflag 1
fix_modify d1 demflag 1
fix_modify vf1 demflag 1
timestep 0.1
run 2000 pre no post no
Step CPU Atoms biomass c_myHeight c_myNtype[1] c_myNtype[2] c_myNtype[3] 
  102052            0     1115 6.1642168e-12 6.0126101e-05            0          849          266 
  102102  0.024286032     1115 6.1642168e-12 6.0612652e-05            0          849          266 
  103103   0.28766894     1115 6.1642168e-12 6.1264417e-05            0          849          266 
  104052   0.49645495     1115 6.1642168e-12 6.1531742e-05            0          849          266 
Loop time of 0.496492 on 4 procs for 2000 steps with 1115 atoms

100.0% CPU use with 4 MPI tasks x no OpenMP threads
timestep 720
fix_modify k1 demflag 0
fix_modify d1 demflag 0
fix_modify vf1 demflag 0
Step CPU Atoms biomass c_myHeight c_myNtype[1] c_myNtype[2] c_myNtype[3] 
  104052            0     1115 6.1642168e-12 6.1531742e-05            0          849          266 
number of iterations: 19445 
maxz = 8.030691e-05 
  104053     1.242857     1146 6.358529e-12 6.1498788e-05            0          867          279 
Loop time of 1.24287 on 4 procs for 1 steps with 1146 atoms

100.0% CPU use with 4 MPI tasks x no OpenMP threads
fix_modify k1 demflag 1
fix_modify d1 demflag 1
fix_modify vf1 demflag 1
timestep 0.1
run 2000 pre no post no
Step CPU Atoms biomass c_myHeight c_myNtype[1] c_myNtype[2] c_myNtype[3] 
  104053            0     1146 6.358529e-12 6.1498788e-05            0          867          279 
  104104  0.028928995     1146 6.358529e-12 6.2080677e-05            0          867          279 
  105105   0.30936098     1146 6.358529e-12 6.266618e-05            0          867          279 
  106053   0.52332306     1146 6.358529e-12 6.2966838e-05            0          867          279 
Loop time of 0.523344 on 4 procs for 2000 steps with 1146 atoms

99.8% CPU use with 4 MPI tasks x no OpenMP threads
timestep 720
fix_modify k1 demflag 0
fix_modify d1 demflag 0
fix_modify vf1 demflag 0
Step CPU Atoms biomass c_myHeight c_myNtype[1] c_myNtype[2] c_myNtype[3] 
  106053            0     1146 6.358529e-12 6.2966838e-05            0          867          279 
number of iterations: 29619 
maxz = 8.277607e-05 
  106054    2.3500581     1188  6.55791e-12 6.3143438e-05            0          901          287 
Loop time of 2.35007 on 4 procs for 1 steps with 1188 atoms

100.0% CPU use with 4 MPI tasks x no OpenMP threads
fix_modify k1 demflag 1
fix_modify d1 demflag 1
fix_modify vf1 demflag 1
timestep 0.1
run 2000 pre no post no
Step CPU Atoms biomass c_myHeight c_myNtype[1] c_myNtype[2] c_myNtype[3] 
  106054            0     1188  6.55791e-12 6.3143438e-05            0          901          287 
  106106  0.030737877     1188  6.55791e-12 6.3422383e-05            0          901          287 
  107107   0.32700896     1188  6.55791e-12 6.4190696e-05            0          901          287 
  108054   0.55396295     1188  6.55791e-12 6.4504783e-05            0          901          287 
Loop time of 0.553986 on 4 procs for 2000 steps with 1188 atoms

100.0% CPU use with 4 MPI tasks x no OpenMP threads
timestep 720
fix_modify k1 demflag 0
fix_modify d1 demflag 0
fix_modify vf1 demflag 0
Step CPU Atoms biomass c_myHeight c_myNtype[1] c_myNtype[2] c_myNtype[3] 
  108054            0     1188  6.55791e-12 6.4504783e-05            0          901          287 
number of iterations: 22466 
maxz = 8.456057e-05 
  108055    1.5013731     1232 6.7630313e-12 6.4682994e-05            0          937          295 
Loop time of 1.50139 on 4 procs for 1 steps with 1232 atoms

99.9% CPU use with 4 MPI tasks x no OpenMP threads
fix_modify k1 demflag 1
fix_modify d1 demflag 1
fix_modify vf1 demflag 1
timestep 0.1
run 2000 pre no post no
Step CPU Atoms biomass c_myHeight c_myNtype[1] c_myNtype[2] c_myNtype[3] 
  108055            0     1232 6.7630313e-12 6.4682994e-05            0          937          295 
  108108  0.032885075     1232 6.7630313e-12 6.5440591e-05            0          937          295 
  109109   0.37085104     1232 6.7630313e-12 6.6263069e-05            0          937          295 
  110055   0.61782289     1232 6.7630313e-12 6.6586056e-05            0          937          295 
Loop time of 0.617844 on 4 procs for 2000 steps with 1232 atoms

100.0% CPU use with 4 MPI tasks x no OpenMP threads
timestep 720
fix_modify k1 demflag 0
fix_modify d1 demflag 0
fix_modify vf1 demflag 0
Step CPU Atoms biomass c_myHeight c_myNtype[1] c_myNtype[2] c_myNtype[3] 
  110055            0     1232 6.7630313e-12 6.6586056e-05            0          937          295 
number of iterations: 22850 
maxz = 8.565120e-05 
  110056     1.453161     1272 6.9740039e-12 6.6686052e-05            0          972          300 
Loop time of 1.45318 on 4 procs for 1 steps with 1272 atoms

99.8% CPU use with 4 MPI tasks x no OpenMP threads
fix_modify k1 demflag 1
fix_modify d1 demflag 1
fix_modify vf1 demflag 1
timestep 0.1
run 2000 pre no post no
Step CPU Atoms biomass c_myHeight c_myNtype[1] c_myNtype[2] c_myNtype[3] 
  110056            0     1272 6.9740039e-12 6.6686052e-05            0          972          300 
  110110  0.034259081     1272 6.9740039e-12 6.7173703e-05            0          972          300 
  111111   0.34535909     1272 6.9740039e-12 6.7883019e-05            0          972          300 
  112056     0.589643     1272 6.9740039e-12 6.8249369e-05            0          972          300 
Loop time of 0.589665 on 4 procs for 2000 steps with 1272 atoms

100.0% CPU use with 4 MPI tasks x no OpenMP threads
timestep 720
fix_modify k1 demflag 0
fix_modify d1 demflag 0
fix_modify vf1 demflag 0
Step CPU Atoms biomass c_myHeight c_myNtype[1] c_myNtype[2] c_myNtype[3] 
  112056            0     1272 6.9740039e-12 6.8249369e-05            0          972          300 
number of iterations: 24283 
maxz = 8.774349e-05 
  112057    1.6157401     1321 7.190815e-12 6.8290768e-05            0         1013          308 
Loop time of 1.61576 on 4 procs for 1 steps with 1321 atoms

100.0% CPU use with 4 MPI tasks x no OpenMP threads
fix_modify k1 demflag 1
fix_modify d1 demflag 1
fix_modify vf1 demflag 1
timestep 0.1
run 2000 pre no post no
Step CPU Atoms biomass c_myHeight c_myNtype[1] c_myNtype[2] c_myNtype[3] 
  112057            0     1321 7.190815e-12 6.8290768e-05            0         1013          308 
  112112  0.035966873     1321 7.190815e-12 6.9041791e-05            0         1013          308 
  113113   0.37854385     1321 7.190815e-12 6.9798139e-05            0         1013          308 
  114057   0.62505388     1321 7.190815e-12 7.022765e-05            0         1013          308 
Loop time of 0.625076 on 4 procs for 2000 steps with 1321 atoms

100.0% CPU use with 4 MPI tasks x no OpenMP threads
timestep 720
fix_modify k1 demflag 0
fix_modify d1 demflag 0
fix_modify vf1 demflag 0
Step CPU Atoms biomass c_myHeight c_myNtype[1] c_myNtype[2] c_myNtype[3] 
  114057            0     1321 7.190815e-12 7.022765e-05            0         1013          308 
number of iterations: 24518 
maxz = 9.017366e-05 
  114058     1.502008     1377 7.4135714e-12 7.0476497e-05            0         1062          315 
Loop time of 1.50202 on 4 procs for 1 steps with 1377 atoms

99.9% CPU use with 4 MPI tasks x no OpenMP threads
fix_modify k1 demflag 1
fix_modify d1 demflag 1
fix_modify vf1 demflag 1
timestep 0.1
run 2000 pre no post no
Step CPU Atoms biomass c_myHeight c_myNtype[1] c_myNtype[2] c_myNtype[3] 
  114058            0     1377 7.4135714e-12 7.0476497e-05            0         1062          315 
  114114  0.039115191     1377 7.4135714e-12 7.1610801e-05            0         1062          315 
  115115   0.38004899     1377 7.4135714e-12 7.2252946e-05            0         1062          315 
  116058   0.64147401     1377 7.4135714e-12 7.2413821e-05            0         1062          315 
Loop time of 0.641495 on 4 procs for 2000 steps with 1377 atoms

100.0% CPU use with 4 MPI tasks x no OpenMP threads
timestep 720
fix_modify k1 demflag 0
fix_modify d1 demflag 0
fix_modify vf1 demflag 0
Step CPU Atoms biomass c_myHeight c_myNtype[1] c_myNtype[2] c_myNtype[3] 
  116058            0     1377 7.4135714e-12 7.2413821e-05            0         1062          315 
number of iterations: 38042 
maxz = 9.517333e-05 
  116059     3.256058     1426 7.6411317e-12 7.2423931e-05            0         1101          325 
Loop time of 3.25608 on 4 procs for 1 steps with 1426 atoms

100.0% CPU use with 4 MPI tasks x no OpenMP threads
fix_modify k1 demflag 1
fix_modify d1 demflag 1
fix_modify vf1 demflag 1
timestep 0.1
run 2000 pre no post no
Step CPU Atoms biomass c_myHeight c_myNtype[1] c_myNtype[2] c_myNtype[3] 
  116059            0     1426 7.6411317e-12 7.2423931e-05            0         1101          325 
  116116  0.039194107     1426 7.6411317e-12 7.2879065e-05            0         1101          325 
  117117   0.41421914     1426 7.6411317e-12 7.3922258e-05            0         1101          325 
  118059   0.69797707     1426 7.6411317e-12 7.4177183e-05            0         1101          325 
Loop time of 0.698 on 4 procs for 2000 steps with 1426 atoms

100.0% CPU use with 4 MPI tasks x no OpenMP threads
timestep 720
fix_modify k1 demflag 0
fix_modify d1 demflag 0
fix_modify vf1 demflag 0
Step CPU Atoms biomass c_myHeight c_myNtype[1] c_myNtype[2] c_myNtype[3] 
  118059            0     1426 7.6411317e-12 7.4177183e-05            0         1101          325 
number of iterations: 28173 
maxz = 9.819800e-05 
  118060    2.1113682     1489 7.8745284e-12 7.4353243e-05            0         1153          336 
Loop time of 2.11139 on 4 procs for 1 steps with 1489 atoms

100.0% CPU use with 4 MPI tasks x no OpenMP threads
fix_modify k1 demflag 1
fix_modify d1 demflag 1
fix_modify vf1 demflag 1
timestep 0.1
run 2000 pre no post no
Step CPU Atoms biomass c_myHeight c_myNtype[1] c_myNtype[2] c_myNtype[3] 
  118060            0     1489 7.8745284e-12 7.4353243e-05            0         1153          336 
  118118   0.04320097     1489 7.8745284e-12 7.5155219e-05            0         1153          336 
  119119   0.43673182     1489 7.8745284e-12 7.5854523e-05            0         1153          336 
  120060    0.7293098     1489 7.8745284e-12 7.6358561e-05            0         1153          336 
Loop time of 0.729333 on 4 procs for 2000 steps with 1489 atoms

99.8% CPU use with 4 MPI tasks x no OpenMP threads
timestep 720
fix_modify k1 demflag 0
fix_modify d1 demflag 0
fix_modify vf1 demflag 0
Step CPU Atoms biomass c_myHeight c_myNtype[1] c_myNtype[2] c_myNtype[3] 
  120060            0     1489 7.8745284e-12 7.6358561e-05            0         1153          336 
number of iterations: 29374 
maxz = 9.959943e-05 
  120061    2.0142181     1548 8.113733e-12 7.660103e-05            0         1206          342 
Loop time of 2.01424 on 4 procs for 1 steps with 1548 atoms

99.9% CPU use with 4 MPI tasks x no OpenMP threads
fix_modify k1 demflag 1
fix_modify d1 demflag 1
fix_modify vf1 demflag 1
timestep 0.1
run 2000 pre no post no
Step CPU Atoms biomass c_myHeight c_myNtype[1] c_myNtype[2] c_myNtype[3] 
  120061            0     1548 8.113733e-12 7.660103e-05            0         1206          342 
  120120  0.049080133     1548 8.113733e-12 7.7656838e-05            0         1206          342 
  121121   0.46676517     1548 8.113733e-12  7.84119e-05            0         1206          342 
  122061   0.77870917     1548 8.113733e-12 7.8939697e-05            0         1206          342 
Loop time of 0.77873 on 4 procs for 2000 steps with 1548 atoms

99.7% CPU use with 4 MPI tasks x no OpenMP threads
timestep 720
fix_modify k1 demflag 0
fix_modify d1 demflag 0
fix_modify vf1 demflag 0
Step CPU Atoms biomass c_myHeight c_myNtype[1] c_myNtype[2] c_myNtype[3] 
  122061            0     1548 8.113733e-12 7.8939697e-05            0         1206          342 
number of iterations: 29796 
maxz = 1.004421e-04 
  122062    2.1258659     1613 8.3587749e-12 7.9144538e-05            0         1261          352 
Loop time of 2.12589 on 4 procs for 1 steps with 1613 atoms

99.9% CPU use with 4 MPI tasks x no OpenMP threads
fix_modify k1 demflag 1
fix_modify d1 demflag 1
fix_modify vf1 demflag 1
timestep 0.1
run 2000 pre no post no
Step CPU Atoms biomass c_myHeight c_myNtype[1] c_myNtype[2] c_myNtype[3] 
  122062            0     1613 8.3587749e-12 7.9144538e-05            0         1261          352 
  122122   0.04656291     1613 8.3587749e-12 7.9917848e-05            0         1261          352 
  123123   0.47163987     1613 8.3587749e-12 8.0683112e-05            0         1261          352 
  124062   0.79498386     1613 8.3587749e-12 8.0896971e-05            0         1261          352 
Loop time of 0.795004 on 4 procs for 2000 steps with 1613 atoms

100.0% CPU use with 4 MPI tasks x no OpenMP threads
timestep 720
fix_modify k1 demflag 0
fix_modify d1 demflag 0
fix_modify vf1 demflag 0
Step CPU Atoms biomass c_myHeight c_myNtype[1] c_myNtype[2] c_myNtype[3] 
  124062            0     1613 8.3587749e-12 8.0896971e-05            0         1261          352 
number of iterations: 47020 
maxz = 1.013394e-04 
  124063    4.2459981     1673 8.6077462e-12 8.1046838e-05            0         1312          361 
Loop time of 4.24602 on 4 procs for 1 steps with 1673 atoms

100.0% CPU use with 4 MPI tasks x no OpenMP threads
fix_modify k1 demflag 1
fix_modify d1 demflag 1
fix_modify vf1 demflag 1
timestep 0.1
run 2000 pre no post no
Step CPU Atoms biomass c_myHeight c_myNtype[1] c_myNtype[2] c_myNtype[3] 
  124063            0     1673 8.6077462e-12 8.1046838e-05            0         1312          361 
  124124  0.050836086     1673 8.6077462e-12 8.2034477e-05            0         1312          361 
  125125   0.50002003     1673 8.6077462e-12 8.2772045e-05            0         1312          361 
  126063   0.84689903     1673 8.6077462e-12 8.3250045e-05            0         1312          361 
Loop time of 0.84692 on 4 procs for 2000 steps with 1673 atoms

99.9% CPU use with 4 MPI tasks x no OpenMP threads
timestep 720
fix_modify k1 demflag 0
fix_modify d1 demflag 0
fix_modify vf1 demflag 0
Step CPU Atoms biomass c_myHeight c_myNtype[1] c_myNtype[2] c_myNtype[3] 
  126063            0     1673 8.6077462e-12 8.3250045e-05            0         1312          361 
[...]
S-nh4-base = 1.711475e-02

number of iterations: 63 
S-sub-bulk = 5.559225e-03
S-sub-base = 2.363007e-04
S-nh4-bulk = 1.913693e-02
S-nh4-base = 1.711471e-02

number of iterations: 63 
S-sub-bulk = 5.558973e-03
S-sub-base = 2.362994e-04
S-nh4-bulk = 1.913704e-02
S-nh4-base = 1.711467e-02

number of iterations: 63 
S-sub-bulk = 5.558723e-03
S-sub-base = 2.362982e-04
S-nh4-bulk = 1.913714e-02
S-nh4-base = 1.711463e-02

number of iterations: 63 
S-sub-bulk = 5.558473e-03
S-sub-base = 2.362969e-04
S-nh4-bulk = 1.913724e-02
S-nh4-base = 1.711459e-02

number of iterations: 63 
S-sub-bulk = 5.558224e-03
S-sub-base = 2.362956e-04
S-nh4-bulk = 1.913734e-02
S-nh4-base = 1.711455e-02

number of iterations: 63 
S-sub-bulk = 5.557975e-03
S-sub-base = 2.362943e-04
S-nh4-bulk = 1.913743e-02
S-nh4-base = 1.711451e-02

number of iterations: 63 
S-sub-bulk = 5.557729e-03
S-sub-base = 2.362931e-04
S-nh4-bulk = 1.913752e-02
S-nh4-base = 1.711447e-02

number of iterations: 63 
S-sub-bulk = 5.557482e-03
S-sub-base = 2.362918e-04
S-nh4-bulk = 1.913760e-02
S-nh4-base = 1.711443e-02

number of iterations: 63 
S-sub-bulk = 5.557237e-03
S-sub-base = 2.362906e-04
S-nh4-bulk = 1.913768e-02
S-nh4-base = 1.711440e-02

number of iterations: 63 
S-sub-bulk = 5.556993e-03
S-sub-base = 2.362893e-04
S-nh4-bulk = 1.913777e-02
S-nh4-base = 1.711436e-02

number of iterations: 63 
S-sub-bulk = 5.556749e-03
S-sub-base = 2.362880e-04
S-nh4-bulk = 1.913784e-02
S-nh4-base = 1.711432e-02

number of iterations: 63 
S-sub-bulk = 5.556506e-03
S-sub-base = 2.362867e-04
S-nh4-bulk = 1.913792e-02
S-nh4-base = 1.711429e-02

number of iterations: 63 
S-sub-bulk = 5.556264e-03
S-sub-base = 2.362854e-04
S-nh4-bulk = 1.913800e-02
S-nh4-base = 1.711425e-02

number of iterations: 63 
S-sub-bulk = 5.556022e-03
S-sub-base = 2.362841e-04
S-nh4-bulk = 1.913807e-02
S-nh4-base = 1.711422e-02

number of iterations: 63 
S-sub-bulk = 5.555781e-03
S-sub-base = 2.362829e-04
S-nh4-bulk = 1.913815e-02
S-nh4-base = 1.711418e-02

number of iterations: 63 
S-sub-bulk = 5.555541e-03
S-sub-base = 2.362816e-04
S-nh4-bulk = 1.913822e-02
S-nh4-base = 1.711414e-02

number of iterations: 63 
S-sub-bulk = 5.555301e-03
S-sub-base = 2.362803e-04
S-nh4-bulk = 1.913829e-02
S-nh4-base = 1.711411e-02

number of iterations: 63 
S-sub-bulk = 5.555063e-03
S-sub-base = 2.362791e-04
S-nh4-bulk = 1.913837e-02
S-nh4-base = 1.711408e-02

number of iterations: 63 
S-sub-bulk = 5.554824e-03
S-sub-base = 2.362778e-04
S-nh4-bulk = 1.913844e-02
S-nh4-base = 1.711404e-02

number of iterations: 63 
S-sub-bulk = 5.554588e-03
S-sub-base = 2.362765e-04
S-nh4-bulk = 1.913851e-02
S-nh4-base = 1.711401e-02

number of iterations: 63 
S-sub-bulk = 5.554351e-03
S-sub-base = 2.362752e-04
S-nh4-bulk = 1.913858e-02
S-nh4-base = 1.711397e-02

number of iterations: 63 
S-sub-bulk = 5.554115e-03
S-sub-base = 2.362739e-04
S-nh4-bulk = 1.913865e-02
S-nh4-base = 1.711394e-02

number of iterations: 63 
S-sub-bulk = 5.553880e-03
S-sub-base = 2.362727e-04
S-nh4-bulk = 1.913872e-02
S-nh4-base = 1.711390e-02

number of iterations: 63 
S-sub-bulk = 5.553645e-03
S-sub-base = 2.362714e-04
S-nh4-bulk = 1.913879e-02
S-nh4-base = 1.711387e-02

number of iterations: 63 
S-sub-bulk = 5.553411e-03
S-sub-base = 2.362701e-04
S-nh4-bulk = 1.913886e-02
S-nh4-base = 1.711383e-02

number of iterations: 63 
S-sub-bulk = 5.553178e-03
S-sub-base = 2.362688e-04
S-nh4-bulk = 1.913892e-02
S-nh4-base = 1.711380e-02

number of iterations: 63 
S-sub-bulk = 5.552945e-03
S-sub-base = 2.362675e-04
S-nh4-bulk = 1.913899e-02
S-nh4-base = 1.711377e-02

number of iterations: 63 
S-sub-bulk = 5.552713e-03
S-sub-base = 2.362663e-04
S-nh4-bulk = 1.913906e-02
S-nh4-base = 1.711373e-02

number of iterations: 63 
S-sub-bulk = 5.552482e-03
S-sub-base = 2.362650e-04
S-nh4-bulk = 1.913913e-02
S-nh4-base = 1.711370e-02

number of iterations: 63 
S-sub-bulk = 5.552250e-03
S-sub-base = 2.362637e-04
S-nh4-bulk = 1.913920e-02
S-nh4-base = 1.711367e-02

number of iterations: 63 
S-sub-bulk = 5.552020e-03
S-sub-base = 2.362625e-04
S-nh4-bulk = 1.913926e-02
S-nh4-base = 1.711363e-02

number of iterations: 63 
S-sub-bulk = 5.551790e-03
S-sub-base = 2.362612e-04
S-nh4-bulk = 1.913933e-02
S-nh4-base = 1.711360e-02

number of iterations: 63 
S-sub-bulk = 5.551560e-03
S-sub-base = 2.362599e-04
S-nh4-bulk = 1.913940e-02
S-nh4-base = 1.711357e-02

number of iterations: 63 
S-sub-bulk = 5.551332e-03
S-sub-base = 2.362586e-04
S-nh4-bulk = 1.913947e-02
S-nh4-base = 1.711353e-02

number of iterations: 63 
S-sub-bulk = 5.551104e-03
S-sub-base = 2.362573e-04
S-nh4-bulk = 1.913953e-02
S-nh4-base = 1.711350e-02

number of iterations: 63 
S-sub-bulk = 5.550876e-03
S-sub-base = 2.362560e-04
S-nh4-bulk = 1.913960e-02
S-nh4-base = 1.711347e-02

number of iterations: 63 
S-sub-bulk = 5.550649e-03
S-sub-base = 2.362548e-04
S-nh4-bulk = 1.913967e-02
S-nh4-base = 1.711343e-02

number of iterations: 63 
S-sub-bulk = 5.550423e-03
S-sub-base = 2.362535e-04
S-nh4-bulk = 1.913974e-02
S-nh4-base = 1.711340e-02

number of iterations: 63 
S-sub-bulk = 5.550196e-03
S-sub-base = 2.362522e-04
S-nh4-bulk = 1.913980e-02
S-nh4-base = 1.711337e-02

number of iterations: 63 
S-sub-bulk = 5.549970e-03
S-sub-base = 2.362509e-04
S-nh4-bulk = 1.913987e-02
S-nh4-base = 1.711334e-02

number of iterations: 63 
S-sub-bulk = 5.549745e-03
S-sub-base = 2.362496e-04
S-nh4-bulk = 1.913994e-02
S-nh4-base = 1.711330e-02

number of iterations: 63 
S-sub-bulk = 5.549521e-03
S-sub-base = 2.362483e-04
S-nh4-bulk = 1.914000e-02
S-nh4-base = 1.711327e-02

number of iterations: 63 
S-sub-bulk = 5.549296e-03
S-sub-base = 2.362470e-04
S-nh4-bulk = 1.914007e-02
S-nh4-base = 1.711324e-02

number of iterations: 63 
S-sub-bulk = 5.549074e-03
S-sub-base = 2.362458e-04
S-nh4-bulk = 1.914014e-02
S-nh4-base = 1.711321e-02

number of iterations: 63 
S-sub-bulk = 5.548851e-03
S-sub-base = 2.362445e-04
S-nh4-bulk = 1.914020e-02
S-nh4-base = 1.711317e-02

number of iterations: 63 
S-sub-bulk = 5.548629e-03
S-sub-base = 2.362432e-04
S-nh4-bulk = 1.914027e-02
S-nh4-base = 1.711314e-02

number of iterations: 63 
S-sub-bulk = 5.548406e-03
S-sub-base = 2.362419e-04
S-nh4-bulk = 1.914034e-02
S-nh4-base = 1.711311e-02

number of iterations: 63 
S-sub-bulk = 5.548184e-03
S-sub-base = 2.362406e-04
S-nh4-bulk = 1.914040e-02
S-nh4-base = 1.711308e-02

number of iterations: 63 
S-sub-bulk = 5.547964e-03
S-sub-base = 2.362393e-04
S-nh4-bulk = 1.914047e-02
S-nh4-base = 1.711304e-02

number of iterations: 63 
S-sub-bulk = 5.547743e-03
S-sub-base = 2.362380e-04
S-nh4-bulk = 1.914053e-02
S-nh4-base = 1.711301e-02

number of iterations: 63 
S-sub-bulk = 5.547523e-03
S-sub-base = 2.362367e-04
S-nh4-bulk = 1.914060e-02
S-nh4-base = 1.711298e-02

number of iterations: 63 
S-sub-bulk = 5.547303e-03
S-sub-base = 2.362354e-04
S-nh4-bulk = 1.914067e-02
S-nh4-base = 1.711295e-02

number of iterations: 63 
S-sub-bulk = 5.547084e-03
S-sub-base = 2.362341e-04
S-nh4-bulk = 1.914073e-02
S-nh4-base = 1.711291e-02

number of iterations: 63 
S-sub-bulk = 5.546865e-03
S-sub-base = 2.362328e-04
S-nh4-bulk = 1.914080e-02
S-nh4-base = 1.711288e-02

number of iterations: 63 
S-sub-bulk = 5.546647e-03
S-sub-base = 2.362315e-04
S-nh4-bulk = 1.914087e-02
S-nh4-base = 1.711285e-02

number of iterations: 63 
S-sub-bulk = 5.546430e-03
S-sub-base = 2.362302e-04
S-nh4-bulk = 1.914093e-02
S-nh4-base = 1.711282e-02

number of iterations: 63 
S-sub-bulk = 5.546213e-03
S-sub-base = 2.362289e-04
S-nh4-bulk = 1.914100e-02
S-nh4-base = 1.711278e-02

number of iterations: 63 
S-sub-bulk = 5.545996e-03
S-sub-base = 2.362276e-04
S-nh4-bulk = 1.914106e-02
S-nh4-base = 1.711275e-02

number of iterations: 63 
S-sub-bulk = 5.545779e-03
S-sub-base = 2.362263e-04
S-nh4-bulk = 1.914113e-02
S-nh4-base = 1.711272e-02

number of iterations: 63 
S-sub-bulk = 5.545563e-03
S-sub-base = 2.362250e-04
S-nh4-bulk = 1.914120e-02
S-nh4-base = 1.711269e-02

number of iterations: 63 
S-sub-bulk = 5.545347e-03
S-sub-base = 2.362237e-04
S-nh4-bulk = 1.914126e-02
S-nh4-base = 1.711266e-02

number of iterations: 63 
S-sub-bulk = 5.545132e-03
S-sub-base = 2.362224e-04
S-nh4-bulk = 1.914133e-02
S-nh4-base = 1.711263e-02

number of iterations: 63 
S-sub-bulk = 5.544917e-03
S-sub-base = 2.362211e-04
S-nh4-bulk = 1.914139e-02
S-nh4-base = 1.711259e-02

number of iterations: 64 
S-sub-bulk = 5.544703e-03
S-sub-base = 2.362198e-04
S-nh4-bulk = 1.914146e-02
S-nh4-base = 1.711256e-02

number of iterations: 63 
S-sub-bulk = 5.544489e-03
S-sub-base = 2.362185e-04
S-nh4-bulk = 1.914152e-02
S-nh4-base = 1.711253e-02

number of iterations: 63 
S-sub-bulk = 5.544275e-03
S-sub-base = 2.362172e-04
S-nh4-bulk = 1.914159e-02
S-nh4-base = 1.711250e-02

number of iterations: 63 
S-sub-bulk = 5.544062e-03
S-sub-base = 2.362159e-04
S-nh4-bulk = 1.914166e-02
S-nh4-base = 1.711247e-02

number of iterations: 63 
S-sub-bulk = 5.543850e-03
S-sub-base = 2.362146e-04
S-nh4-bulk = 1.914172e-02
S-nh4-base = 1.711244e-02

number of iterations: 63 
S-sub-bulk = 5.543637e-03
S-sub-base = 2.362133e-04
S-nh4-bulk = 1.914179e-02
S-nh4-base = 1.711241e-02

number of iterations: 63 
S-sub-bulk = 5.543426e-03
S-sub-base = 2.362120e-04
S-nh4-bulk = 1.914185e-02
S-nh4-base = 1.711237e-02

number of iterations: 64 
S-sub-bulk = 5.543215e-03
S-sub-base = 2.362107e-04
S-nh4-bulk = 1.914192e-02
S-nh4-base = 1.711234e-02

number of iterations: 63 
S-sub-bulk = 5.543003e-03
S-sub-base = 2.362093e-04
S-nh4-bulk = 1.914198e-02
S-nh4-base = 1.711231e-02

number of iterations: 63 
S-sub-bulk = 5.542792e-03
S-sub-base = 2.362080e-04
S-nh4-bulk = 1.914205e-02
S-nh4-base = 1.711228e-02

number of iterations: 63 
S-sub-bulk = 5.542581e-03
S-sub-base = 2.362067e-04
S-nh4-bulk = 1.914211e-02
S-nh4-base = 1.711225e-02

number of iterations: 63 
S-sub-bulk = 5.542371e-03
S-sub-base = 2.362054e-04
S-nh4-bulk = 1.914218e-02
S-nh4-base = 1.711222e-02

number of iterations: 63 
S-sub-bulk = 5.542162e-03
S-sub-base = 2.362041e-04
S-nh4-bulk = 1.914224e-02
S-nh4-base = 1.711219e-02

number of iterations: 64 
S-sub-bulk = 5.541953e-03
S-sub-base = 2.362028e-04
S-nh4-bulk = 1.914231e-02
S-nh4-base = 1.711215e-02

number of iterations: 63 
S-sub-bulk = 5.541744e-03
S-sub-base = 2.362014e-04
S-nh4-bulk = 1.914238e-02
S-nh4-base = 1.711212e-02

number of iterations: 63 
S-sub-bulk = 5.541535e-03
S-sub-base = 2.362001e-04
S-nh4-bulk = 1.914244e-02
S-nh4-base = 1.711209e-02

number of iterations: 63 
S-sub-bulk = 5.541327e-03
S-sub-base = 2.361988e-04
S-nh4-bulk = 1.914251e-02
S-nh4-base = 1.711206e-02

number of iterations: 63 
S-sub-bulk = 5.541120e-03
S-sub-base = 2.361975e-04
S-nh4-bulk = 1.914257e-02
S-nh4-base = 1.711203e-02

number of iterations: 63 
S-sub-bulk = 5.540912e-03
S-sub-base = 2.361961e-04
S-nh4-bulk = 1.914264e-02
S-nh4-base = 1.711200e-02

number of iterations: 64 
S-sub-bulk = 5.540705e-03
S-sub-base = 2.361948e-04
S-nh4-bulk = 1.914270e-02
S-nh4-base = 1.711197e-02

number of iterations: 63 
S-sub-bulk = 5.540499e-03
S-sub-base = 2.361935e-04
S-nh4-bulk = 1.914277e-02
S-nh4-base = 1.711194e-02

number of iterations: 63 
S-sub-bulk = 5.540292e-03
S-sub-base = 2.361921e-04
S-nh4-bulk = 1.914283e-02
S-nh4-base = 1.711191e-02

number of iterations: 63 
S-sub-bulk = 5.540087e-03
S-sub-base = 2.361908e-04
S-nh4-bulk = 1.914290e-02
S-nh4-base = 1.711188e-02

number of iterations: 63 
S-sub-bulk = 5.539882e-03
S-sub-base = 2.361895e-04
S-nh4-bulk = 1.914296e-02
S-nh4-base = 1.711185e-02

number of iterations: 64 
S-sub-bulk = 5.539676e-03
S-sub-base = 2.361881e-04
S-nh4-bulk = 1.914303e-02
S-nh4-base = 1.711182e-02

number of iterations: 63 
S-sub-bulk = 5.539472e-03
S-sub-base = 2.361868e-04
S-nh4-bulk = 1.914309e-02
S-nh4-base = 1.711179e-02

number of iterations: 63 
S-sub-bulk = 5.539267e-03
S-sub-base = 2.361855e-04
S-nh4-bulk = 1.914316e-02
S-nh4-base = 1.711175e-02

number of iterations: 63 
S-sub-bulk = 5.539063e-03
S-sub-base = 2.361841e-04
S-nh4-bulk = 1.914322e-02
S-nh4-base = 1.711172e-02

number of iterations: 63 
S-sub-bulk = 5.538860e-03
S-sub-base = 2.361828e-04
S-nh4-bulk = 1.914328e-02
S-nh4-base = 1.711169e-02

number of iterations: 64 
S-sub-bulk = 5.538656e-03
S-sub-base = 2.361815e-04
S-nh4-bulk = 1.914335e-02
S-nh4-base = 1.711166e-02

number of iterations: 63 
S-sub-bulk = 5.538454e-03
S-sub-base = 2.361802e-04
S-nh4-bulk = 1.914341e-02
S-nh4-base = 1.711163e-02

number of iterations: 63 
S-sub-bulk = 5.538251e-03
S-sub-base = 2.361788e-04
S-nh4-bulk = 1.914348e-02
S-nh4-base = 1.711160e-02

number of iterations: 63 
S-sub-bulk = 5.538049e-03
S-sub-base = 2.361775e-04
S-nh4-bulk = 1.914354e-02
S-nh4-base = 1.711157e-02

number of iterations: 64 
S-sub-bulk = 5.537847e-03
S-sub-base = 2.361761e-04
S-nh4-bulk = 1.914361e-02
S-nh4-base = 1.711154e-02

number of iterations: 63 
S-sub-bulk = 5.537645e-03
S-sub-base = 2.361747e-04
S-nh4-bulk = 1.914367e-02
S-nh4-base = 1.711151e-02

number of iterations: 63 
S-sub-bulk = 5.537444e-03
S-sub-base = 2.361734e-04
S-nh4-bulk = 1.914374e-02
S-nh4-base = 1.711148e-02

number of iterations: 63 
S-sub-bulk = 5.537243e-03
S-sub-base = 2.361721e-04
S-nh4-bulk = 1.914380e-02
S-nh4-base = 1.711145e-02

number of iterations: 64 
S-sub-bulk = 5.537043e-03
S-sub-base = 2.361707e-04
S-nh4-bulk = 1.914387e-02
S-nh4-base = 1.711142e-02

number of iterations: 63 
S-sub-bulk = 5.536843e-03
S-sub-base = 2.361694e-04
S-nh4-bulk = 1.914393e-02
S-nh4-base = 1.711139e-02

number of iterations: 63 
S-sub-bulk = 5.536642e-03
S-sub-base = 2.361680e-04
S-nh4-bulk = 1.914400e-02
S-nh4-base = 1.711136e-02

number of iterations: 63 
S-sub-bulk = 5.536443e-03
S-sub-base = 2.361667e-04
S-nh4-bulk = 1.914406e-02
S-nh4-base = 1.711133e-02

number of iterations: 64 
S-sub-bulk = 5.536244e-03
S-sub-base = 2.361653e-04
S-nh4-bulk = 1.914412e-02
S-nh4-base = 1.711130e-02

number of iterations: 63 
S-sub-bulk = 5.536045e-03
S-sub-base = 2.361640e-04
S-nh4-bulk = 1.914419e-02
S-nh4-base = 1.711127e-02

number of iterations: 63 
S-sub-bulk = 5.535847e-03
S-sub-base = 2.361626e-04
S-nh4-bulk = 1.914425e-02
S-nh4-base = 1.711124e-02

number of iterations: 63 
S-sub-bulk = 5.535649e-03
S-sub-base = 2.361613e-04
S-nh4-bulk = 1.914432e-02
S-nh4-base = 1.711121e-02

number of iterations: 64 
S-sub-bulk = 5.535451e-03
S-sub-base = 2.361599e-04
S-nh4-bulk = 1.914438e-02
S-nh4-base = 1.711118e-02

number of iterations: 63 
S-sub-bulk = 5.535253e-03
S-sub-base = 2.361585e-04
S-nh4-bulk = 1.914444e-02
S-nh4-base = 1.711115e-02

number of iterations: 63 
S-sub-bulk = 5.535055e-03
S-sub-base = 2.361572e-04
S-nh4-bulk = 1.914451e-02
S-nh4-base = 1.711112e-02

number of iterations: 63 
S-sub-bulk = 5.534859e-03
S-sub-base = 2.361559e-04
S-nh4-bulk = 1.914457e-02
S-nh4-base = 1.711109e-02

number of iterations: 64 
S-sub-bulk = 5.534663e-03
S-sub-base = 2.361545e-04
S-nh4-bulk = 1.914464e-02
S-nh4-base = 1.711106e-02

number of iterations: 63 
S-sub-bulk = 5.534466e-03
S-sub-base = 2.361531e-04
S-nh4-bulk = 1.914470e-02
S-nh4-base = 1.711103e-02

number of iterations: 63 
S-sub-bulk = 5.534270e-03
S-sub-base = 2.361517e-04
S-nh4-bulk = 1.914477e-02
S-nh4-base = 1.711100e-02

number of iterations: 63 
S-sub-bulk = 5.534075e-03
S-sub-base = 2.361504e-04
S-nh4-bulk = 1.914483e-02
S-nh4-base = 1.711097e-02

number of iterations: 64 
S-sub-bulk = 5.533879e-03
S-sub-base = 2.361490e-04
S-nh4-bulk = 1.914489e-02
S-nh4-base = 1.711094e-02

number of iterations: 63 
S-sub-bulk = 5.533684e-03
S-sub-base = 2.361476e-04
S-nh4-bulk = 1.914496e-02
S-nh4-base = 1.711091e-02

number of iterations: 63 
S-sub-bulk = 5.533489e-03
S-sub-base = 2.361463e-04
S-nh4-bulk = 1.914502e-02
S-nh4-base = 1.711088e-02

number of iterations: 63 
S-sub-bulk = 5.533294e-03
S-sub-base = 2.361449e-04
S-nh4-bulk = 1.914508e-02
S-nh4-base = 1.711085e-02

number of iterations: 64 
S-sub-bulk = 5.533100e-03
S-sub-base = 2.361435e-04
S-nh4-bulk = 1.914515e-02
S-nh4-base = 1.711082e-02

number of iterations: 63 
S-sub-bulk = 5.532906e-03
S-sub-base = 2.361421e-04
S-nh4-bulk = 1.914521e-02
S-nh4-base = 1.711079e-02

number of iterations: 63 
S-sub-bulk = 5.532713e-03
S-sub-base = 2.361408e-04
S-nh4-bulk = 1.914528e-02
S-nh4-base = 1.711076e-02

number of iterations: 63 
S-sub-bulk = 5.532519e-03
S-sub-base = 2.361394e-04
S-nh4-bulk = 1.914534e-02
S-nh4-base = 1.711073e-02

number of iterations: 64 
S-sub-bulk = 5.532327e-03
S-sub-base = 2.361380e-04
S-nh4-bulk = 1.914540e-02
S-nh4-base = 1.711070e-02

number of iterations: 63 
S-sub-bulk = 5.532135e-03
S-sub-base = 2.361366e-04
S-nh4-bulk = 1.914547e-02
S-nh4-base = 1.711067e-02

number of iterations: 63 
S-sub-bulk = 5.531943e-03
S-sub-base = 2.361353e-04
S-nh4-bulk = 1.914553e-02
S-nh4-base = 1.711064e-02

number of iterations: 64 
S-sub-bulk = 5.531751e-03
S-sub-base = 2.361339e-04
S-nh4-bulk = 1.914559e-02
S-nh4-base = 1.711061e-02

number of iterations: 63 
S-sub-bulk = 5.531559e-03
S-sub-base = 2.361325e-04
S-nh4-bulk = 1.914566e-02
S-nh4-base = 1.711058e-02

number of iterations: 63 
S-sub-bulk = 5.531368e-03
S-sub-base = 2.361311e-04
S-nh4-bulk = 1.914572e-02
S-nh4-base = 1.711055e-02

number of iterations: 63 
S-sub-bulk = 5.531177e-03
S-sub-base = 2.361297e-04
S-nh4-bulk = 1.914578e-02
S-nh4-base = 1.711052e-02

number of iterations: 64 
S-sub-bulk = 5.530986e-03
S-sub-base = 2.361283e-04
S-nh4-bulk = 1.914585e-02
S-nh4-base = 1.711049e-02

number of iterations: 63 
S-sub-bulk = 5.530795e-03
S-sub-base = 2.361269e-04
S-nh4-bulk = 1.914591e-02
S-nh4-base = 1.711046e-02

number of iterations: 63 
S-sub-bulk = 5.530605e-03
S-sub-base = 2.361255e-04
S-nh4-bulk = 1.914597e-02
S-nh4-base = 1.711043e-02

number of iterations: 64 
S-sub-bulk = 5.530415e-03
S-sub-base = 2.361242e-04
S-nh4-bulk = 1.914604e-02
S-nh4-base = 1.711040e-02

number of iterations: 63 
S-sub-bulk = 5.530226e-03
S-sub-base = 2.361228e-04
S-nh4-bulk = 1.914610e-02
S-nh4-base = 1.711037e-02

number of iterations: 63 
S-sub-bulk = 5.530037e-03
S-sub-base = 2.361214e-04
S-nh4-bulk = 1.914616e-02
S-nh4-base = 1.711034e-02

number of iterations: 64 
S-sub-bulk = 5.529848e-03
S-sub-base = 2.361200e-04
S-nh4-bulk = 1.914623e-02
S-nh4-base = 1.711031e-02

number of iterations: 63 
S-sub-bulk = 5.529660e-03
S-sub-base = 2.361186e-04
S-nh4-bulk = 1.914629e-02
S-nh4-base = 1.711029e-02

number of iterations: 63 
S-sub-bulk = 5.529471e-03
S-sub-base = 2.361172e-04
S-nh4-bulk = 1.914635e-02
S-nh4-base = 1.711026e-02

number of iterations: 64 
S-sub-bulk = 5.529284e-03
S-sub-base = 2.361158e-04
S-nh4-bulk = 1.914642e-02
S-nh4-base = 1.711023e-02

number of iterations: 63 
S-sub-bulk = 5.529095e-03
S-sub-base = 2.361144e-04
S-nh4-bulk = 1.914648e-02
S-nh4-base = 1.711020e-02

number of iterations: 63 
S-sub-bulk = 5.528908e-03
S-sub-base = 2.361130e-04
S-nh4-bulk = 1.914654e-02
S-nh4-base = 1.711017e-02

number of iterations: 64 
S-sub-bulk = 5.528721e-03
S-sub-base = 2.361116e-04
S-nh4-bulk = 1.914661e-02
S-nh4-base = 1.711014e-02

number of iterations: 63 
S-sub-bulk = 5.528534e-03
S-sub-base = 2.361102e-04
S-nh4-bulk = 1.914667e-02
S-nh4-base = 1.711011e-02

number of iterations: 63 
S-sub-bulk = 5.528347e-03
S-sub-base = 2.361087e-04
S-nh4-bulk = 1.914673e-02
S-nh4-base = 1.711008e-02

number of iterations: 64 
S-sub-bulk = 5.528161e-03
S-sub-base = 2.361074e-04
S-nh4-bulk = 1.914679e-02
S-nh4-base = 1.711005e-02

number of iterations: 63 
S-sub-bulk = 5.527975e-03
S-sub-base = 2.361059e-04
S-nh4-bulk = 1.914686e-02
S-nh4-base = 1.711002e-02

number of iterations: 63 
S-sub-bulk = 5.527790e-03
S-sub-base = 2.361046e-04
S-nh4-bulk = 1.914692e-02
S-nh4-base = 1.710999e-02

number of iterations: 64 
S-sub-bulk = 5.527604e-03
S-sub-base = 2.361031e-04
S-nh4-bulk = 1.914698e-02
S-nh4-base = 1.710996e-02

number of iterations: 63 
S-sub-bulk = 5.527419e-03
S-sub-base = 2.361017e-04
S-nh4-bulk = 1.914705e-02
S-nh4-base = 1.710994e-02

number of iterations: 63 
S-sub-bulk = 5.527234e-03
S-sub-base = 2.361003e-04
S-nh4-bulk = 1.914711e-02
S-nh4-base = 1.710991e-02

ERROR: Stop here (../fix_bio_verify.cpp:288)
