ITEM: TIMESTEP
0
ITEM: NUMBER OF ATOMS
5
ITEM: BOX BOUNDS ff ff ff
0 9e-05
0 9e-05
0 9e-05
ITEM: ATOMS id type diameter x y z vx vy vz fx fy fz 
4 4 1.0539e-06 5e-05 5e-05 4.8e-05 0 0 0 0 0 0 
2 2 1.2839e-06 5e-05 4.8e-05 5e-05 0 0 0 0 0 0 
3 3 1.0283e-06 5e-05 5e-05 5e-05 0 0 0 0 0 0 
1 1 1.0839e-06 5e-05 5.2e-05 5e-05 0 0 0 0 0 0 
5 5 1.4839e-06 5e-05 5e-05 5.2e-05 0 0 0 0 0 0 
ITEM: TIMESTEP
1000
ITEM: NUMBER OF ATOMS
8
ITEM: BOX BOUNDS ff ff ff
0 9e-05
0 9e-05
0 9e-05
ITEM: ATOMS id type diameter x y z vx vy vz fx fy fz 
4 4 1.04701e-06 5e-05 5e-05 4.8e-05 0 0 0 0 0 0 
2 2 1.16911e-06 5.00488e-05 4.74846e-05 4.97011e-05 8.16025e-13 -8.62192e-12 -4.99966e-12 0 0 0 
3 3 1.12876e-06 5e-05 5e-05 5e-05 0 0 0 0 0 0 
1 1 1.37448e-06 5.00016e-05 5.1983e-05 4.99902e-05 8.16025e-13 -8.62192e-12 -4.99966e-12 0 0 0 
5 5 1.4839e-06 5e-05 5e-05 5.2e-05 0 0 0 0 0 0 
6 4 9.04215e-07 4.99079e-05 5.29726e-05 5.0564e-05 -8.16025e-13 8.62192e-12 4.99966e-12 0 0 0 
7 2 1.10166e-06 4.99539e-05 4.84875e-05 5.02827e-05 -8.16025e-13 8.62192e-12 4.99966e-12 0 0 0 
8 4 9.86742e-07 4.94848e-05 5.28285e-05 4.92796e-05 0 0 0 0 0 0 
ITEM: TIMESTEP
2000
ITEM: NUMBER OF ATOMS
11
ITEM: BOX BOUNDS ff ff ff
0 9e-05
0 9e-05
0 9e-05
ITEM: ATOMS id type diameter x y z vx vy vz fx fy fz 
4 4 1.04017e-06 5e-05 5e-05 4.8e-05 0 0 0 0 0 0 
8 4 9.80292e-07 4.94426e-05 5.2899e-05 4.92227e-05 -4.2246e-12 7.05507e-12 -5.69024e-12 -3.61446e-05 6.03614e-05 -4.86842e-05 
2 2 1.30375e-06 5.00569e-05 4.73984e-05 4.96511e-05 8.16025e-13 -8.62192e-12 -4.99966e-12 0 0 0 
9 1 1.39125e-06 4.97628e-05 5.23642e-05 4.96541e-05 4.18281e-12 -7.10791e-12 5.65524e-12 2.52729e-05 -4.29466e-05 3.41695e-05 
7 2 1.22853e-06 4.99457e-05 4.85737e-05 5.03327e-05 -8.16025e-13 8.62192e-12 4.99966e-12 0 0 0 
3 3 1.23903e-06 5e-05 5e-05 5e-05 0 0 0 0 0 0 
1 1 1.37545e-06 5.03066e-05 5.14931e-05 5.03801e-05 5.81113e-12 3.51724e-13 8.13062e-12 4.00905e-05 2.42652e-06 5.60925e-05 
6 4 8.98304e-07 4.98998e-05 5.30588e-05 5.0614e-05 -8.16025e-13 8.62192e-12 4.99966e-12 0 0 0 
5 5 1.4839e-06 5e-05 5e-05 5.2e-05 0 0 0 0 0 0 
10 4 9.55967e-07 4.98284e-05 5.11684e-05 4.96995e-05 -5.35597e-12 -3.637e-12 -7.62141e-12 -2.92189e-05 -1.98412e-05 -4.15778e-05 
11 4 9.48775e-07 5.07474e-05 5.10585e-05 5.13712e-05 8.16025e-13 -8.62192e-12 -4.99966e-12 0 0 0 
ITEM: TIMESTEP
3000
ITEM: NUMBER OF ATOMS
20
ITEM: BOX BOUNDS ff ff ff
0 9e-05
0 9e-05
0 9e-05
ITEM: ATOMS id type diameter x y z vx vy vz fx fy fz 
4 4 1.03337e-06 5e-05 5e-05 4.8e-05 0 0 0 0 0 0 
8 4 9.73884e-07 4.93802e-05 5.28815e-05 4.91538e-05 -7.00161e-12 3.62852e-12 -6.14908e-12 -1.88014e-05 9.74366e-06 -1.65121e-05 
2 2 1.0807e-06 5.0455e-05 4.71509e-05 4.99613e-05 7.07367e-12 -3.45292e-12 6.1677e-12 0 0 0 
10 4 9.49718e-07 4.98111e-05 5.10716e-05 4.96848e-05 -8.94107e-13 -9.70865e-12 -2.22321e-12 -7.47409e-06 -8.11572e-05 -1.85844e-05 
12 1 1.34223e-06 4.97309e-05 5.17585e-05 4.96835e-05 -9.86788e-12 -1.60319e-12 -2.34028e-13 -0.000102678 -1.66817e-05 -2.43514e-06 
1 1 1.18497e-06 5.0131e-05 5.17527e-05 5.04774e-05 -2.01552e-12 7.58917e-12 6.1921e-12 -1.00805e-05 3.79569e-05 3.09695e-05 
9 1 1.07562e-06 4.98134e-05 5.36857e-05 4.94483e-05 4.51271e-12 8.37952e-12 3.06906e-12 5.86264e-06 1.08861e-05 3.98713e-06 
7 2 1.37001e-06 4.99375e-05 4.86599e-05 5.03827e-05 -8.16025e-13 8.62192e-12 4.99966e-12 0 0 0 
3 3 1.36007e-06 5.00012e-05 4.99641e-05 4.99827e-05 2.87317e-13 -8.95538e-12 -4.44056e-12 3.25845e-06 -0.000101563 -5.03603e-05 
13 1 1.33213e-06 5.05402e-05 5.1314e-05 5.08672e-05 9.42076e-12 -3.31697e-12 -4.97055e-13 4.2602e-05 -1.49998e-05 -2.24775e-06 
6 4 8.92431e-07 4.99155e-05 5.3072e-05 5.07062e-05 2.23442e-12 6.04381e-12 7.6472e-12 6.53592e-07 1.76788e-06 2.23689e-06 
11 4 9.42573e-07 5.07842e-05 5.10157e-05 5.14537e-05 3.47697e-12 -4.25061e-12 8.35721e-12 3.02887e-05 -3.70281e-05 7.28017e-05 
5 5 1.4839e-06 5e-05 5e-05 5.2e-05 0 0 0 0 0 0 
14 4 9.56879e-07 4.89476e-05 5.209e-05 4.89773e-05 -7.58067e-12 -3.80478e-12 -5.2969e-12 -1.06026e-05 -5.32152e-06 -7.40846e-06 
15 4 9.36329e-07 4.97091e-05 5.30972e-05 4.83708e-05 3.75324e-12 2.46226e-12 -8.93591e-12 5.92206e-06 3.88509e-06 -1.40995e-05 
16 2 1.21893e-06 4.96224e-05 4.75573e-05 4.92353e-05 -7.07367e-12 3.45292e-12 -6.1677e-12 0 0 0 
17 4 1.1007e-06 4.99821e-05 5.05581e-05 5.02773e-05 -4.87944e-13 6.30253e-12 7.74855e-12 -4.5268e-06 5.84704e-05 7.18857e-05 
18 4 9.09964e-07 5.1433e-05 5.14607e-05 5.01405e-05 -3.71484e-12 4.31246e-12 -8.22208e-12 0 0 0 
19 1 1.0853e-06 5.01087e-05 5.17497e-05 4.91912e-05 5.90642e-12 6.02329e-13 -8.04682e-12 8.62521e-05 8.79588e-06 -0.000117509 
20 1 1.22283e-06 4.96825e-05 5.24416e-05 4.99086e-05 -1.52635e-12 9.24607e-12 3.49005e-12 -2.06756e-05 0.000125245 4.72754e-05 
ITEM: TIMESTEP
4000
ITEM: NUMBER OF ATOMS
35
ITEM: BOX BOUNDS ff ff ff
0 9e-05
0 9e-05
0 9e-05
ITEM: ATOMS id type diameter x y z vx vy vz fx fy fz 
4 4 1.02661e-06 5e-05 5e-05 4.8e-05 0 0 0 0 0 0 
15 4 9.30208e-07 4.97488e-05 5.31468e-05 4.83082e-05 4.16069e-12 8.69248e-12 -2.6701e-12 1.57988e-05 3.30067e-05 -1.01388e-05 
14 4 9.50623e-07 4.88877e-05 5.20774e-05 4.89006e-05 -5.52011e-12 2.57276e-13 -8.3344e-12 -4.7487e-05 2.21322e-06 -7.1697e-05 
16 2 1.3593e-06 4.95517e-05 4.75919e-05 4.91736e-05 -7.07367e-12 3.45292e-12 -6.1677e-12 0 0 0 
19 1 1.37626e-06 5.01479e-05 5.17478e-05 4.91034e-05 4.71153e-12 -2.0349e-12 -8.58258e-12 0.000108723 -4.69571e-05 -0.000198051 
8 4 9.67517e-07 4.93649e-05 5.29127e-05 4.9069e-05 -3.52431e-13 9.57702e-13 -9.94779e-12 -4.69285e-06 1.27524e-05 -0.000132461 
9 1 1.36398e-06 4.98681e-05 5.37656e-05 4.94625e-05 5.58086e-12 8.25067e-12 -8.83443e-13 5.90186e-05 8.72523e-05 -9.34257e-06 
2 2 1.20516e-06 5.05257e-05 4.71164e-05 5.0023e-05 7.07367e-12 -3.45292e-12 6.1677e-12 0 0 0 
3 3 1.10917e-06 5.0474e-05 5.00701e-05 4.96855e-05 4.95436e-12 -6.02095e-12 -6.26119e-12 1.43365e-05 -1.74229e-05 -1.81181e-05 
10 4 9.4351e-07 4.97417e-05 5.10205e-05 4.96563e-05 -9.0657e-12 -4.14192e-12 -8.10876e-13 -0.000112399 -5.13524e-05 -1.00534e-05 
12 1 1.36863e-06 5.02016e-05 5.12415e-05 4.98343e-05 1.58962e-12 -7.8185e-12 -6.02861e-12 2.06583e-05 -0.000101607 -7.8346e-05 
20 1 1.21622e-06 4.99819e-05 5.19861e-05 5.0293e-05 1.89231e-12 3.7787e-13 9.81205e-12 3.83552e-05 7.65903e-06 0.00019888 
21 2 1.14273e-06 5.04169e-05 4.8733e-05 5.00141e-05 7.86032e-12 1.13259e-12 -6.07722e-12 0 0 0 
17 4 1.0935e-06 4.99618e-05 5.0546e-05 5.03669e-05 -2.73474e-12 -3.60363e-12 8.91824e-12 -2.61275e-05 -3.44288e-05 8.52043e-05 
18 4 9.04015e-07 5.14957e-05 5.15049e-05 5.01084e-05 8.55599e-12 4.89978e-12 -1.66949e-12 5.78708e-05 3.31411e-05 -1.12921e-05 
1 1 1.14287e-06 5.04345e-05 5.14796e-05 5.09651e-05 -4.42875e-12 8.64647e-12 2.37167e-12 -3.3588e-05 6.55756e-05 1.79869e-05 
7 2 1.27524e-06 4.94222e-05 4.85756e-05 5.07896e-05 -4.35298e-13 -8.92926e-12 4.48093e-12 -1.35356e-07 -2.77656e-06 1.39335e-06 
13 1 1.38725e-06 5.0262e-05 5.14945e-05 5.15657e-05 -5.38113e-12 5.20202e-12 6.63193e-12 -0.000102634 9.92181e-05 0.000126491 
6 4 8.86597e-07 4.99384e-05 5.31313e-05 5.07834e-05 2.30321e-12 5.89788e-12 7.74017e-12 0 0 0 
11 4 9.36411e-07 5.08592e-05 5.09724e-05 5.14632e-05 9.70326e-12 -2.23212e-12 -9.29679e-13 0.000128702 -2.96063e-05 -1.2331e-05 
5 5 1.4839e-06 4.99784e-05 4.997e-05 5.2015e-05 -5.46149e-12 -7.47792e-12 3.77529e-12 -2.5891e-05 -3.54502e-05 1.78973e-05 
22 3 1.2521e-06 4.94765e-05 4.96901e-05 5.02303e-05 -5.16371e-12 -8.35511e-12 -1.87834e-12 -1.73999e-05 -2.81538e-05 -6.32936e-06 
23 1 1.33276e-06 4.91969e-05 5.21752e-05 4.95111e-05 -8.40356e-12 -4.69724e-12 2.70482e-12 -0.000166751 -9.3207e-05 5.36715e-05 
24 1 1.29082e-06 5.08461e-05 5.11329e-05 5.02352e-05 6.98855e-12 -4.96436e-12 -5.1493e-12 0.000153817 -0.000109265 -0.000113336 
25 4 9.93676e-07 4.88523e-05 5.33496e-05 5.00492e-05 -2.6781e-12 1.71589e-12 9.48069e-12 -3.6349e-05 2.32892e-05 0.000128678 
26 4 1.0547e-06 4.8776e-05 5.33902e-05 4.95066e-05 -6.94325e-12 3.74221e-12 -6.14712e-12 -0.000105876 5.70639e-05 -9.37356e-05 
27 4 9.08644e-07 5.07032e-05 5.12337e-05 5.05294e-05 1.22229e-12 4.18744e-13 9.91618e-12 1.30172e-05 4.45952e-06 0.000105605 
28 4 8.88336e-07 5.03819e-05 5.20245e-05 4.97385e-05 8.45825e-12 5.13115e-12 -1.45922e-12 0.000137495 8.34105e-05 -2.37207e-05 
29 1 1.24497e-06 4.94228e-05 5.30006e-05 4.9647e-05 7.16804e-12 5.27336e-13 6.95277e-12 8.96208e-05 6.59319e-06 8.69294e-05 
30 1 1.23859e-06 4.97179e-05 5.21808e-05 5.00582e-05 -6.59963e-12 6.12654e-12 4.34861e-12 -0.000105604 9.80337e-05 6.95842e-05 
31 4 1.01328e-06 4.94843e-05 5.23759e-05 4.82801e-05 -2.6208e-12 -3.53624e-12 -8.97922e-12 -1.42093e-05 -1.91726e-05 -4.86831e-05 
32 4 1.04744e-06 4.94798e-05 5.08565e-05 4.89103e-05 8.54309e-13 -6.44166e-12 -7.601e-12 4.45172e-06 -3.35668e-05 -3.96081e-05 
33 4 8.51175e-07 5.04866e-05 5.06658e-05 5.16637e-05 -2.26408e-12 -9.36168e-12 2.6894e-12 -1.37927e-05 -5.70312e-05 1.63838e-05 
34 4 9.698e-07 4.87111e-05 5.12406e-05 4.8972e-05 -9.68963e-12 -2.15526e-12 1.21079e-12 -3.04459e-05 -6.77207e-06 3.80443e-06 
35 4 8.44698e-07 4.97654e-05 5.21971e-05 4.89443e-05 2.38074e-13 8.3279e-12 -5.53076e-12 1.51804e-06 5.31014e-05 -3.52659e-05 
ITEM: TIMESTEP
5000
ITEM: NUMBER OF ATOMS
68
ITEM: BOX BOUNDS ff ff ff
0 9e-05
0 9e-05
0 9e-05
ITEM: ATOMS id type diameter x y z vx vy vz fx fy fz 
4 4 1.0199e-06 5e-05 5e-05 4.8e-05 0 0 0 0 0 0 
31 4 1.00665e-06 4.94753e-05 5.24119e-05 4.81956e-05 4.0118e-12 6.05692e-12 -6.87162e-12 4.3371e-05 6.54805e-05 -7.4288e-05 
15 4 9.24127e-07 4.97992e-05 5.32202e-05 4.82661e-05 5.96624e-12 5.15991e-12 -6.14649e-12 1.54944e-05 1.34003e-05 -1.59625e-05 
32 4 1.04059e-06 4.94778e-05 5.07603e-05 4.88873e-05 -2.0764e-12 -8.85888e-12 -4.14836e-12 -1.92727e-05 -8.22261e-05 -3.85041e-05 
34 4 9.6346e-07 4.86261e-05 5.11971e-05 4.8951e-05 -7.95348e-12 -4.70166e-12 -3.82578e-12 -8.65956e-05 -5.11906e-05 -4.16543e-05 
36 1 1.11423e-06 4.93127e-05 5.19038e-05 4.84872e-05 5.12248e-12 -6.33176e-12 -5.8025e-12 9.30053e-05 -0.000114961 -0.000105352 
14 4 9.44409e-07 4.88975e-05 5.2126e-05 4.88446e-05 2.4591e-12 9.49682e-12 -1.93991e-12 1.84457e-05 7.12356e-05 -1.45513e-05 
35 4 8.39176e-07 4.98061e-05 5.22805e-05 4.89656e-05 4.84753e-12 8.71776e-12 7.08636e-13 2.69722e-05 4.85066e-05 3.94293e-06 
16 2 1.24564e-06 4.94624e-05 4.76246e-05 4.9759e-05 -7.76506e-12 3.59555e-12 5.17453e-12 0 0 0 
12 1 1.30006e-06 5.01614e-05 5.16212e-05 4.93505e-05 -2.00361e-12 -4.08319e-12 -8.90579e-12 -2.74259e-05 -5.58918e-05 -0.000121905 
8 4 9.61192e-07 4.93869e-05 5.29263e-05 4.89766e-05 2.08476e-12 3.05273e-12 -9.29164e-12 1.5102e-05 2.2114e-05 -6.73086e-05 
9 1 1.36606e-06 4.95845e-05 5.40885e-05 4.8894e-05 -3.21198e-12 9.16783e-12 -2.37362e-12 -4.60511e-06 1.31442e-05 -3.40313e-06 
3 3 1.21753e-06 5.04963e-05 5.0005e-05 4.96167e-05 -1.72918e-12 -5.54285e-12 -8.14167e-12 -1.87994e-05 -6.02611e-05 -8.85152e-05 
10 4 9.37342e-07 4.96653e-05 5.09909e-05 4.96324e-05 -3.34344e-12 -7.4756e-12 -5.73906e-12 -4.59239e-05 -0.000102681 -7.88289e-05 
19 1 1.29462e-06 5.05776e-05 5.19306e-05 4.94924e-05 6.7985e-12 -2.75659e-12 -6.79571e-12 0.000134022 -5.43419e-05 -0.000133967 
23 1 1.2548e-06 4.91842e-05 5.26479e-05 4.98734e-05 -5.8227e-12 -7.82541e-12 2.20435e-12 -0.000125243 -0.00016832 4.74143e-05 
28 4 8.82529e-07 5.03929e-05 5.20796e-05 4.98088e-05 -2.2061e-12 2.08527e-12 9.5281e-12 -2.67073e-05 2.52445e-05 0.000115348 
26 4 1.0478e-06 4.87364e-05 5.34575e-05 4.94526e-05 -1.6794e-12 8.64164e-12 -4.74359e-12 -3.23655e-05 0.000166542 -9.14189e-05 
29 1 1.22584e-06 4.87506e-05 5.30135e-05 4.95245e-05 -7.79912e-12 -4.88081e-12 -3.91809e-12 -0.000141343 -8.84549e-05 -7.10074e-05 
2 2 1.34394e-06 5.06097e-05 4.70761e-05 5.00554e-05 8.74559e-12 -4.18462e-12 2.45021e-12 0 0 0 
21 2 1.27433e-06 5.04955e-05 4.87443e-05 4.99533e-05 7.86032e-12 1.13259e-12 -6.07722e-12 0 0 0 
22 3 1.37442e-06 4.94323e-05 4.96371e-05 5.01846e-05 -6.03662e-13 2.95552e-12 -9.53418e-12 -3.67498e-06 1.79926e-05 -5.80423e-05 
17 4 1.08635e-06 4.99003e-05 5.04813e-05 5.03967e-05 -1.03221e-12 -9.88497e-12 1.10543e-12 -2.09295e-05 -0.000200431 2.24141e-05 
37 1 1.17106e-06 4.97016e-05 5.10436e-05 5.0341e-05 -9.10181e-12 -3.6943e-12 -1.8733e-12 -0.000162115 -6.58003e-05 -3.33659e-05 
24 1 1.21933e-06 5.02597e-05 5.10136e-05 5.00366e-05 7.52722e-12 -2.48594e-12 -6.09598e-12 0.000183292 -6.05342e-05 -0.000148441 
20 1 1.15845e-06 4.99054e-05 5.25296e-05 5.02063e-05 1.10844e-13 -8.81263e-12 4.72497e-12 2.76601e-06 -0.000219911 0.000117907 
18 4 8.98105e-07 5.15323e-05 5.15608e-05 5.00545e-05 4.48853e-13 5.26726e-12 -8.48849e-12 6.79822e-06 7.97766e-05 -0.000128565 
30 1 1.30757e-06 4.9802e-05 5.2911e-05 4.99231e-05 -8.62419e-12 -3.92299e-13 -5.04673e-12 -0.000134454 -6.11605e-06 -7.868e-05 
25 4 9.8718e-07 4.88368e-05 5.33879e-05 5.01383e-05 -6.82291e-13 4.90523e-12 8.68753e-12 -1.14733e-05 8.24856e-05 0.000146088 
7 2 1.06676e-06 4.96431e-05 4.80245e-05 5.09502e-05 4.2246e-12 -8.79985e-12 2.17151e-12 1.05536e-06 -2.19832e-06 5.42473e-07 
1 1 1.06784e-06 4.98571e-05 5.18014e-05 5.11825e-05 -2.99758e-12 9.1698e-12 2.63234e-12 -4.17465e-05 0.000127705 3.66599e-05 
27 4 9.02704e-07 5.07351e-05 5.12627e-05 5.05676e-05 -9.3656e-12 3.50391e-12 -9.03784e-14 -3.02538e-05 1.13187e-05 -2.9195e-07 
6 4 8.80801e-07 4.99257e-05 5.31421e-05 5.08677e-05 -2.02845e-12 4.35091e-12 8.7724e-12 -3.65791e-05 7.84601e-05 0.000158193 
38 1 1.40427e-06 4.98982e-05 5.09184e-05 5.12698e-05 -6.36157e-12 -7.67931e-12 -7.47445e-13 -0.000135862 -0.000164005 -1.5963e-05 
11 4 9.30289e-07 5.09578e-05 5.09843e-05 5.14706e-05 9.53116e-12 2.23198e-12 2.04336e-12 0.000108036 2.52996e-05 2.31616e-05 
33 4 8.45611e-07 5.05327e-05 5.05956e-05 5.16984e-05 4.41076e-12 -8.88008e-12 1.29974e-12 9.91532e-05 -0.000199623 2.92179e-05 
13 1 1.38812e-06 5.05563e-05 5.20817e-05 5.19504e-05 6.50036e-12 2.60567e-12 7.13833e-12 1.97913e-05 7.93331e-06 2.17336e-05 
5 5 1.4839e-06 4.99367e-05 4.99267e-05 5.20861e-05 -4.00431e-12 -2.54195e-12 8.80363e-12 -7.20974e-05 -4.57677e-05 0.000158509 
39 2 1.15737e-06 4.95444e-05 4.76054e-05 4.85509e-05 4.66311e-13 -5.80381e-14 -9.98895e-12 0 0 0 
40 1 1.37953e-06 5.02086e-05 5.3589e-05 5.00949e-05 4.97659e-12 7.53749e-12 4.29183e-12 0.000164063 0.000248489 0.000141489 
41 1 1.41806e-06 4.91257e-05 5.15454e-05 4.9218e-05 -1.87153e-12 -3.71674e-12 9.09303e-12 -2.43792e-05 -4.84156e-05 0.000118449 
42 1 1.2791e-06 5.01777e-05 5.29583e-05 4.97219e-05 5.90473e-12 -2.34178e-13 -8.06717e-12 0.000198737 -7.88179e-06 -0.000271519 
43 1 1.37028e-06 5.16468e-05 5.12441e-05 5.03759e-05 9.64215e-12 -2.36592e-12 1.19639e-12 0.000252741 -6.20158e-05 3.13598e-05 
44 4 9.27401e-07 5.00389e-05 5.36898e-05 4.9809e-05 -3.20073e-12 7.61763e-12 -5.63267e-12 -7.06381e-05 0.000168116 -0.000124309 
45 4 8.91891e-07 4.86759e-05 5.2184e-05 4.90345e-05 -7.78381e-12 3.78011e-12 5.01229e-12 -0.000147283 7.15262e-05 9.48412e-05 
46 4 8.48656e-07 5.1227e-05 5.08899e-05 5.02204e-05 -9.97304e-13 -7.17784e-12 -6.89086e-12 -1.26693e-05 -9.11841e-05 -8.75385e-05 
47 4 1.11954e-06 5.12716e-05 5.22281e-05 5.06424e-05 2.68639e-12 3.16225e-12 9.09854e-12 4.01752e-05 4.72917e-05 0.00013607 
48 4 1.01533e-06 5.01134e-05 4.97794e-05 5.15346e-05 3.00554e-12 -2.76071e-12 -9.12936e-12 3.93211e-05 -3.6118e-05 -0.000119438 
49 4 9.05388e-07 5.02752e-05 5.0969e-05 5.21638e-05 -3.92701e-13 3.04519e-12 9.51696e-12 -7.05231e-06 5.46869e-05 0.00017091 
50 4 9.68025e-07 5.10391e-05 5.28323e-05 5.01064e-05 9.51132e-13 9.75127e-12 2.00204e-12 1.19068e-05 0.000122072 2.50625e-05 
51 4 8.62392e-07 5.10661e-05 5.23986e-05 4.95904e-05 4.97774e-12 3.90397e-12 -7.74475e-12 6.58366e-05 5.16347e-05 -0.000102434 
52 4 9.80487e-07 5.11479e-05 5.22402e-05 5.01049e-05 6.80333e-12 -6.89077e-12 2.4964e-12 3.79647e-05 -3.84526e-05 1.39307e-05 
53 1 1.28339e-06 5.00606e-05 5.13607e-05 5.05359e-05 4.20847e-12 8.8679e-12 1.91026e-12 7.66884e-05 0.000161595 3.48095e-05 
54 1 1.17904e-06 4.94793e-05 5.15664e-05 5.02046e-05 -7.42929e-12 6.66952e-12 5.6849e-13 -0.000189628 0.000170235 1.45103e-05 
55 4 1.10514e-06 5.09523e-05 5.09988e-05 4.81973e-05 8.62189e-12 -3.83864e-12 -3.30573e-12 9.02715e-05 -4.01906e-05 -3.46111e-05 
56 4 9.64677e-07 5.0478e-05 5.16791e-05 4.82415e-05 -4.39605e-12 -1.73335e-12 -8.81307e-12 -4.37764e-05 -1.72609e-05 -8.77617e-05 
57 4 9.70627e-07 5.05744e-05 5.19293e-05 4.83845e-05 3.40034e-12 8.90401e-12 3.02595e-12 5.26426e-05 0.000137848 4.68464e-05 
58 4 9.3133e-07 5.00275e-05 5.29571e-05 5.06209e-05 4.88943e-12 -2.79815e-12 8.26219e-12 6.87496e-05 -3.93444e-05 0.000116174 
59 4 1.02989e-06 4.99909e-05 5.11075e-05 5.14845e-05 -1.88885e-12 7.00164e-12 6.88544e-12 -3.3183e-05 0.000123004 0.000120962 
60 4 9.87286e-07 4.93557e-05 5.24891e-05 5.09608e-05 -9.08261e-12 8.1506e-13 4.10388e-12 -5.2099e-05 4.67529e-06 2.35404e-05 
61 4 1.0788e-06 4.8578e-05 5.21957e-05 4.81886e-05 -7.01042e-12 1.29487e-12 -7.01266e-12 -9.43682e-05 1.74304e-05 -9.43983e-05 
62 4 8.36249e-07 5.04245e-05 5.1967e-05 5.05453e-05 5.72516e-12 7.47378e-12 3.37123e-12 3.95742e-05 5.16612e-05 2.3303e-05 
63 1 1.20792e-06 5.02415e-05 5.10393e-05 4.85417e-05 -4.77983e-12 -8.7777e-12 3.24511e-13 -5.0388e-05 -9.25328e-05 3.42093e-06 
64 1 1.12516e-06 5.07983e-05 5.03343e-05 5.02027e-05 6.07069e-12 -5.13785e-12 6.06211e-12 7.01066e-05 -5.93338e-05 7.00075e-05 
65 2 1.18454e-06 4.91728e-05 4.90041e-05 5.07085e-05 -3.19861e-12 -7.22191e-12 6.13293e-12 -2.62133e-05 -5.9185e-05 5.02606e-05 
66 1 1.22234e-06 5.1103e-05 5.12647e-05 5.0847e-05 1.93327e-12 1.22652e-12 9.73438e-12 3.36556e-05 2.13519e-05 0.000169462 
67 4 8.36431e-07 4.93457e-05 5.09555e-05 5.09073e-05 -9.74492e-12 -1.3029e-12 1.82726e-12 -0.000155064 -2.07322e-05 2.9076e-05 
68 4 9.15312e-07 5.04777e-05 5.08382e-05 5.16635e-05 8.30831e-12 5.25558e-12 1.83056e-12 7.44688e-05 4.71066e-05 1.64076e-05 
ITEM: TIMESTEP
6000
ITEM: NUMBER OF ATOMS
131
ITEM: BOX BOUNDS ff ff ff
0 9e-05
0 9e-05
0 9e-05
ITEM: ATOMS id type diameter x y z vx vy vz fx fy fz 
4 4 1.01323e-06 4.99843e-05 4.99575e-05 4.79669e-05 9.71589e-13 -3.93287e-12 -9.14268e-12 8.29229e-06 -3.35662e-05 -7.80306e-05 
55 4 1.09792e-06 5.10414e-05 5.0998e-05 4.81813e-05 8.96015e-12 4.3179e-12 1.03514e-12 8.73402e-05 4.20893e-05 1.00902e-05 
36 1 1.41294e-06 4.93386e-05 5.1864e-05 4.84169e-05 -1.83101e-12 -2.27834e-12 -9.56329e-12 -7.24697e-05 -9.01747e-05 -0.000378507 
56 4 9.58371e-07 5.0447e-05 5.16517e-05 4.81541e-05 -1.01991e-12 -4.90601e-12 -8.65395e-12 -1.10062e-05 -5.29429e-05 -9.33885e-05 
57 4 9.64282e-07 5.06198e-05 5.2011e-05 4.8417e-05 5.85018e-12 7.22247e-12 3.68936e-12 6.53095e-05 8.06293e-05 4.11868e-05 
61 4 1.07174e-06 4.85202e-05 5.22092e-05 4.81119e-05 -5.76924e-12 -1.60506e-12 -8.00872e-12 -8.7486e-05 -2.43395e-05 -0.000121446 
31 4 1.00007e-06 4.95026e-05 5.24755e-05 4.81247e-05 1.13045e-12 6.45694e-12 -7.55182e-12 1.68725e-05 9.63727e-05 -0.000112714 
15 4 9.18086e-07 4.98832e-05 5.3209e-05 4.82192e-05 8.07944e-12 2.73739e-12 -5.21817e-12 2.73422e-05 9.26381e-06 -1.76592e-05 
69 1 1.19787e-06 4.93362e-05 5.38552e-05 4.77813e-05 -5.7391e-12 6.77919e-12 -4.59405e-12 -1.20361e-05 1.42174e-05 -9.6347e-06 
39 2 1.29065e-06 4.95501e-05 4.76045e-05 4.84511e-05 1.1608e-12 -2.341e-13 -9.92964e-12 2.69892e-07 -5.44295e-08 -2.3087e-06 
32 4 1.03379e-06 4.94429e-05 5.06839e-05 4.88452e-05 -1.32389e-13 -9.29877e-12 -3.67633e-12 -2.14769e-06 -0.00015085 -5.96394e-05 
34 4 9.57162e-07 4.85654e-05 5.11444e-05 4.89894e-05 -9.48658e-12 -8.98208e-13 3.03284e-12 -0.000110863 -1.04968e-05 3.54427e-05 
63 1 1.21445e-06 5.054e-05 5.05301e-05 4.81134e-05 -7.86859e-12 -6.14985e-12 5.14457e-13 -2.64916e-05 -2.07051e-05 1.73205e-06 
74 1 1.18492e-06 4.86554e-05 5.25495e-05 4.86626e-05 -6.84377e-12 6.46696e-12 -3.36769e-12 -0.000188808 0.000178412 -9.29087e-05 
14 4 9.38235e-07 4.89109e-05 5.21326e-05 4.8886e-05 -4.03357e-12 -8.96749e-12 1.82053e-12 -3.20698e-05 -7.12979e-05 1.44745e-05 
35 4 8.3369e-07 4.98533e-05 5.23295e-05 4.8917e-05 3.84221e-12 -1.15341e-12 -9.16008e-12 6.09429e-05 -1.82947e-05 -0.000145292 
8 4 9.54909e-07 4.94007e-05 5.2963e-05 4.88863e-05 5.28445e-13 2.51566e-12 -9.66397e-12 1.32465e-05 6.30599e-05 -0.000242246 
12 1 1.22265e-06 5.06142e-05 5.1432e-05 4.97234e-05 7.29393e-12 -5.68869e-12 -3.79965e-12 0.00024141 -0.000188281 -0.000125758 
19 1 1.31322e-06 5.0207e-05 5.25142e-05 4.93929e-05 3.53966e-12 6.61728e-12 -6.60927e-12 0.000184211 0.000344376 -0.00034396 
45 4 8.8606e-07 4.86061e-05 5.21857e-05 4.91002e-05 -7.70218e-12 -3.13524e-12 5.55398e-12 -0.000166781 -6.78895e-05 0.000120264 
26 4 1.04095e-06 4.86852e-05 5.35157e-05 4.94024e-05 -8.95242e-12 2.82822e-12 -3.44314e-12 -0.000143683 4.53918e-05 -5.5261e-05 
9 1 1.30444e-06 4.93476e-05 5.40969e-05 4.95067e-05 -8.93603e-12 4.17922e-12 1.63749e-12 -0.000163484 7.64586e-05 2.99577e-05 
16 2 1.38909e-06 4.9396e-05 4.76356e-05 4.977e-05 -8.19876e-12 -5.3891e-12 -1.93338e-12 -8.81677e-07 -5.79533e-07 -2.07911e-07 
21 2 1.19477e-06 5.0667e-05 4.87913e-05 5.05266e-05 2.41386e-12 1.56431e-12 9.57738e-12 0 0 0 
70 3 1.26488e-06 4.93606e-05 4.95661e-05 4.95738e-05 -5.30756e-12 -6.82766e-12 -5.02124e-12 -2.93341e-05 -3.77355e-05 -2.77517e-05 
3 3 1.33647e-06 5.0484e-05 4.99558e-05 4.95313e-05 -1.55604e-12 -4.04474e-12 -9.01215e-12 -2.17181e-05 -5.64538e-05 -0.000125785 
10 4 9.31214e-07 4.96705e-05 5.09058e-05 4.95884e-05 -5.41824e-13 -9.97145e-12 -5.25857e-13 -2.10393e-05 -0.000387196 -2.04192e-05 
41 1 1.33384e-06 4.93014e-05 5.12094e-05 4.96648e-05 -6.77983e-12 -7.34441e-12 3.05932e-13 -0.000372359 -0.000403366 1.68023e-05 
28 4 8.7676e-07 5.04241e-05 5.2053e-05 4.98427e-05 9.69599e-12 -1.13515e-12 -2.16776e-12 0.000255271 -2.98855e-05 -5.70715e-05 
51 4 8.56755e-07 5.11432e-05 5.2401e-05 4.95503e-05 9.94741e-12 7.03143e-13 -7.44785e-13 0.000214632 1.51715e-05 -1.607e-05 
23 1 1.17889e-06 4.9244e-05 5.25916e-05 4.92747e-05 -9.88539e-12 -1.30963e-13 1.50399e-12 -0.000273697 -3.62597e-06 4.16411e-05 
30 1 1.27453e-06 5.01685e-05 5.34875e-05 5.01081e-05 7.96335e-12 5.22317e-12 3.05017e-12 8.56207e-05 5.61587e-05 3.2795e-05 
42 1 1.34759e-06 5.02074e-05 5.25126e-05 5.0275e-05 2.82653e-12 9.33714e-12 2.19738e-12 0.000135347 0.000447103 0.00010522 
29 1 1.30362e-06 4.92335e-05 5.32255e-05 4.91058e-05 -3.35329e-12 8.46769e-12 -4.1296e-12 -0.00010646 0.000268831 -0.000131106 
40 1 1.32048e-06 5.05277e-05 5.3869e-05 4.95216e-05 8.29841e-12 5.30909e-12 -1.71755e-12 0.000218921 0.00014006 -4.5311e-05 
44 4 9.21338e-07 4.99699e-05 5.37528e-05 4.98226e-05 -9.18313e-12 3.13698e-12 2.41443e-12 -6.65512e-05 2.27341e-05 1.74977e-05 
2 2 1.20758e-06 5.09863e-05 4.73075e-05 4.95984e-05 5.62178e-12 3.827e-12 -7.33142e-12 0 0 0 
17 4 1.07925e-06 4.99176e-05 5.03915e-05 5.03818e-05 6.38108e-12 -6.49263e-12 -4.13854e-12 6.19607e-05 -6.30438e-05 -4.01855e-05 
64 1 1.42681e-06 5.08231e-05 5.02428e-05 5.02251e-05 2.60495e-12 -9.62673e-12 -7.35049e-13 8.83108e-05 -0.000326357 -2.4919e-05 
43 1 1.4041e-06 5.10979e-05 5.09899e-05 5.00626e-05 5.86655e-12 -1.68645e-12 -7.92083e-12 0.00013628 -3.91763e-05 -0.000184002 
46 4 8.43108e-07 5.13205e-05 5.08645e-05 5.02281e-05 9.64951e-12 1.17731e-13 2.62167e-12 0.000187757 2.29078e-06 5.10118e-05 
37 1 1.23707e-06 5.00268e-05 5.15715e-05 5.04246e-05 -3.47672e-12 -9.11973e-12 2.17784e-12 -0.000113012 -0.00029644 7.07913e-05 
24 1 1.23132e-06 5.06263e-05 5.06653e-05 5.05035e-05 2.20871e-12 -9.64994e-12 1.41428e-12 4.13582e-05 -0.000180696 2.64825e-05 
54 1 1.2421e-06 4.99535e-05 5.16328e-05 5.06653e-05 -8.4092e-12 -3.53138e-12 4.10056e-12 -0.000313941 -0.000131837 0.000153086 
18 4 8.92234e-07 5.16122e-05 5.15929e-05 5.001e-05 9.26297e-12 2.48437e-12 -2.83288e-12 0.000119918 3.21626e-05 -3.66744e-05 
52 4 9.74077e-07 5.12179e-05 5.2205e-05 5.00924e-05 9.31308e-12 1.94345e-12 -3.0805e-12 0.000162673 3.39465e-05 -5.38075e-05 
20 1 1.11934e-06 4.98821e-05 5.21088e-05 4.97166e-05 -5.97613e-12 5.22939e-12 -6.07778e-12 -0.000128211 0.000112191 -0.000130392 
50 4 9.61697e-07 5.10612e-05 5.29239e-05 5.01351e-05 4.9904e-12 8.54567e-12 1.43787e-12 7.84741e-05 0.000134381 2.26105e-05 
25 4 9.80726e-07 4.88165e-05 5.34399e-05 5.02195e-05 -5.00604e-12 5.36894e-12 6.79074e-12 -6.63732e-05 7.11848e-05 9.00359e-05 
7 2 1.18961e-06 4.96887e-05 4.7939e-05 5.09744e-05 5.04233e-12 -7.86758e-12 3.56036e-12 9.78667e-06 -1.52702e-05 6.91032e-06 
65 2 1.32095e-06 4.91246e-05 4.8917e-05 5.07042e-05 -5.8097e-12 -8.05869e-12 -1.14231e-12 -3.98356e-05 -5.52563e-05 -7.83253e-06 
22 3 1.12143e-06 4.9454e-05 4.96816e-05 5.07412e-05 9.27434e-13 -7.8592e-12 6.11334e-12 7.93207e-06 -6.72174e-05 5.22856e-05 
38 1 1.36496e-06 4.93703e-05 5.06817e-05 5.08872e-05 -7.67456e-12 -4.58824e-12 4.47763e-12 -0.000176397 -0.000105459 0.000102916 
67 4 8.30963e-07 4.92889e-05 5.10189e-05 5.09502e-05 -4.24038e-12 9.05262e-12 -2.63224e-13 -6.98826e-05 0.00014919 -4.338e-06 
53 1 1.20266e-06 5.05088e-05 5.11766e-05 5.10281e-05 9.91431e-12 -2.7482e-13 1.27705e-12 0.000185316 -5.13687e-06 2.38703e-05 
27 4 8.96803e-07 5.0758e-05 5.13057e-05 5.0589e-05 9.97529e-12 -2.77677e-13 -6.45327e-13 0.000148174 -4.12464e-06 -9.58575e-06 
66 1 1.26196e-06 5.10086e-05 5.18249e-05 5.04829e-05 9.41609e-12 -1.32988e-12 3.09331e-12 0.000336357 -4.75054e-05 0.000110498 
75 1 1.3533e-06 5.22936e-05 5.1484e-05 5.06419e-05 7.28219e-12 -1.16422e-12 6.75384e-12 2.72525e-05 -4.35692e-06 2.52753e-05 
62 4 8.30782e-07 5.05076e-05 5.19763e-05 5.05496e-05 8.817e-12 1.10683e-12 4.58643e-12 0.000143959 1.80717e-05 7.48846e-05 
60 4 9.80832e-07 4.92899e-05 5.25181e-05 5.10253e-05 -6.18716e-12 2.45576e-12 7.46246e-12 -7.43212e-05 2.9499e-05 8.96404e-05 
47 4 1.11223e-06 5.13365e-05 5.22663e-05 5.07066e-05 7.79631e-12 3.81844e-12 4.96357e-12 0.000190528 9.33159e-05 0.000121301 
58 4 9.25242e-07 5.00953e-05 5.29128e-05 5.0637e-05 5.64373e-12 -7.81134e-13 -8.21816e-12 6.54063e-05 -9.05272e-06 -9.52419e-05 
6 4 8.75043e-07 4.99194e-05 5.31448e-05 5.09601e-05 -3.81e-13 6.29275e-12 7.76248e-12 -9.89564e-06 0.00016344 0.000201613 
73 1 1.19304e-06 4.95186e-05 5.39683e-05 5.05582e-05 -3.04549e-12 7.18256e-12 6.25586e-12 -4.58658e-05 0.000108171 9.42147e-05 
11 4 9.24208e-07 5.10485e-05 5.09934e-05 5.14902e-05 6.73656e-12 4.45105e-12 5.89974e-12 0.000114551 7.56871e-05 0.000100321 
59 4 1.02316e-06 4.98979e-05 5.10906e-05 5.14918e-05 -7.95767e-12 -2.33056e-12 5.58964e-12 -0.000198274 -5.80685e-05 0.000139272 
1 1 1.35412e-06 4.98145e-05 5.1843e-05 5.12589e-05 -2.53421e-12 3.40018e-12 9.0563e-12 -0.000117435 0.000157564 0.000419668 
13 1 1.39191e-06 5.07266e-05 5.19468e-05 5.13757e-05 4.57425e-12 4.67283e-12 7.56578e-12 0.000201859 0.000206209 0.000333873 
48 4 1.00869e-06 5.01433e-05 4.97502e-05 5.14443e-05 2.82847e-12 -4.75375e-12 -8.33076e-12 2.99074e-05 -5.02647e-05 -8.80869e-05 
68 4 9.09328e-07 5.0511e-05 5.07794e-05 5.16468e-05 5.08713e-12 3.35282e-12 7.92968e-12 5.75907e-05 3.79568e-05 8.97708e-05 
33 4 8.40083e-07 5.05676e-05 5.05053e-05 5.17044e-05 7.15284e-12 -6.67073e-12 2.08282e-12 0.000156022 -0.000145506 4.54317e-05 
71 1 1.10366e-06 5.04125e-05 5.09273e-05 5.11798e-05 5.07799e-13 -9.95774e-12 7.65255e-13 9.76524e-06 -0.000191493 1.47163e-05 
5 5 1.4839e-06 4.98894e-05 4.99058e-05 5.21711e-05 -5.07042e-12 -3.7703e-12 7.75085e-12 -9.06024e-05 -6.73709e-05 0.000138499 
49 4 8.9947e-07 5.02499e-05 5.09605e-05 5.22568e-05 -5.11219e-12 -5.19894e-12 6.84372e-12 -5.22291e-05 -5.31154e-05 6.99195e-05 
72 1 1.40228e-06 5.04534e-05 5.23554e-05 5.26197e-05 1.11496e-12 9.92725e-12 4.54528e-13 2.38371e-05 0.000212238 9.7175e-06 
76 1 1.3551e-06 4.93929e-05 5.23347e-05 4.97254e-05 -9.36006e-12 2.79592e-12 2.13825e-12 -0.000557171 0.000166431 0.000127282 
77 2 1.17092e-06 5.02857e-05 4.68305e-05 5.0512e-05 -5.62178e-12 -3.827e-12 7.33142e-12 0 0 0 
78 4 9.52952e-07 4.99143e-05 5.22037e-05 5.06295e-05 -5.04721e-12 4.24748e-12 7.51563e-12 -0.000130138 0.000109517 0.000193783 
79 4 9.00222e-07 5.11475e-05 5.1358e-05 5.26644e-05 9.57735e-12 -2.45098e-13 2.86605e-12 5.51334e-05 -1.41094e-06 1.64988e-05 
80 1 1.38433e-06 4.96784e-05 5.18157e-05 4.87645e-05 1.55021e-12 2.13163e-13 -9.87681e-12 6.06287e-05 8.33683e-06 -0.000386283 
81 1 1.29263e-06 5.10344e-05 5.13519e-05 4.94362e-05 4.72121e-12 -4.01637e-12 -7.84722e-12 0.000157262 -0.000133784 -0.000261388 
82 1 1.33708e-06 4.89361e-05 5.26518e-05 5.06013e-05 -9.55711e-12 -2.38102e-12 1.72985e-12 -0.00017893 -4.45778e-05 3.23865e-05 
83 1 1.22098e-06 5.02331e-05 5.33932e-05 4.91161e-05 3.21237e-12 2.37072e-12 -9.16844e-12 6.5009e-05 4.79765e-05 -0.000185543 
84 1 1.36993e-06 4.96205e-05 5.16247e-05 5.00162e-05 -6.6582e-12 -1.97755e-12 7.19428e-12 -0.000431756 -0.000128236 0.000466518 
85 4 1.03859e-06 4.95252e-05 5.42525e-05 4.93872e-05 4.42582e-12 7.45045e-12 -4.99028e-12 8.72663e-05 0.000146905 -9.83961e-05 
86 4 8.43495e-07 4.94127e-05 5.48352e-05 4.86766e-05 -8.3316e-12 5.49669e-12 -6.08921e-13 -1.0208e-05 6.73465e-06 -7.46061e-07 
87 4 9.84805e-07 4.94947e-05 5.28567e-05 4.94198e-05 1.12888e-12 8.4584e-12 5.21355e-12 2.65717e-05 0.000199094 0.000122717 
88 4 1.05078e-06 4.80225e-05 5.38298e-05 5.03173e-05 -8.92164e-12 4.38148e-12 1.09862e-12 -2.24389e-05 1.10199e-05 2.76316e-06 
89 4 9.02446e-07 5.06737e-05 5.28045e-05 4.95185e-05 1.61844e-12 9.8614e-12 3.65331e-13 3.56708e-05 0.000217348 8.052e-06 
90 4 8.87746e-07 5.01562e-05 5.06456e-05 5.07926e-05 -6.38288e-12 -6.82665e-12 3.55749e-12 -8.05323e-05 -8.61314e-05 4.48847e-05 
91 4 1.04878e-06 4.96272e-05 5.15651e-05 4.90402e-05 -7.08301e-12 -3.96766e-13 -7.04795e-12 -0.000123081 -6.8946e-06 -0.000122472 
92 4 9.65681e-07 5.02333e-05 5.15641e-05 5.08854e-05 6.00618e-12 -1.75893e-12 7.79949e-12 6.71021e-05 -1.96511e-05 8.71373e-05 
93 4 8.74258e-07 5.01288e-05 5.1285e-05 5.15542e-05 -1.13265e-12 3.70306e-12 9.21979e-12 -2.23618e-05 7.31091e-05 0.000182025 
94 4 7.57992e-07 5.02458e-05 5.10267e-05 5.01193e-05 -4.12763e-13 -9.76723e-12 2.10494e-12 -4.87787e-06 -0.000115425 2.48753e-05 
95 4 8.63693e-07 5.1668e-05 5.05375e-05 5.05455e-05 8.77844e-12 -4.17794e-12 2.34174e-12 0.00012008 -5.71497e-05 3.20326e-05 