ITEM: TIMESTEP
0
ITEM: NUMBER OF ATOMS
5
ITEM: BOX BOUNDS ff ff ff
0 0.0001
0 0.0001
0 0.0001
ITEM: ATOMS id type diameter x y z vx vy vz fx fy fz 
2 2 1.2839e-06 5e-05 4.9e-05 2e-06 0 0 0 -7.678e-05 0 0 
5 5 1.4839e-06 5.1e-05 4.9e-05 2e-06 0 0 0 7.678e-05 -5.122e-05 0 
4 4 1.0539e-06 4.9e-05 5e-05 2e-06 0 0 0 0 0 0 
3 3 1.0283e-06 5.1e-05 5e-05 2e-06 0 0 0 0 5.122e-05 0 
1 1 1.0839e-06 5e-05 5.1e-05 2e-06 0 0 0 0 0 0 
ITEM: TIMESTEP
500
ITEM: NUMBER OF ATOMS
6
ITEM: BOX BOUNDS ff ff ff
0 0.0001
0 0.0001
0 0.0001
ITEM: ATOMS id type diameter x y z vx vy vz fx fy fz 
2 2 1.35581e-06 4.97803e-05 4.90095e-05 2e-06 9.97161e-10 -7.53055e-11 0 9.97161e-11 -7.53055e-12 0 
5 5 1.4839e-06 5.12095e-05 4.89015e-05 2e-06 1.71233e-10 -9.85231e-10 0 1.24921e-07 -7.18762e-07 0 
4 4 1.05045e-06 4.9e-05 5e-05 2e-06 0 0 0 0 0 0 
3 3 1.07736e-06 5.09908e-05 5.01596e-05 2e-06 -1.71233e-10 9.85231e-10 0 -1.24921e-07 7.18762e-07 0 
1 1 1.22057e-06 5e-05 5.1e-05 2e-06 0 0 0 0 0 0 
6 4 9.07185e-07 4.99096e-05 5.19556e-05 2.55415e-06 0 0 0 0 0 0 
ITEM: TIMESTEP
1000
ITEM: NUMBER OF ATOMS
8
ITEM: BOX BOUNDS ff ff ff
0 0.0001
0 0.0001
0 0.0001
ITEM: ATOMS id type diameter x y z vx vy vz fx fy fz 
2 2 1.16911e-06 4.98263e-05 4.85078e-05 1.70802e-06 -8.43494e-12 8.4182e-10 5.39692e-10 -8.43494e-13 8.4182e-11 5.39692e-11 
5 5 1.4839e-06 5.12211e-05 4.88908e-05 2e-06 1.78622e-10 -9.83918e-10 0 6.00006e-07 -3.30505e-06 0 
4 4 1.04701e-06 4.89608e-05 5.00276e-05 1.98583e-06 7.92845e-10 -5.25805e-10 3.08099e-10 7.92845e-11 -5.25805e-11 3.08099e-11 
3 3 1.12876e-06 5.09908e-05 5.01596e-05 2e-06 -1.78622e-10 9.83918e-10 0 -6.00006e-07 3.30505e-06 0 
1 1 1.37448e-06 5.00008e-05 5.09914e-05 1.995e-06 8.16025e-11 -8.62192e-10 -4.99966e-10 1.79142e-07 -1.89277e-06 -1.09758e-06 
6 4 9.04215e-07 4.99087e-05 5.19643e-05 2.55915e-06 -8.16025e-11 8.62192e-10 4.99966e-10 -1.79142e-07 1.89277e-06 1.09758e-06 
7 2 1.10166e-06 4.98194e-05 4.94669e-05 2.32514e-06 -2.62924e-10 -6.9651e-10 -6.67642e-10 -2.62924e-11 -6.9651e-11 -6.67642e-11 
8 4 9.86742e-07 4.94848e-05 5.18285e-05 1.2796e-06 0 0 0 0 0 0 
ITEM: TIMESTEP
1500
ITEM: NUMBER OF ATOMS
9
ITEM: BOX BOUNDS ff ff ff
0 0.0001
0 0.0001
0 0.0001
ITEM: ATOMS id type diameter x y z vx vy vz fx fy fz 
8 4 9.83512e-07 4.93792e-05 5.20049e-05 1.13741e-06 -5.42138e-10 7.69201e-10 -3.38254e-10 -5.42138e-11 7.69201e-11 -3.38254e-11 
2 2 1.23459e-06 4.98263e-05 4.85078e-05 1.70802e-06 3.23039e-12 -8.03233e-10 -5.95656e-10 9.62434e-10 -2.39308e-07 -1.77465e-07 
4 4 1.04358e-06 4.89609e-05 5.00273e-05 1.98517e-06 7.83761e-10 -4.95306e-10 3.74688e-10 7.83761e-11 -4.95306e-11 3.74688e-11 
9 1 1.23546e-06 4.99829e-05 5.11503e-05 1.50649e-06 1.87464e-10 -4.49147e-10 8.7357e-10 1.87464e-11 -4.49147e-11 8.7357e-11 
5 5 1.4839e-06 5.12295e-05 4.88315e-05 2.00143e-06 -7.49955e-11 9.95065e-10 -6.49709e-11 -7.49955e-12 9.95065e-11 -6.49709e-12 
7 2 1.16337e-06 4.98225e-05 4.94696e-05 2.42131e-06 -3.23039e-12 8.03233e-10 5.95656e-10 -9.62434e-10 2.39308e-07 1.77465e-07 
3 3 1.18261e-06 5.11283e-05 5.01746e-05 1.91374e-06 7.54593e-10 -3.50762e-10 -5.54577e-10 7.54593e-11 -3.50762e-11 -5.54577e-11 
1 1 1.22143e-06 5.02164e-05 5.05908e-05 2.59454e-06 -1.87464e-10 4.49147e-10 -8.7357e-10 -1.87464e-11 4.49147e-11 -8.7357e-11 
6 4 9.01254e-07 4.99087e-05 5.19643e-05 2.55915e-06 -8.16025e-11 8.62192e-10 4.99966e-10 -8.16025e-12 8.62192e-11 4.99966e-11 
ITEM: TIMESTEP
2000
ITEM: NUMBER OF ATOMS
11
ITEM: BOX BOUNDS ff ff ff
0 0.0001
0 0.0001
0 0.0001
ITEM: ATOMS id type diameter x y z vx vy vz fx fy fz 
8 4 9.80292e-07 4.93792e-05 5.20049e-05 1.13741e-06 -5.92569e-10 7.795e-10 -2.03081e-10 -1.20329e-07 1.58287e-07 -4.12381e-08 
2 2 1.30375e-06 4.98263e-05 4.85078e-05 1.70802e-06 6.30008e-11 -7.30427e-10 -6.80079e-10 6.30008e-12 -7.30427e-11 -6.80079e-11 
4 4 1.04017e-06 4.8961e-05 5.00273e-05 1.98494e-06 7.73644e-10 -4.93621e-10 3.97258e-10 7.73644e-11 -4.93621e-11 3.97258e-11 
9 1 1.39125e-06 5.00812e-05 5.10814e-05 1.37801e-06 6.06052e-11 1.36457e-10 -9.8879e-10 4.71285e-08 1.06114e-07 -7.68915e-07 
5 5 1.4839e-06 5.12293e-05 4.88315e-05 2.00161e-06 -5.37712e-11 9.95103e-10 -8.29408e-11 -5.37712e-12 9.95103e-11 -8.29408e-12 
7 2 1.22853e-06 4.97426e-05 4.94286e-05 2.57314e-06 3.51076e-10 9.31928e-10 9.08649e-11 3.51076e-11 9.31928e-11 9.08649e-12 
3 3 1.23903e-06 5.11554e-05 5.02005e-05 1.88741e-06 7.16924e-10 -3.45257e-10 -6.05654e-10 7.16924e-11 -3.45257e-11 -6.05654e-11 
1 1 1.37545e-06 5.01992e-05 5.06552e-05 2.68426e-06 8.55606e-11 -3.09076e-10 9.47181e-10 7.31792e-08 -2.6435e-07 8.10115e-07 
6 4 8.98304e-07 4.99087e-05 5.19643e-05 2.55915e-06 -8.16025e-11 8.62192e-10 4.99966e-10 -8.16025e-12 8.62192e-11 4.99966e-11 
10 4 9.55967e-07 5.01164e-05 4.99148e-05 1.5644e-06 -2.97436e-11 9.87038e-10 -1.57704e-10 -2.97436e-12 9.87038e-11 -1.57704e-11 
11 4 9.48775e-07 5.06887e-05 5.02099e-05 3.65718e-06 -4.16364e-10 3.7769e-10 -8.27038e-10 -4.16364e-11 3.7769e-11 -8.27038e-11 
ITEM: TIMESTEP
2500
ITEM: NUMBER OF ATOMS
15
ITEM: BOX BOUNDS ff ff ff
0 0.0001
0 0.0001
0 0.0001
ITEM: ATOMS id type diameter x y z vx vy vz fx fy fz 
12 1 1.19193e-06 5.02047e-05 5.06044e-05 1.07978e-06 -8.27859e-11 -8.61067e-10 5.01707e-10 -8.27859e-12 -8.61067e-11 5.01707e-11 
9 1 1.29106e-06 5.0362e-05 5.18081e-05 1.57742e-06 1.55918e-10 -5.15788e-12 9.87757e-10 2.35088e-07 -7.77687e-09 1.48931e-06 
8 4 9.77082e-07 4.91999e-05 5.20748e-05 1.08866e-06 9.37229e-10 -2.60468e-10 2.31857e-10 9.37229e-11 -2.60468e-11 2.31857e-11 
2 2 1.37677e-06 4.9828e-05 4.84939e-05 1.69375e-06 -8.25474e-11 6.95308e-10 7.13956e-10 -8.25474e-12 6.95308e-11 7.13956e-11 
10 4 9.52838e-07 5.01144e-05 4.96645e-05 1.6274e-06 8.27865e-11 8.61067e-10 -5.01706e-10 8.27865e-12 8.61067e-11 -5.01706e-11 
4 4 1.03676e-06 4.89623e-05 5.00275e-05 1.98323e-06 -6.33892e-10 -7.51082e-10 -1.84546e-10 -8.33874e-07 -9.88036e-07 -2.42767e-07 
3 3 1.29814e-06 5.11621e-05 5.0207e-05 1.88048e-06 -4.85643e-11 9.94967e-10 -8.76528e-11 -8.29187e-08 1.69881e-06 -1.49658e-07 
5 5 1.4839e-06 5.12293e-05 4.88315e-05 2.00166e-06 4.85643e-11 -9.94967e-10 8.76528e-11 8.29187e-08 -1.69881e-06 1.49658e-07 
1 1 1.27248e-06 4.969e-05 5.08898e-05 2.19509e-06 5.59065e-10 8.28926e-10 -1.81015e-11 6.7442e-07 9.99965e-07 -2.18365e-08 
7 2 1.29735e-06 4.97165e-05 4.94323e-05 2.65742e-06 8.25474e-11 -6.95308e-10 -7.13956e-10 8.25474e-12 -6.95308e-11 -7.13956e-11 
6 4 8.95363e-07 4.99087e-05 5.19643e-05 2.55915e-06 -4.14895e-10 1.42956e-10 8.98569e-10 -5.54303e-08 1.9099e-08 1.2005e-07 
13 1 1.18297e-06 5.03225e-05 5.08425e-05 3.24453e-06 5.15765e-10 -3.85691e-11 8.55861e-10 1.59501e-07 -1.19275e-08 2.64676e-07 
11 4 9.45669e-07 5.08088e-05 5.00917e-05 3.85457e-06 -4.49205e-10 6.93382e-10 -5.63415e-10 -4.49205e-11 6.93382e-11 -5.63415e-11 
14 4 9.60022e-07 4.93898e-05 5.09943e-05 4.85646e-07 -4.41428e-10 2.04484e-10 -8.73686e-10 -4.41428e-11 2.04484e-11 -8.73686e-11 
15 4 9.39405e-07 5.02392e-05 5.18003e-05 4.77154e-07 -1.10972e-10 -6.9836e-12 -9.93799e-10 -1.79698e-07 -1.13086e-08 -1.60927e-06 
ITEM: TIMESTEP
3000
ITEM: NUMBER OF ATOMS
20
ITEM: BOX BOUNDS ff ff ff
0 0.0001
0 0.0001
0 0.0001
ITEM: ATOMS id type diameter x y z vx vy vz fx fy fz 
12 1 1.34223e-06 5.03524e-05 5.04785e-05 8.30374e-07 8.41217e-10 -4.50502e-10 2.99003e-10 1.31645e-07 -7.05005e-08 4.6792e-08 
9 1 1.20227e-06 5.0757e-05 5.19414e-05 2.3264e-06 -7.13006e-11 -1.84427e-10 9.80257e-10 -4.01844e-09 -1.03942e-08 5.52464e-08 
8 4 9.73884e-07 4.9169e-05 5.2112e-05 1.02105e-06 -5.55623e-10 3.72899e-10 -7.43122e-10 -5.55623e-11 3.72899e-11 -7.43122e-11 
2 2 1.0807e-06 5.01938e-05 4.81433e-05 1.95115e-06 6.85823e-10 -4.90313e-10 5.3781e-10 4.41511e-08 -3.15648e-08 3.46225e-08 
10 4 9.49718e-07 5.01158e-05 4.96596e-05 1.62508e-06 2.01716e-10 7.05797e-10 -6.79088e-10 2.01716e-11 7.05797e-11 -6.79088e-11 
4 4 1.03337e-06 4.86723e-05 5.00438e-05 1.68829e-06 8.09066e-10 5.30051e-10 2.53888e-10 8.09066e-11 5.30051e-11 2.53888e-11 
3 3 1.36007e-06 5.12685e-05 5.02272e-05 1.81484e-06 -1.78634e-11 3.82919e-10 -9.23609e-10 -1.28289e-08 2.75e-07 -6.63307e-07 
5 5 1.4839e-06 5.12964e-05 4.88226e-05 2.0057e-06 1.96943e-11 -9.90701e-10 1.34623e-10 1.66354e-08 -8.36829e-07 1.13714e-07 
1 1 1.06014e-06 4.97396e-05 5.17391e-05 1.77875e-06 -1.34086e-10 -9.2036e-10 3.67366e-10 -1.34086e-11 -9.2036e-11 3.67366e-11 
7 2 1.37001e-06 5.00189e-05 4.89582e-05 2.87401e-06 6.19995e-10 -7.83473e-10 4.21517e-11 1.57333e-06 -1.98818e-06 1.06967e-07 
6 4 8.92431e-07 4.97754e-05 5.20472e-05 2.71235e-06 -3.78242e-11 -3.22689e-10 -9.45749e-10 -3.78242e-12 -3.22689e-11 -9.45749e-11 
13 1 1.33213e-06 5.0317e-05 5.08898e-05 3.24842e-06 -4.40518e-10 7.15067e-10 -5.42792e-10 -9.00308e-08 1.46142e-07 -1.10933e-07 
11 4 9.42573e-07 5.08176e-05 5.00772e-05 3.86522e-06 4.40518e-10 -7.15067e-10 5.42792e-10 9.00308e-08 -1.46142e-07 1.10933e-07 
14 4 9.56879e-07 4.9386e-05 5.0996e-05 4.86888e-07 -8.41217e-10 4.50502e-10 -2.99003e-10 -1.31645e-07 7.05005e-08 -4.6792e-08 
15 4 9.36329e-07 5.02106e-05 5.17813e-05 4.66155e-07 6.10561e-10 3.60425e-10 7.05202e-10 3.48103e-07 2.05491e-07 4.02061e-07 
16 2 1.21893e-06 4.94055e-05 4.87069e-05 1.33295e-06 -6.85824e-10 4.9032e-10 -5.37802e-10 -4.41512e-08 3.15652e-08 -3.4622e-08 
17 4 1.1007e-06 4.92609e-05 4.99161e-05 2.82247e-06 -6.24153e-10 7.8047e-10 -3.60475e-11 -1.57934e-06 1.97488e-06 -9.12137e-08 
18 4 9.09964e-07 5.1263e-05 5.10358e-05 2.60576e-06 -4.84361e-12 7.14853e-10 6.99258e-10 -3.80684e-09 5.6184e-07 5.49584e-07 
19 1 1.10115e-06 5.08409e-05 5.21534e-05 1.19778e-06 7.17445e-11 1.83294e-10 -9.80437e-10 4.05049e-09 1.03482e-08 -5.53526e-08 
20 1 1.20524e-06 4.95835e-05 5.06301e-05 1.97681e-06 2.77922e-10 6.21489e-10 -7.32469e-10 5.98937e-09 1.33934e-08 -1.57851e-08 
ITEM: TIMESTEP
3500
ITEM: NUMBER OF ATOMS
28
ITEM: BOX BOUNDS ff ff ff
0 0.0001
0 0.0001
0 0.0001
ITEM: ATOMS id type diameter x y z vx vy vz fx fy fz 
14 4 9.53746e-07 4.9348e-05 5.10731e-05 4.78783e-07 4.01266e-10 -8.53129e-10 3.33402e-10 4.01266e-11 -8.53129e-11 3.33402e-11 
15 4 9.33264e-07 5.02113e-05 5.17816e-05 4.65211e-07 7.11339e-10 4.31631e-10 5.547e-10 3.64631e-07 2.21253e-07 2.84339e-07 
12 1 1.12295e-06 5.09223e-05 5.06637e-05 5.9351e-07 9.63479e-11 5.39879e-11 9.93882e-10 9.63479e-12 5.39879e-12 9.93882e-11 
16 2 1.2872e-06 4.93918e-05 4.87168e-05 1.32218e-06 -6.69469e-10 5.06192e-10 -5.43673e-10 -8.6807e-07 6.56356e-07 -7.04956e-07 
8 4 9.70695e-07 4.88372e-05 5.21909e-05 6.85537e-07 -5.48898e-10 2.22223e-11 -8.35594e-10 -2.86358e-07 1.15933e-08 -4.35927e-07 
19 1 1.24e-06 5.09606e-05 5.22475e-05 1.14472e-06 -5.56329e-10 -6.31361e-10 5.40261e-10 -5.56329e-11 -6.31361e-11 5.40261e-11 
2 2 1.14123e-06 5.02004e-05 4.81055e-05 1.97879e-06 6.69469e-10 -5.06192e-10 5.43673e-10 8.6807e-07 -6.56356e-07 7.04956e-07 
10 4 9.46609e-07 5.02571e-05 4.94995e-05 1.64605e-06 1.08668e-10 -3.76012e-10 9.20221e-10 1.08668e-11 -3.76012e-11 9.20221e-11 
4 4 1.02998e-06 4.85651e-05 4.99666e-05 1.64189e-06 7.80376e-10 5.39047e-10 3.16923e-10 7.80376e-11 5.39047e-11 3.16923e-11 
3 3 1.14581e-06 5.17783e-05 4.9928e-05 2.02292e-06 -6.57322e-10 6.99031e-10 -2.81574e-10 -6.57322e-11 6.99031e-11 -2.81574e-11 
20 1 1.35721e-06 4.95012e-05 5.0617e-05 2.02922e-06 -1.71326e-10 -5.54472e-10 -8.14376e-10 -4.70986e-07 -1.52428e-06 -2.23877e-06 
1 1 1.19382e-06 4.94298e-05 5.21669e-05 1.58769e-06 -3.50903e-10 -9.33461e-10 -7.42754e-11 -2.98688e-07 -7.94561e-07 -6.32231e-08 
5 5 1.4839e-06 5.13997e-05 4.86685e-05 1.94303e-06 -2.81324e-10 -9.5784e-10 -5.82978e-11 -2.81324e-11 -9.5784e-11 -5.82978e-12 
9 1 1.35387e-06 5.10218e-05 5.21382e-05 2.52362e-06 5.71625e-10 5.17395e-10 6.36826e-10 5.71625e-11 5.17395e-11 6.36826e-11 
21 2 1.08212e-06 5.03692e-05 4.91113e-05 2.59639e-06 7.63884e-10 2.19588e-10 -6.06846e-10 1.8466e-07 5.30831e-08 -1.46698e-07 
17 4 1.09709e-06 4.91255e-05 4.99135e-05 2.95414e-06 -3.07649e-10 -5.76067e-10 7.57297e-10 -3.57933e-07 -6.70223e-07 8.81075e-07 
18 4 9.06985e-07 5.14392e-05 5.10798e-05 2.62102e-06 -5.00876e-10 8.51934e-10 -1.52747e-10 -5.00876e-11 8.51934e-11 -1.52747e-11 
6 4 8.8951e-07 4.9634e-05 5.23532e-05 2.87232e-06 2.27772e-10 -9.21156e-10 -3.15581e-10 2.27772e-11 -9.21156e-11 -3.15581e-11 
7 2 1.2076e-06 4.94956e-05 4.88601e-05 3.29041e-06 -7.63884e-10 -2.19588e-10 6.06846e-10 -1.8466e-07 -5.30831e-08 1.46698e-07 
13 1 1.23191e-06 4.9998e-05 5.10344e-05 4.07479e-06 -4.40672e-10 -1.24841e-10 8.88945e-10 -4.40672e-11 -1.24841e-11 8.88945e-11 
11 4 9.39487e-07 5.08264e-05 5.00629e-05 3.87607e-06 -4.40518e-10 7.15067e-10 -5.42792e-10 -4.40518e-11 7.15067e-11 -5.42792e-11 
22 1 1.26765e-06 4.97971e-05 5.0119e-05 8.45445e-07 -4.3246e-10 8.55562e-10 2.84589e-10 -4.3246e-11 8.55562e-11 2.84589e-11 
23 3 1.11577e-06 5.10298e-05 5.07256e-05 1.71216e-06 6.59178e-10 -7.50511e-10 -4.70872e-11 4.24139e-07 -4.82906e-07 -3.02976e-08 
24 1 1.14628e-06 5.06595e-05 5.02584e-05 2.67336e-06 -3.25146e-10 -4.08839e-10 8.5272e-10 -3.25146e-11 -4.08839e-11 8.5272e-11 
25 4 1.0206e-06 5.03277e-05 5.15248e-05 1.76214e-06 -6.59113e-10 7.50584e-10 4.68449e-11 -4.2411e-07 4.82967e-07 3.01426e-08 
26 4 1.04037e-06 5.00224e-05 5.296e-05 2.09322e-06 5.3313e-10 7.13408e-10 4.54776e-10 5.85124e-07 7.82985e-07 4.99128e-07 
27 4 9.11629e-07 5.04706e-05 5.11784e-05 3.12218e-06 7.04626e-10 -3.78106e-10 6.00447e-10 1.10133e-06 -5.90977e-07 9.38494e-07 
28 4 8.91254e-07 4.98409e-05 5.15163e-05 2.58561e-06 -9.62607e-11 9.84267e-10 1.48161e-10 -2.72412e-07 2.78542e-06 4.19287e-07 
ITEM: TIMESTEP
4000
ITEM: NUMBER OF ATOMS
35
ITEM: BOX BOUNDS ff ff ff
0 0.0001
0 0.0001
0 0.0001
ITEM: ATOMS id type diameter x y z vx vy vz fx fy fz 
14 4 9.50623e-07 4.95131e-05 5.08914e-05 4.77316e-07 7.05749e-10 -5.83682e-10 -4.01538e-10 2.90008e-07 -2.39848e-07 -1.65001e-07 
15 4 9.30208e-07 5.01299e-05 5.20799e-05 4.68907e-07 8.89714e-10 -2.19906e-10 4.00063e-10 8.89714e-11 -2.19906e-11 4.00063e-11 
12 1 1.26454e-06 5.13269e-05 5.04473e-05 6.37627e-07 3.03551e-10 -2.27352e-10 -9.25294e-10 3.38838e-07 -2.53781e-07 -1.03286e-06 
16 2 1.3593e-06 4.92648e-05 4.85147e-05 1.59546e-06 -2.57471e-11 9.8336e-10 -1.79832e-10 -2.57471e-12 9.8336e-11 -1.79832e-11 
8 4 9.67517e-07 4.87841e-05 5.22973e-05 5.98762e-07 1.07484e-10 -9.60825e-10 2.55467e-10 1.07484e-11 -9.60825e-11 2.55467e-11 
19 1 1.39635e-06 5.11655e-05 5.22238e-05 9.92254e-07 -8.85218e-10 -1.26043e-10 -4.47775e-10 -8.85218e-11 -1.26043e-11 -4.47775e-11 
2 2 1.20516e-06 5.02878e-05 4.79376e-05 2.11129e-06 7.9433e-10 -4.55609e-10 4.01822e-10 7.9433e-11 -4.55609e-11 4.01822e-11 
10 4 9.4351e-07 5.03682e-05 4.90844e-05 1.53939e-06 2.23264e-10 -6.75738e-10 7.02518e-10 5.08497e-07 -1.53903e-06 1.60003e-06 
4 4 1.02661e-06 4.83963e-05 5.00361e-05 1.67212e-06 9.57816e-10 -1.98315e-10 -2.0799e-10 9.57816e-11 -1.98315e-11 -2.0799e-11 
3 3 1.20047e-06 5.18034e-05 4.99208e-05 2.02042e-06 -8.21106e-10 3.89081e-10 4.17613e-10 -8.21106e-11 3.89081e-11 4.17613e-11 
20 1 1.19872e-06 4.98107e-05 4.99895e-05 2.26354e-06 -5.95343e-10 3.53891e-10 -7.21338e-10 -1.32469e-06 7.87438e-07 -1.60504e-06 
1 1 1.34436e-06 4.93032e-05 5.22125e-05 1.64508e-06 4.73278e-10 7.88028e-10 3.93726e-10 4.73278e-11 7.88028e-11 3.93726e-11 
5 5 1.4839e-06 5.14448e-05 4.86149e-05 1.91551e-06 -7.82906e-10 3.28619e-10 5.28269e-10 -7.82906e-11 3.28619e-11 5.28269e-11 
9 1 1.15956e-06 5.13865e-05 5.19097e-05 3.02973e-06 4.09852e-10 -6.19269e-10 6.69722e-10 1.19026e-07 -1.79843e-07 1.94495e-07 
21 2 1.14273e-06 5.04044e-05 4.90516e-05 2.61753e-06 8.08443e-10 -3.79177e-10 -4.50161e-10 2.29299e-06 -1.07546e-06 -1.27679e-06 
17 4 1.0935e-06 4.90029e-05 4.99006e-05 3.06606e-06 -7.89628e-10 3.25233e-10 5.20299e-10 -7.12222e-07 2.9335e-07 4.69294e-07 
18 4 9.04015e-07 5.15469e-05 5.09917e-05 2.58207e-06 -5.90613e-10 -7.722e-10 2.34273e-10 -5.90613e-11 -7.722e-11 2.34273e-11 
6 4 8.86597e-07 4.96268e-05 5.23708e-05 2.87865e-06 -4.91878e-10 8.14112e-10 3.08671e-10 -4.91878e-11 8.14112e-11 3.08671e-11 
7 2 1.27524e-06 4.94609e-05 4.88411e-05 3.32238e-06 -7.21382e-10 -3.13503e-10 6.17515e-10 -1.84018e-06 -7.99719e-07 1.57523e-06 
13 1 1.38725e-06 4.9998e-05 5.10344e-05 4.07479e-06 -5.57697e-10 -1.39381e-10 8.18258e-10 -1.95132e-06 -4.87679e-07 2.86299e-06 
11 4 9.36411e-07 5.08182e-05 5.00643e-05 3.94028e-06 -6.65713e-11 -6.79442e-11 9.95466e-10 -2.1092e-07 -2.1527e-07 3.15397e-06 
22 1 1.4275e-06 5.01061e-05 4.98778e-05 7.14554e-07 1.69664e-10 5.83732e-10 -7.94022e-10 5.32238e-07 1.83118e-06 -2.49086e-06 
23 3 1.169e-06 5.09592e-05 5.07227e-05 1.75832e-06 3.88565e-10 -6.39478e-10 6.63389e-10 7.12017e-07 -1.1718e-06 1.21561e-06 
24 1 1.29082e-06 5.08913e-05 5.01389e-05 2.84748e-06 5.79071e-10 3.25739e-10 -7.47376e-10 1.79495e-06 1.00969e-06 -2.31665e-06 
25 4 1.01726e-06 5.03193e-05 5.15908e-05 1.64701e-06 -5.90241e-10 8.00672e-10 -1.02663e-10 -1.0509e-06 1.42556e-06 -1.82787e-07 
26 4 1.03696e-06 4.98727e-05 5.31608e-05 2.11885e-06 -8.92836e-10 4.41299e-10 -8.99997e-11 -9.2478e-07 4.57088e-07 -9.32198e-08 
27 4 9.08644e-07 5.06284e-05 5.1192e-05 3.14979e-06 5.57697e-10 1.39381e-10 -8.18258e-10 1.95132e-06 4.87679e-07 -2.86299e-06 
28 4 8.88336e-07 5.00655e-05 5.16425e-05 2.61179e-06 2.09019e-10 -1.14535e-10 -9.71181e-10 2.09019e-11 -1.14535e-11 -9.71181e-11 
29 1 1.22705e-06 4.92024e-05 5.08278e-05 1.62315e-06 3.08925e-10 -5.66427e-10 7.64019e-10 4.57038e-08 -8.37998e-08 1.13032e-07 
30 1 1.25667e-06 5.08919e-05 5.2657e-05 2.2216e-06 9.38975e-10 -3.2313e-10 -1.1795e-10 8.05799e-07 -2.773e-07 -1.01221e-07 
31 4 9.5014e-07 5.04247e-05 5.11771e-05 4.81033e-07 -4.41234e-10 8.97336e-10 -1.0018e-11 -4.41234e-11 8.97336e-11 -1.0018e-12 
32 4 8.98947e-07 4.9247e-05 4.96366e-05 1.44988e-06 -7.42979e-10 -2.08588e-10 6.35982e-10 -1.04077e-06 -2.92192e-07 8.90889e-07 
33 4 1.00123e-06 4.92151e-05 5.12234e-05 2.67359e-06 -9.24186e-12 -3.59164e-10 -9.33229e-10 -9.24186e-13 -3.59164e-11 -9.33229e-11 
34 4 1.03874e-06 4.91817e-05 4.90661e-05 5.16833e-07 6.87921e-11 -4.49577e-10 8.90589e-10 3.92022e-08 -2.56198e-07 5.07515e-07 
35 4 8.36831e-07 4.88837e-05 5.14119e-05 8.35313e-07 -7.15515e-10 6.89745e-10 1.10859e-10 -3.35697e-07 3.23607e-07 5.20115e-08 
ITEM: TIMESTEP
4500
ITEM: NUMBER OF ATOMS
52
ITEM: BOX BOUNDS ff ff ff
0 0.0001
0 0.0001
0 0.0001
ITEM: ATOMS id type diameter x y z vx vy vz fx fy fz 
14 4 9.47511e-07 4.94541e-05 5.08419e-05 4.78095e-07 -6.9987e-10 4.69058e-10 -5.38671e-10 -1.95429e-06 1.30978e-06 -1.50416e-06 
31 4 9.47029e-07 5.03256e-05 5.12698e-05 4.73777e-07 -9.658e-11 -8.34468e-10 5.42527e-10 -9.658e-12 -8.34468e-11 5.42527e-11 
15 4 9.27163e-07 4.98167e-05 5.20904e-05 4.68388e-07 -9.78309e-10 -1.20826e-10 -1.68263e-10 -7.3327e-07 -9.05623e-08 -1.26118e-07 
34 4 1.03534e-06 4.89264e-05 4.89967e-05 5.21809e-07 -3.91058e-10 6.84662e-10 -6.1507e-10 -1.01061e-07 1.76936e-07 -1.58952e-07 
38 1 1.28321e-06 5.00697e-05 4.91469e-05 6.47155e-07 -2.40689e-10 -5.40731e-10 -8.06027e-10 -8.53242e-07 -1.91689e-06 -2.85737e-06 
12 1 1.05726e-06 5.15427e-05 5.07791e-05 8.76376e-07 9.3339e-11 9.8392e-10 1.52279e-10 1.25159e-07 1.31935e-06 2.04192e-07 
35 4 8.34091e-07 4.8766e-05 5.13882e-05 6.48911e-07 -7.14096e-11 9.7889e-10 -1.91506e-10 -7.14096e-12 9.7889e-11 -1.91506e-11 
36 1 1.32017e-06 5.09124e-05 5.22257e-05 6.56828e-07 8.36612e-10 1.15711e-10 5.35435e-10 1.21421e-06 1.67936e-07 7.77097e-07 
8 4 9.64349e-07 4.87025e-05 5.22807e-05 4.84102e-07 -4.03067e-10 -4.73482e-10 -7.83168e-10 -7.69859e-07 -9.04352e-07 -1.49585e-06 
32 4 8.96004e-07 4.90129e-05 4.97606e-05 1.12528e-06 -5.46104e-10 3.2392e-11 -8.37091e-10 -5.46104e-11 3.2392e-12 -8.37091e-11 
22 1 1.26845e-06 5.02198e-05 5.03287e-05 1.06741e-06 6.60927e-10 3.03883e-10 6.86171e-10 2.25207e-06 1.03547e-06 2.33809e-06 
19 1 1.16644e-06 5.18333e-05 5.26546e-05 1.39288e-06 -7.33033e-10 -3.43471e-10 -5.87104e-10 -7.33033e-11 -3.43471e-11 -5.87104e-11 
16 2 1.17957e-06 4.90729e-05 4.84369e-05 2.28718e-06 -2.84912e-10 -3.06829e-10 -9.0812e-10 -1.26822e-07 -1.36578e-07 -4.04229e-07 
5 5 1.4839e-06 5.15021e-05 4.8567e-05 1.89711e-06 -9.41345e-10 2.91251e-10 -1.70421e-10 -9.41345e-11 2.91251e-11 -1.70421e-11 
10 4 9.40421e-07 5.03553e-05 4.89266e-05 1.68753e-06 6.58212e-10 -6.61729e-10 3.58987e-10 2.16337e-06 -2.17493e-06 1.1799e-06 
4 4 1.02325e-06 4.82799e-05 4.99668e-05 1.70967e-06 -6.58501e-10 -7.45518e-10 1.02854e-10 -6.58501e-11 -7.45518e-11 1.02854e-11 
29 1 1.38178e-06 4.90721e-05 5.08692e-05 1.58142e-06 4.05266e-10 -8.415e-10 3.57263e-10 4.05266e-11 -8.415e-11 3.57263e-11 
23 3 1.22477e-06 5.10535e-05 5.07259e-05 1.90839e-06 -7.8713e-10 -1.23963e-10 -6.04201e-10 -1.54597e-06 -2.4347e-07 -1.18669e-06 
25 4 1.01393e-06 5.03758e-05 5.16723e-05 1.55806e-06 -6.79634e-10 6.87857e-10 -2.54855e-10 -6.79634e-11 6.87857e-11 -2.54855e-11 
1 1 1.19564e-06 4.9134e-05 5.27875e-05 1.32243e-06 4.18866e-10 6.39831e-10 6.44335e-10 7.69905e-07 1.17606e-06 1.18433e-06 
2 2 1.27266e-06 5.02808e-05 4.78934e-05 2.1006e-06 1.44055e-10 9.8957e-10 4.78099e-13 1.44055e-11 9.8957e-11 4.78099e-14 
20 1 1.34987e-06 4.96325e-05 4.97118e-05 2.06671e-06 -6.38207e-10 6.9325e-10 3.34807e-10 -1.60793e-06 1.74661e-06 8.43531e-07 
3 3 1.25774e-06 5.19386e-05 4.98705e-05 1.84857e-06 7.18236e-10 -6.94105e-10 -4.85383e-11 1.27128e-06 -1.22857e-06 -8.59132e-08 
30 1 1.09881e-06 5.01393e-05 5.25663e-05 2.3098e-06 -9.22584e-10 -3.58827e-10 -1.41711e-10 -1.30196e-06 -5.0638e-07 -1.99984e-07 
26 4 1.03357e-06 4.96472e-05 5.3483e-05 2.05181e-06 -2.93422e-10 -7.98088e-10 -5.26269e-10 -2.93422e-11 -7.98088e-11 -5.26269e-11 
21 2 1.20674e-06 5.05436e-05 4.88974e-05 2.80223e-06 -2.10015e-10 -7.98798e-10 -5.63751e-10 -2.10015e-11 -7.98798e-11 -5.63751e-11 
24 1 1.0828e-06 5.02114e-05 4.99565e-05 3.11154e-06 8.91283e-10 3.9577e-10 -2.21316e-10 8.91283e-11 3.9577e-11 -2.21316e-11 
18 4 9.01055e-07 5.19379e-05 5.10442e-05 2.56064e-06 -8.91786e-10 4.07192e-10 1.9726e-10 -8.91786e-11 4.07192e-11 1.9726e-11 
33 4 9.97957e-07 4.91573e-05 5.10649e-05 2.81532e-06 -1.96746e-11 8.46068e-10 -5.32712e-10 -1.96746e-12 8.46068e-11 -5.32712e-11 
28 4 8.85428e-07 5.01637e-05 5.15835e-05 2.71142e-06 -9.8348e-10 1.76045e-10 -4.2123e-11 -9.8348e-11 1.76045e-11 -4.2123e-12 
6 4 8.83695e-07 4.95807e-05 5.24603e-05 3.12151e-06 -5.63668e-10 -1.06938e-10 8.1905e-10 -2.38326e-08 -4.52148e-09 3.46305e-08 
7 2 1.34667e-06 4.94322e-05 4.88238e-05 3.43222e-06 2.84912e-10 3.06829e-10 9.0812e-10 1.26822e-07 1.36578e-07 4.04229e-07 
17 4 1.08992e-06 4.89782e-05 4.99111e-05 3.0875e-06 5.30358e-10 -1.57429e-10 -8.33028e-10 5.30358e-11 -1.57429e-11 -8.33028e-11 
27 4 9.05669e-07 5.07649e-05 5.1119e-05 3.59201e-06 -8.41252e-10 5.25006e-10 -1.29085e-10 -8.41252e-11 5.25006e-11 -1.29085e-11 
9 1 1.30577e-06 5.16759e-05 5.20654e-05 3.50046e-06 2.98642e-10 5.55298e-10 -7.76181e-10 2.98642e-11 5.55298e-11 -7.76181e-11 
11 4 9.33345e-07 5.0866e-05 5.00949e-05 3.93106e-06 -1.03449e-10 5.27577e-10 -8.43185e-10 -9.48484e-08 4.83717e-07 -7.73087e-07 
13 1 1.17018e-06 4.98182e-05 5.15654e-05 3.69977e-06 8.99988e-10 -4.23178e-10 -1.04605e-10 8.99988e-11 -4.23178e-11 -1.04605e-11 
37 1 1.30255e-06 5.00855e-05 5.05242e-05 4.69935e-06 4.33742e-10 6.66139e-11 8.98572e-10 5.59745e-07 8.59656e-08 1.15961e-06 
39 2 1.09598e-06 4.93426e-05 4.8268e-05 1.17649e-06 3.91051e-10 -6.84651e-10 6.15087e-10 1.01059e-07 -1.76934e-07 1.58956e-07 
40 1 1.20742e-06 4.91339e-05 5.19991e-05 2.22637e-06 9.56879e-15 -6.57349e-10 7.53586e-10 3.95597e-12 -2.71764e-07 3.1155e-07 
41 1 1.19482e-06 5.14383e-05 4.96777e-05 7.05932e-07 -9.33272e-11 -9.83922e-10 -1.52272e-10 -1.25143e-07 -1.31935e-06 -2.04183e-07 
42 1 1.14655e-06 5.20388e-05 5.27563e-05 2.54568e-06 3.82559e-10 -9.07958e-10 1.71055e-10 3.82559e-11 -9.07958e-11 1.71055e-11 
43 1 1.21685e-06 5.21041e-05 5.00863e-05 3.07152e-06 -9.54372e-10 2.49756e-10 -1.63693e-10 -9.54372e-11 2.49756e-11 -1.63693e-11 
44 4 1.01257e-06 5.16022e-05 5.16979e-05 1.88802e-06 4.91509e-10 8.70681e-10 -1.82491e-11 2.2678e-07 4.01728e-07 -8.42005e-09 
45 4 9.41195e-07 5.19076e-05 5.17209e-05 8.79209e-07 -6.74675e-10 -7.34609e-10 -7.18619e-11 -6.74675e-11 -7.34609e-11 -7.18619e-12 
46 4 8.72177e-07 5.10461e-05 5.29157e-05 2.42295e-06 9.26846e-10 3.57183e-10 1.15658e-10 1.32573e-06 5.10902e-07 1.65433e-07 
47 4 8.79735e-07 5.10929e-05 5.0351e-05 2.89808e-06 9.54359e-10 -2.49773e-10 1.63744e-10 9.54359e-11 -2.49773e-11 1.63744e-11 
48 4 1.0645e-06 5.17531e-05 5.09198e-05 3.80297e-06 6.2561e-11 -9.64046e-10 2.58265e-10 6.2561e-12 -9.64046e-11 2.58265e-11 
49 4 8.62308e-07 4.96189e-05 5.04525e-05 3.73251e-06 -4.33742e-10 -6.66139e-11 -8.98572e-10 -5.59745e-07 -8.59656e-08 -1.15961e-06 
50 4 1.0541e-06 5.09683e-05 4.95731e-05 4.76508e-06 1.03449e-10 -5.27577e-10 8.43185e-10 9.48484e-08 -4.83717e-07 7.73087e-07 
51 4 8.73359e-07 5.26409e-05 5.1964e-05 2.35656e-06 -5.96019e-10 7.80147e-10 1.90086e-10 -5.96019e-11 7.80147e-11 1.90086e-11 
52 4 9.83707e-07 5.1085e-05 5.14283e-05 2.74901e-06 2.87024e-11 6.40891e-10 7.67095e-10 4.79322e-08 1.07027e-06 1.28103e-06 
ITEM: TIMESTEP
5000
ITEM: NUMBER OF ATOMS
69
ITEM: BOX BOUNDS ff ff ff
0 0.0001
0 0.0001
0 0.0001
ITEM: ATOMS id type diameter x y z vx vy vz fx fy fz 
14 4 9.44409e-07 4.9358e-05 5.09224e-05 5.24595e-07 -8.51532e-10 5.23435e-10 3.01428e-11 -8.51532e-11 5.23435e-11 3.01428e-12 
31 4 9.43929e-07 5.02982e-05 5.13079e-05 4.72687e-07 -5.62041e-10 7.91986e-10 -2.3847e-10 -2.11933e-06 2.98639e-06 -8.99216e-07 
15 4 9.24127e-07 4.97275e-05 5.20665e-05 4.64214e-07 6.01124e-10 -7.9913e-10 6.41289e-12 6.01124e-11 -7.9913e-11 6.41289e-13 
34 4 1.03195e-06 4.87227e-05 4.88528e-05 5.21494e-07 -8.54968e-10 -5.16649e-10 -4.58571e-11 -3.32047e-07 -2.00652e-07 -1.78097e-08 
38 1 1.09885e-06 4.9632e-05 4.94022e-05 5.7026e-07 9.92868e-10 1.11326e-10 -4.26519e-11 5.59205e-07 6.27012e-08 -2.40225e-08 
12 1 1.19058e-06 5.12167e-05 5.09103e-05 8.04626e-07 8.82831e-10 -3.83604e-10 2.7103e-10 2.22929e-06 -9.68664e-07 6.84395e-07 
35 4 8.31361e-07 4.85815e-05 5.13859e-05 5.43419e-07 -3.81378e-10 -1.53802e-10 -9.11535e-10 -8.63933e-07 -3.48407e-07 -2.06489e-06 
36 1 1.20305e-06 5.04237e-05 5.29092e-05 7.7997e-07 8.97208e-10 1.64618e-10 -4.09779e-10 8.80859e-07 1.61618e-07 -4.02311e-07 
8 4 9.61192e-07 4.85743e-05 5.22791e-05 4.77265e-07 4.30045e-10 3.88e-10 8.15179e-10 3.47221e-07 3.13274e-07 6.58182e-07 
32 4 8.9307e-07 4.87921e-05 4.9912e-05 7.24918e-07 -1.54243e-10 -3.11669e-10 -9.37588e-10 -3.86106e-07 -7.80177e-07 -2.34699e-06 
22 1 1.42839e-06 5.03824e-05 4.99183e-05 1.69633e-06 -8.59675e-10 4.26273e-10 2.81515e-10 -2.49455e-06 1.23693e-06 8.16882e-07 
19 1 1.31352e-06 5.20153e-05 5.27896e-05 1.33459e-06 -2.0884e-10 -6.91074e-10 6.91956e-10 -2.0884e-11 -6.91074e-11 6.91956e-11 
16 2 1.24564e-06 4.89643e-05 4.80408e-05 2.16873e-06 -2.82999e-10 -2.31788e-11 9.5884e-10 -9.71627e-08 -7.95801e-09 3.29201e-07 
5 5 1.4839e-06 5.15647e-05 4.85107e-05 1.89676e-06 -9.55549e-10 1.89181e-10 -2.26135e-10 -9.55549e-11 1.89181e-11 -2.26135e-11 
10 4 9.37342e-07 5.03999e-05 4.87512e-05 1.62166e-06 1.49766e-11 -9.97848e-10 -6.38404e-11 3.989e-08 -2.65775e-06 -1.70038e-07 
4 4 1.0199e-06 4.78407e-05 4.97904e-05 1.65377e-06 -8.92488e-10 -4.45812e-10 -6.86797e-11 -2.90811e-06 -1.45265e-06 -2.23788e-07 
29 1 1.16876e-06 4.896e-05 5.14903e-05 1.45086e-06 3.98526e-10 4.11429e-10 8.19697e-10 9.25567e-07 9.55533e-07 1.90372e-06 
23 3 1.2832e-06 5.11392e-05 5.0981e-05 2.03646e-06 -5.55137e-10 -5.06532e-10 -6.59734e-10 -1.79805e-06 -1.64062e-06 -2.13683e-06 
25 4 1.01061e-06 5.04544e-05 5.16353e-05 1.38229e-06 -1.19788e-10 -3.91143e-10 9.12501e-10 -1.19788e-11 -3.91143e-11 9.12501e-11 
1 1 1.3464e-06 4.92844e-05 5.27001e-05 1.30031e-06 -4.10463e-10 -8.79225e-10 -2.41835e-10 -1.18751e-06 -2.54369e-06 -6.99656e-07 
2 2 1.34395e-06 5.02623e-05 4.77449e-05 2.15863e-06 1.94043e-10 9.6229e-10 -1.90645e-10 1.94043e-11 9.6229e-11 -1.90645e-11 
20 1 1.26548e-06 4.97381e-05 5.07323e-05 2.55686e-06 -4.09806e-10 -8.80437e-10 -2.38514e-10 -2.00663e-06 -4.3111e-06 -1.1679e-06 
3 3 1.31775e-06 5.24302e-05 4.98492e-05 1.83187e-06 -1.44294e-10 1.07313e-10 9.83699e-10 -1.44294e-11 1.07313e-11 9.83699e-11 
30 1 1.23737e-06 5.01831e-05 5.25781e-05 2.32165e-06 9.03758e-10 4.25714e-10 4.46072e-11 1.80481e-06 8.50155e-07 8.9081e-08 
26 4 1.03018e-06 4.96373e-05 5.35289e-05 2.05511e-06 8.0508e-11 8.87394e-10 4.53928e-10 2.51271e-07 2.76962e-06 1.41674e-06 
21 2 1.27433e-06 5.06446e-05 4.87651e-05 2.90732e-06 3.52637e-10 -8.78192e-10 -3.23151e-10 1.5383e-07 -3.83092e-07 -1.40968e-07 
24 1 1.21933e-06 5.02055e-05 4.98581e-05 3.30943e-06 -8.20871e-10 5.58876e-10 -1.17593e-10 -4.91014e-07 3.34298e-07 -7.03397e-08 
18 4 8.98105e-07 5.204e-05 5.10677e-05 2.62678e-06 8.33705e-10 8.02724e-11 5.46344e-10 1.69563e-06 1.63262e-07 1.11118e-06 
33 4 9.94689e-07 4.88545e-05 5.11972e-05 3.08142e-06 -5.59218e-10 8.0811e-10 1.85026e-10 -3.18197e-07 4.59817e-07 1.0528e-07 
28 4 8.82529e-07 4.99968e-05 5.17008e-05 2.90717e-06 2.11526e-10 7.85509e-10 -5.81577e-10 6.56587e-07 2.43825e-06 -1.80524e-06 
6 4 8.80801e-07 4.95626e-05 5.2511e-05 3.17186e-06 -5.88362e-10 -6.36829e-11 8.06086e-10 -5.1158e-07 -5.53722e-08 7.00891e-07 
7 2 1.06676e-06 4.97131e-05 4.818e-05 3.60046e-06 4.13254e-10 -9.10091e-10 -3.09205e-11 4.38746e-09 -9.6623e-09 -3.28278e-10 
17 4 1.08635e-06 4.87615e-05 5.02224e-05 3.42914e-06 -8.93189e-11 -9.38113e-10 3.34613e-10 -2.65144e-08 -2.7848e-07 9.93304e-08 
27 4 9.02704e-07 5.08907e-05 5.13189e-05 3.90653e-06 5.36082e-10 7.39831e-10 -4.0653e-10 7.47387e-07 1.03145e-06 -5.66771e-07 
9 1 1.08343e-06 5.12766e-05 5.24562e-05 3.86395e-06 -2.06978e-10 -4.69175e-10 8.58507e-10 -2.06978e-11 -4.69175e-11 8.58507e-11 
11 4 9.30289e-07 5.11079e-05 4.99886e-05 3.87478e-06 8.17338e-10 -4.71302e-10 -3.31411e-10 2.23993e-06 -1.29161e-06 -9.08238e-07 
13 1 1.31774e-06 4.97856e-05 5.17722e-05 3.97128e-06 -8.65146e-11 4.43913e-10 8.91884e-10 -2.89495e-07 1.48542e-06 2.98442e-06 
37 1 1.10451e-06 4.99474e-05 5.04951e-05 5.43435e-06 3.25288e-10 3.8114e-11 -9.44847e-10 3.25288e-11 3.8114e-12 -9.44847e-11 
39 2 1.15737e-06 4.93039e-05 4.80687e-05 1.01833e-06 2.83199e-10 2.32785e-11 -9.58779e-10 9.72199e-08 7.99132e-09 -3.29141e-07 