ITEM: TIMESTEP
0
ITEM: NUMBER OF ATOMS
5
ITEM: BOX BOUNDS ff ff ff
0 0.0001
0 0.0001
0 0.0001
ITEM: ATOMS id type diameter x y z vx vy vz fx fy fz 
2 2 1.2839e-06 5e-05 4.9e-05 2e-06 0 0 0 -7.678e-05 0 0 
5 5 1.4839e-06 5.1e-05 4.9e-05 2e-06 0 0 0 7.678e-05 -5.122e-05 0 
4 4 1.0539e-06 4.9e-05 5e-05 2e-06 0 0 0 0 0 0 
3 3 1.0283e-06 5.1e-05 5e-05 2e-06 0 0 0 0 5.122e-05 0 
1 1 1.0839e-06 5e-05 5.1e-05 2e-06 0 0 0 0 0 0 
ITEM: TIMESTEP
500
ITEM: NUMBER OF ATOMS
6
ITEM: BOX BOUNDS ff ff ff
0 0.0001
0 0.0001
0 0.0001
ITEM: ATOMS id type diameter x y z vx vy vz fx fy fz 
2 2 1.35581e-06 4.97803e-05 4.90095e-05 2e-06 9.97161e-10 -7.53055e-11 0 9.97161e-11 -7.53055e-12 0 
5 5 1.4839e-06 5.12095e-05 4.89015e-05 2e-06 1.71233e-10 -9.85231e-10 0 1.24921e-07 -7.18762e-07 0 
4 4 1.05045e-06 4.9e-05 5e-05 2e-06 0 0 0 0 0 0 
3 3 1.07736e-06 5.09908e-05 5.01596e-05 2e-06 -1.71233e-10 9.85231e-10 0 -1.24921e-07 7.18762e-07 0 
1 1 1.22057e-06 5e-05 5.1e-05 2e-06 0 0 0 0 0 0 
6 4 9.07185e-07 4.99096e-05 5.19556e-05 2.55415e-06 0 0 0 0 0 0 
ITEM: TIMESTEP
1000
ITEM: NUMBER OF ATOMS
8
ITEM: BOX BOUNDS ff ff ff
0 0.0001
0 0.0001
0 0.0001
ITEM: ATOMS id type diameter x y z vx vy vz fx fy fz 
2 2 1.16911e-06 4.98263e-05 4.85078e-05 1.70802e-06 -8.43494e-12 8.4182e-10 5.39692e-10 -8.43494e-13 8.4182e-11 5.39692e-11 
5 5 1.4839e-06 5.12211e-05 4.88908e-05 2e-06 1.78622e-10 -9.83918e-10 0 6.00006e-07 -3.30505e-06 0 
4 4 1.04701e-06 4.89608e-05 5.00276e-05 1.98583e-06 7.92845e-10 -5.25805e-10 3.08099e-10 7.92845e-11 -5.25805e-11 3.08099e-11 
3 3 1.12876e-06 5.09908e-05 5.01596e-05 2e-06 -1.78622e-10 9.83918e-10 0 -6.00006e-07 3.30505e-06 0 
1 1 1.37448e-06 5.00008e-05 5.09914e-05 1.995e-06 8.16025e-11 -8.62192e-10 -4.99966e-10 1.79142e-07 -1.89277e-06 -1.09758e-06 
6 4 9.04215e-07 4.99087e-05 5.19643e-05 2.55915e-06 -8.16025e-11 8.62192e-10 4.99966e-10 -1.79142e-07 1.89277e-06 1.09758e-06 
7 2 1.10166e-06 4.98194e-05 4.94669e-05 2.32514e-06 -2.62924e-10 -6.9651e-10 -6.67642e-10 -2.62924e-11 -6.9651e-11 -6.67642e-11 
8 4 9.86742e-07 4.94848e-05 5.18285e-05 1.2796e-06 0 0 0 0 0 0 
ITEM: TIMESTEP
1500
ITEM: NUMBER OF ATOMS
9
ITEM: BOX BOUNDS ff ff ff
0 0.0001
0 0.0001
0 0.0001
ITEM: ATOMS id type diameter x y z vx vy vz fx fy fz 
8 4 9.83512e-07 4.93792e-05 5.20049e-05 1.13741e-06 -5.42138e-10 7.69201e-10 -3.38253e-10 -5.42138e-11 7.69201e-11 -3.38253e-11 
2 2 1.23459e-06 4.98263e-05 4.85078e-05 1.70802e-06 3.23039e-12 -8.03233e-10 -5.95656e-10 9.62431e-10 -2.39308e-07 -1.77464e-07 
4 4 1.04358e-06 4.89609e-05 5.00273e-05 1.98517e-06 7.83761e-10 -4.95306e-10 3.74688e-10 7.83761e-11 -4.95306e-11 3.74688e-11 
9 1 1.23546e-06 4.99829e-05 5.11503e-05 1.50649e-06 1.87464e-10 -4.49147e-10 8.7357e-10 1.87464e-11 -4.49147e-11 8.7357e-11 
5 5 1.4839e-06 5.12295e-05 4.88315e-05 2.00143e-06 -7.49954e-11 9.95065e-10 -6.49709e-11 -7.49954e-12 9.95065e-11 -6.49709e-12 
7 2 1.16337e-06 4.98225e-05 4.94696e-05 2.42131e-06 -3.23039e-12 8.03233e-10 5.95656e-10 -9.62431e-10 2.39308e-07 1.77464e-07 
3 3 1.18261e-06 5.11283e-05 5.01746e-05 1.91374e-06 7.54593e-10 -3.50763e-10 -5.54577e-10 7.54593e-11 -3.50763e-11 -5.54577e-11 
1 1 1.22143e-06 5.02164e-05 5.05908e-05 2.59454e-06 -1.87464e-10 4.49147e-10 -8.7357e-10 -1.87464e-11 4.49147e-11 -8.7357e-11 
6 4 9.01254e-07 4.99087e-05 5.19643e-05 2.55915e-06 -8.16025e-11 8.62192e-10 4.99966e-10 -8.16025e-12 8.62192e-11 4.99966e-11 
ITEM: TIMESTEP
2000
ITEM: NUMBER OF ATOMS
11
ITEM: BOX BOUNDS ff ff ff
0 0.0001
0 0.0001
0 0.0001
ITEM: ATOMS id type diameter x y z vx vy vz fx fy fz 
8 4 9.80292e-07 4.93792e-05 5.20049e-05 1.13741e-06 -5.92572e-10 7.79498e-10 -2.0308e-10 -1.2048e-07 1.58485e-07 -4.12896e-08 
2 2 1.30375e-06 4.98263e-05 4.85078e-05 1.70802e-06 6.30078e-11 -7.3042e-10 -6.80086e-10 6.30078e-12 -7.3042e-11 -6.80086e-11 
4 4 1.04017e-06 4.8961e-05 5.00273e-05 1.98494e-06 7.73644e-10 -4.93621e-10 3.97258e-10 7.73644e-11 -4.93621e-11 3.97258e-11 
9 1 1.39125e-06 5.00812e-05 5.10814e-05 1.37801e-06 6.0844e-11 1.36186e-10 -9.88813e-10 4.72997e-08 1.0587e-07 -7.68696e-07 
5 5 1.4839e-06 5.12293e-05 4.88315e-05 2.00161e-06 -5.37712e-11 9.95103e-10 -8.29408e-11 -5.37712e-12 9.95103e-11 -8.29408e-12 
7 2 1.22853e-06 4.97426e-05 4.94286e-05 2.57315e-06 3.51079e-10 9.31927e-10 9.08554e-11 3.51079e-11 9.31927e-11 9.08554e-12 
3 3 1.23903e-06 5.11554e-05 5.02005e-05 1.88741e-06 7.1692e-10 -3.45279e-10 -6.05648e-10 7.1692e-11 -3.45279e-11 -6.05648e-11 
1 1 1.37545e-06 5.01992e-05 5.06552e-05 2.68425e-06 8.55546e-11 -3.09085e-10 9.47178e-10 7.31591e-08 -2.64304e-07 8.09947e-07 
6 4 8.98304e-07 4.99087e-05 5.19643e-05 2.55915e-06 -8.16025e-11 8.62192e-10 4.99966e-10 -8.16025e-12 8.62192e-11 4.99966e-11 
10 4 9.55967e-07 5.01164e-05 4.99148e-05 1.5644e-06 -2.97415e-11 9.87039e-10 -1.57703e-10 -2.97415e-12 9.87039e-11 -1.57703e-11 
11 4 9.48775e-07 5.06887e-05 5.02099e-05 3.65718e-06 -4.16368e-10 3.77683e-10 -8.27039e-10 -4.16368e-11 3.77683e-11 -8.27039e-11 
ITEM: TIMESTEP
2500
ITEM: NUMBER OF ATOMS
15
ITEM: BOX BOUNDS ff ff ff
0 0.0001
0 0.0001
0 0.0001
ITEM: ATOMS id type diameter x y z vx vy vz fx fy fz 
12 1 1.19193e-06 5.02046e-05 5.06042e-05 1.07985e-06 -8.26826e-11 -8.61073e-10 5.01714e-10 -8.26826e-12 -8.61073e-11 5.01714e-11 
9 1 1.29106e-06 5.03617e-05 5.18085e-05 1.57897e-06 3.48749e-10 -5.75974e-11 9.35445e-10 3.33006e-07 -5.49973e-08 8.93216e-07 
8 4 9.77082e-07 4.91999e-05 5.20748e-05 1.08867e-06 9.37251e-10 -2.6053e-10 2.31699e-10 9.37251e-11 -2.6053e-11 2.31699e-11 
2 2 1.37677e-06 4.9828e-05 4.84939e-05 1.69373e-06 -8.31468e-11 6.94131e-10 7.15031e-10 -8.31468e-12 6.94131e-11 7.15031e-11 
10 4 9.52838e-07 5.01144e-05 4.96645e-05 1.62738e-06 8.26829e-11 8.61073e-10 -5.01713e-10 8.26829e-12 8.61073e-11 -5.01713e-11 
4 4 1.03676e-06 4.89623e-05 5.00275e-05 1.98322e-06 -6.33852e-10 -7.51241e-10 -1.84033e-10 -8.48199e-07 -1.00528e-06 -2.46267e-07 
3 3 1.29814e-06 5.11621e-05 5.0207e-05 1.88048e-06 -4.85643e-11 9.94967e-10 -8.76527e-11 -8.29192e-08 1.69882e-06 -1.49659e-07 
5 5 1.4839e-06 5.12293e-05 4.88315e-05 2.00166e-06 4.85643e-11 -9.94967e-10 8.76527e-11 8.29192e-08 -1.69882e-06 1.49659e-07 
1 1 1.27248e-06 4.96899e-05 5.08899e-05 2.19448e-06 5.49199e-10 8.34723e-10 -4.02306e-11 6.70421e-07 1.01897e-06 -4.91106e-08 
7 2 1.29735e-06 4.97157e-05 4.94312e-05 2.65929e-06 8.31468e-11 -6.94131e-10 -7.15031e-10 8.31468e-12 -6.94131e-11 -7.15031e-11 
6 4 8.95363e-07 4.99087e-05 5.19643e-05 2.55915e-06 -4.15174e-10 1.42799e-10 8.98465e-10 -1.87959e-07 6.46486e-08 4.06756e-07 
13 1 1.18297e-06 5.03217e-05 5.08413e-05 3.24406e-06 5.15274e-10 -3.96432e-11 8.56108e-10 1.77824e-07 -1.36811e-08 2.95448e-07 
11 4 9.45669e-07 5.08088e-05 5.00917e-05 3.85457e-06 -4.50042e-10 6.92389e-10 -5.63967e-10 -4.50042e-11 6.92389e-11 -5.63967e-11 
14 4 9.60022e-07 4.93897e-05 5.09942e-05 4.85658e-07 -4.31497e-10 1.85557e-10 -8.82825e-10 -4.31497e-11 1.85557e-11 -8.82825e-11 
15 4 9.39405e-07 5.02387e-05 5.18003e-05 4.7715e-07 -1.1091e-10 -7.37231e-12 -9.93803e-10 -1.45069e-07 -9.64292e-09 -1.29989e-06 
ITEM: TIMESTEP
3000
ITEM: NUMBER OF ATOMS
20
ITEM: BOX BOUNDS ff ff ff
0 0.0001
0 0.0001
0 0.0001
ITEM: ATOMS id type diameter x y z vx vy vz fx fy fz 
12 1 1.34223e-06 5.03479e-05 5.04402e-05 7.80563e-07 8.37044e-10 -4.82812e-10 2.57391e-10 2.56973e-08 -1.48224e-08 7.90193e-09 
9 1 1.20227e-06 5.07715e-05 5.19596e-05 2.34863e-06 4.56487e-10 -8.58285e-10 2.34447e-10 4.56487e-11 -8.58285e-11 2.34447e-11 
8 4 9.73884e-07 4.91762e-05 5.21044e-05 1.0385e-06 5.67707e-10 -4.0983e-10 7.13967e-10 5.67707e-11 -4.0983e-11 7.13967e-11 
2 2 1.0807e-06 5.01869e-05 4.81542e-05 1.95065e-06 6.85927e-10 -4.85261e-10 5.42242e-10 1.45791e-06 -1.0314e-06 1.15251e-06 
10 4 9.49718e-07 5.01168e-05 4.9658e-05 1.62317e-06 1.00639e-10 8.63449e-10 -4.94295e-10 1.00639e-11 8.63449e-11 -4.94295e-11 
4 4 1.03337e-06 4.86846e-05 5.00431e-05 1.70268e-06 8.40514e-10 4.74498e-10 2.61509e-10 8.40514e-11 4.74498e-11 2.61509e-11 
3 3 1.36007e-06 5.11873e-05 5.02188e-05 1.81864e-06 -5.69303e-10 -4.68149e-10 -6.75819e-10 -5.69303e-11 -4.68149e-11 -6.75819e-11 
5 5 1.4839e-06 5.12885e-05 4.88099e-05 2.007e-06 -7.51837e-11 9.87681e-10 -1.37233e-10 -7.51837e-12 9.87681e-11 -1.37233e-11 
1 1 1.06014e-06 4.97595e-05 5.16793e-05 1.76239e-06 1.03965e-10 9.7354e-10 -2.035e-10 1.19832e-08 1.12213e-07 -2.34559e-08 
7 2 1.37001e-06 4.99808e-05 4.90073e-05 2.81489e-06 6.36635e-10 -7.70049e-10 -4.14728e-11 6.36635e-11 -7.70049e-11 -4.14728e-12 
6 4 8.92431e-07 4.97843e-05 5.20266e-05 2.69232e-06 -2.58805e-11 -3.4876e-10 -9.36855e-10 -2.58805e-12 -3.4876e-11 -9.36855e-11 
13 1 1.33213e-06 5.03171e-05 5.08959e-05 3.25167e-06 4.39364e-10 -7.18934e-10 5.38602e-10 4.39364e-11 -7.18934e-11 5.38602e-11 
11 4 9.42573e-07 5.08175e-05 5.00771e-05 3.86509e-06 -4.39364e-10 7.18934e-10 -5.38602e-10 -4.39364e-11 7.18934e-11 -5.38602e-11 
14 4 9.56879e-07 4.93857e-05 5.0996e-05 4.86825e-07 -8.37196e-10 4.83513e-10 -2.55573e-10 -2.5719e-08 1.48537e-08 -7.85131e-09 
15 4 9.36329e-07 5.02144e-05 5.17826e-05 4.66065e-07 5.80858e-10 3.65565e-10 7.273e-10 3.35371e-07 2.11067e-07 4.19922e-07 
16 2 1.21893e-06 4.94055e-05 4.8707e-05 1.33294e-06 -6.85927e-10 4.85261e-10 -5.42242e-10 -1.45791e-06 1.0314e-06 -1.15251e-06 
17 4 1.1007e-06 4.91859e-05 4.99587e-05 2.87395e-06 3.90143e-10 5.29432e-10 -7.5332e-10 3.90143e-11 5.29432e-11 -7.5332e-11 
18 4 9.09964e-07 5.1259e-05 5.1043e-05 2.599e-06 -4.56487e-10 8.58285e-10 -2.34447e-10 -4.56487e-11 8.58285e-11 -2.34447e-11 
19 1 1.10115e-06 5.08232e-05 5.21658e-05 1.21381e-06 -5.86792e-10 -3.69299e-10 -7.2062e-10 -5.86792e-11 -3.69299e-11 -7.2062e-11 
20 1 1.20524e-06 4.96418e-05 5.05773e-05 1.9937e-06 -1.04318e-10 -9.73219e-10 2.04845e-10 -1.20289e-08 -1.12221e-07 2.36206e-08 
ITEM: TIMESTEP
3500
ITEM: NUMBER OF ATOMS
28
ITEM: BOX BOUNDS ff ff ff
0 0.0001
0 0.0001
0 0.0001
ITEM: ATOMS id type diameter x y z vx vy vz fx fy fz 
14 4 9.53746e-07 4.93584e-05 5.10554e-05 4.82023e-07 -3.78252e-10 8.81803e-10 -2.81689e-10 -4.06947e-08 9.487e-08 -3.03059e-08 
15 4 9.33264e-07 5.02191e-05 5.17996e-05 4.63278e-07 5.10604e-11 -2.30869e-10 9.71644e-10 3.52541e-08 -1.59401e-07 6.70861e-07 
12 1 1.12295e-06 5.0946e-05 5.05949e-05 5.54687e-07 -1.79075e-11 -1.64133e-11 9.99705e-10 -2.43114e-08 -2.22829e-08 1.35721e-06 
16 2 1.2872e-06 4.9392e-05 4.87168e-05 1.32203e-06 -6.68841e-10 5.017e-10 -5.48588e-10 -2.30881e-06 1.73185e-06 -1.8937e-06 
8 4 9.70695e-07 4.90636e-05 5.21333e-05 9.02273e-07 -4.01367e-10 -1.96039e-11 -9.15707e-10 -2.14258e-07 -1.0465e-08 -4.88823e-07 
19 1 1.24e-06 5.10655e-05 5.23364e-05 1.08706e-06 6.49389e-10 6.83455e-10 -3.33441e-10 8.49995e-07 8.94585e-07 -4.36445e-07 
2 2 1.14123e-06 5.01925e-05 4.81163e-05 1.97867e-06 6.68841e-10 -5.017e-10 5.48588e-10 2.30881e-06 -1.73185e-06 1.8937e-06 
10 4 9.46609e-07 5.02229e-05 4.95648e-05 1.68176e-06 -1.40191e-10 4.65628e-10 -8.73806e-10 -1.40191e-11 4.65628e-11 -8.73806e-11 
4 4 1.02998e-06 4.85549e-05 4.99603e-05 1.65867e-06 8.12613e-10 5.18256e-10 2.66592e-10 8.12613e-11 5.18256e-11 2.66592e-11 
3 3 1.14581e-06 5.17598e-05 4.99171e-05 2.04459e-06 7.62683e-10 -5.58871e-10 3.25541e-10 7.77016e-07 -5.69374e-07 3.31659e-07 
20 1 1.35721e-06 4.95364e-05 5.05884e-05 1.97332e-06 -6.06383e-10 -4.33944e-10 6.66327e-10 -4.53425e-07 -3.24483e-07 4.98248e-07 
1 1 1.19382e-06 5.02795e-05 5.15092e-05 1.49064e-06 5.21346e-10 -8.34828e-10 -1.76808e-10 1.92152e-06 -3.07692e-06 -6.51659e-07 
5 5 1.4839e-06 5.13964e-05 4.8641e-05 1.94253e-06 7.98503e-10 -3.49259e-10 -4.90318e-10 1.26795e-07 -5.54593e-08 -7.78582e-08 
9 1 1.35387e-06 5.0924e-05 5.20993e-05 2.4642e-06 -4.22758e-10 8.97425e-10 -1.26113e-10 -6.40584e-07 1.35982e-06 -1.91093e-07 
21 2 1.08212e-06 5.03728e-05 4.90896e-05 2.57122e-06 -7.98321e-10 3.49538e-10 4.90414e-10 -1.26848e-07 5.55394e-08 7.79237e-08 
17 4 1.09709e-06 4.90982e-05 4.9977e-05 2.9592e-06 3.51175e-10 4.9196e-10 -7.9665e-10 3.51175e-11 4.9196e-11 -7.9665e-11 
18 4 9.06985e-07 5.13987e-05 5.10916e-05 2.60581e-06 4.22758e-10 -8.97425e-10 1.26113e-10 6.40584e-07 -1.35982e-06 1.91093e-07 
6 4 8.8951e-07 4.96688e-05 5.23028e-05 2.86849e-06 2.5764e-10 -8.6656e-10 -4.27429e-10 2.5764e-11 -8.6656e-11 -4.27429e-11 
7 2 1.2076e-06 4.94419e-05 4.8906e-05 3.24246e-06 8.00957e-10 1.57948e-10 -5.77512e-10 8.00957e-11 1.57948e-11 -5.77512e-11 
13 1 1.23191e-06 5.00168e-05 5.10502e-05 3.98645e-06 -4.69034e-10 -1.47064e-10 8.7085e-10 -4.69034e-11 -1.47064e-11 8.7085e-11 
11 4 9.39487e-07 5.08263e-05 5.00627e-05 3.87586e-06 -4.39364e-10 7.18934e-10 -5.38602e-10 -4.39364e-11 7.18934e-11 -5.38602e-11 
22 1 1.26765e-06 4.97783e-05 5.00764e-05 7.94743e-07 2.21464e-10 -4.77416e-10 -8.5031e-10 2.21256e-07 -4.76967e-07 -8.49511e-07 
23 3 1.11577e-06 5.09013e-05 5.05463e-05 1.67813e-06 -2.55265e-10 5.36412e-10 -8.04426e-10 -4.05715e-07 8.52569e-07 -1.27855e-06 
24 1 1.14628e-06 5.05054e-05 5.02443e-05 2.68778e-06 -3.51659e-10 -2.68254e-10 8.9687e-10 -3.71288e-07 -2.83227e-07 9.4693e-07 
25 4 1.0206e-06 4.94621e-05 5.21528e-05 1.81155e-06 -6.87529e-10 5.89559e-10 4.23939e-10 -2.55725e-06 2.19285e-06 1.57683e-06 
26 4 1.04037e-06 5.00361e-05 5.298e-05 2.09138e-06 -5.49012e-10 -7.91728e-10 -2.67866e-10 -5.49012e-11 -7.91728e-11 -2.67866e-11 
27 4 9.11629e-07 5.05284e-05 5.12049e-05 3.05579e-06 -6.92732e-10 3.53997e-10 -6.28337e-10 -6.92732e-11 3.53997e-11 -6.28337e-11 
28 4 8.91254e-07 4.98966e-05 5.15216e-05 2.47716e-06 3.21665e-10 8.33133e-10 4.49913e-10 2.72817e-07 7.06613e-07 3.81589e-07 
ITEM: TIMESTEP
4000
ITEM: NUMBER OF ATOMS
35
ITEM: BOX BOUNDS ff ff ff
0 0.0001
0 0.0001
0 0.0001
ITEM: ATOMS id type diameter x y z vx vy vz fx fy fz 
14 4 9.50623e-07 4.95786e-05 5.10169e-05 4.72912e-07 9.0545e-10 -4.22217e-10 4.35139e-11 9.23985e-07 -4.30859e-07 4.44047e-08 
15 4 9.30208e-07 5.01519e-05 5.2084e-05 4.66233e-07 9.03679e-10 2.418e-10 3.53408e-10 9.03679e-11 2.418e-11 3.53408e-11 
12 1 1.26454e-06 5.13817e-05 5.03073e-05 6.3817e-07 3.22058e-10 -2.0446e-10 -9.24378e-10 1.17378e-06 -7.45181e-07 -3.36901e-06 
16 2 1.3593e-06 4.93228e-05 4.85272e-05 1.60164e-06 -1.16043e-10 8.81852e-10 -4.57024e-10 -1.16043e-11 8.81852e-11 -4.57024e-11 
8 4 9.67517e-07 4.90671e-05 5.22023e-05 8.98271e-07 -3.09344e-10 -1.47912e-11 -9.50835e-10 -3.09344e-11 -1.47912e-12 -9.50835e-11 
19 1 1.39635e-06 5.1214e-05 5.23712e-05 8.76037e-07 -8.22483e-10 -5.17642e-10 2.3573e-10 -8.22483e-11 -5.17642e-11 2.3573e-11 
2 2 1.20516e-06 5.03006e-05 4.79027e-05 2.15048e-06 -8.368e-10 -5.19118e-10 1.74019e-10 -3.79069e-07 -2.35159e-07 7.88305e-08 
10 4 9.4351e-07 5.04958e-05 4.94292e-05 1.65515e-06 3.60707e-10 -4.54575e-10 8.14403e-10 1.08296e-06 -1.36478e-06 2.4451e-06 
4 4 1.02661e-06 4.83896e-05 5.0032e-05 1.69983e-06 8.25932e-10 -4.30198e-10 -3.64371e-10 8.25932e-11 -4.30198e-11 -3.64371e-11 
3 3 1.20047e-06 5.19435e-05 4.98267e-05 2.12393e-06 -7.89795e-10 1.77905e-10 5.87004e-10 -7.89795e-11 1.77905e-11 5.87004e-11 
20 1 1.19872e-06 4.96875e-05 4.98546e-05 2.24152e-06 6.4301e-10 -1.00332e-10 -7.59258e-10 7.27117e-07 -1.13456e-07 -8.5857e-07 
1 1 1.34436e-06 5.0316e-05 5.1578e-05 1.54931e-06 2.92259e-10 9.13047e-10 -2.84483e-10 8.51586e-07 2.66044e-06 -8.28928e-07 
5 5 1.4839e-06 5.14238e-05 4.85995e-05 1.9169e-06 8.28518e-10 -2.15121e-10 -5.16992e-10 2.95647e-06 -7.67633e-07 -1.84482e-06 
9 1 1.15956e-06 5.1416e-05 5.19367e-05 3.04792e-06 4.19009e-10 -5.3381e-10 7.34492e-10 5.82094e-08 -7.41576e-08 1.02037e-07 
21 2 1.14273e-06 5.04052e-05 4.89958e-05 2.61488e-06 -8.82584e-10 6.35955e-11 4.65833e-10 -2.99027e-06 2.15467e-07 1.57828e-06 
17 4 1.0935e-06 4.89542e-05 4.99689e-05 3.10747e-06 -6.42965e-10 1.00275e-10 7.59303e-10 -7.27116e-07 1.13399e-07 8.58681e-07 
18 4 9.04015e-07 5.14371e-05 5.1005e-05 2.57299e-06 -9.69471e-10 -5.75863e-11 2.3835e-10 -9.69471e-11 -5.75863e-12 2.3835e-11 
6 4 8.86597e-07 4.96282e-05 5.24398e-05 2.94034e-06 1.50409e-10 -8.70601e-10 -4.68435e-10 1.50409e-11 -8.70601e-11 -4.68435e-11 
7 2 1.27524e-06 4.93999e-05 4.88806e-05 3.27767e-06 8.30196e-10 9.74796e-11 -5.48882e-10 8.30196e-11 9.74796e-12 -5.48882e-11 
13 1 1.38725e-06 5.00064e-05 5.10472e-05 4.00329e-06 -6.46491e-10 -8.76428e-11 7.57871e-10 -2.15991e-06 -2.92813e-07 2.53203e-06 
11 4 9.36411e-07 5.08436e-05 5.00563e-05 3.95369e-06 -1.02624e-10 9.1503e-12 9.94678e-10 -3.99091e-07 3.55842e-08 3.86816e-06 
22 1 1.4275e-06 5.00736e-05 4.99613e-05 7.01901e-07 5.73413e-11 6.45626e-10 -7.61498e-10 1.66819e-07 1.87828e-06 -2.21538e-06 
23 3 1.169e-06 5.09957e-05 5.05523e-05 1.74608e-06 -2.09572e-12 -2.54245e-10 9.67137e-10 -7.66552e-09 -9.29955e-07 3.53751e-06 
24 1 1.29082e-06 5.09559e-05 5.00463e-05 2.86534e-06 2.19776e-10 1.84346e-10 -9.57975e-10 8.05953e-07 6.76026e-07 -3.51305e-06 
25 4 1.01726e-06 4.93687e-05 5.22224e-05 1.85273e-06 8.02808e-10 -5.3695e-10 -2.592e-10 8.02808e-11 -5.3695e-11 -2.592e-11 
26 4 1.03696e-06 4.98865e-05 5.30948e-05 2.09989e-06 -8.92244e-10 4.48394e-10 -5.33183e-11 -5.25699e-08 2.64188e-08 -3.14145e-09 
27 4 9.08644e-07 5.07378e-05 5.11463e-05 3.14595e-06 6.5996e-10 9.4845e-11 -7.4529e-10 2.19847e-06 3.15949e-07 -2.48272e-06 
28 4 8.88336e-07 4.97643e-05 5.16521e-05 2.51654e-06 -4.73786e-10 8.68485e-10 1.45812e-10 -4.47164e-07 8.19686e-07 1.37618e-07 
29 1 1.22705e-06 4.91812e-05 5.10527e-05 1.79601e-06 -8.90327e-10 -4.12138e-10 1.93545e-10 -1.97553e-06 -9.14486e-07 4.29454e-07 
30 1 1.25667e-06 5.09094e-05 5.25807e-05 2.16103e-06 -5.309e-11 4.33171e-10 -8.99747e-10 -5.83789e-09 4.76325e-08 -9.89382e-08 
31 4 9.5014e-07 5.05177e-05 5.11827e-05 4.80584e-07 -9.83645e-10 -1.79952e-10 -7.67231e-12 -9.83645e-11 -1.79952e-11 -7.67231e-13 
32 4 8.98947e-07 4.91901e-05 4.96221e-05 1.34452e-06 -7.72308e-10 -2.96537e-10 5.61788e-10 -2.98767e-06 -1.14715e-06 2.17327e-06 
33 4 1.00123e-06 5.01863e-05 5.08154e-05 2.44056e-06 4.0251e-10 -9.05656e-10 -1.33314e-10 3.72399e-07 -8.37906e-07 -1.23341e-07 
34 4 1.03874e-06 4.92436e-05 4.90641e-05 5.16818e-07 6.4903e-11 -4.39613e-10 8.95839e-10 3.69792e-08 -2.50475e-07 5.10414e-07 
35 4 8.36831e-07 4.88354e-05 5.13178e-05 8.57164e-07 -8.35862e-10 3.38444e-10 4.32193e-10 -7.77736e-07 3.14908e-07 4.02138e-07 
ITEM: TIMESTEP
4500
ITEM: NUMBER OF ATOMS
52
ITEM: BOX BOUNDS ff ff ff
0 0.0001
0 0.0001
0 0.0001
ITEM: ATOMS id type diameter x y z vx vy vz fx fy fz 
14 4 9.47511e-07 4.95379e-05 5.1002e-05 4.79552e-07 -1.96878e-10 -5.51244e-10 -8.10783e-10 -5.05953e-07 -1.41664e-06 -2.08362e-06 
31 4 9.47029e-07 5.05561e-05 5.12029e-05 4.8007e-07 2.06389e-13 -1.39895e-13 -1e-09 2.06389e-14 -1.39895e-14 -1e-10 
15 4 9.27163e-07 4.99407e-05 5.2109e-05 4.44153e-07 -5.30489e-10 2.15541e-10 -8.19832e-10 -9.81454e-07 3.9877e-07 -1.51677e-06 
34 4 1.03534e-06 4.8977e-05 4.90001e-05 5.15858e-07 3.97796e-10 -6.4562e-10 6.51869e-10 2.21066e-07 -3.58788e-07 3.62261e-07 
38 1 1.28321e-06 5.01146e-05 4.92345e-05 6.46551e-07 1.00133e-11 -8.87063e-10 -4.61539e-10 3.69719e-08 -3.2753e-06 -1.70414e-06 
12 1 1.05726e-06 5.15964e-05 5.07224e-05 8.95572e-07 4.03517e-10 1.86175e-10 -8.95831e-10 5.87396e-07 2.71014e-07 -1.30405e-06 
22 1 1.26845e-06 5.0102e-05 5.03498e-05 1.22687e-06 7.81247e-11 7.69266e-10 6.34135e-10 1.98207e-07 1.95167e-06 1.60884e-06 
35 4 8.34091e-07 4.87994e-05 5.13375e-05 8.43368e-07 -8.30715e-10 3.77383e-10 4.09261e-10 -3.06142e-07 1.39076e-07 1.50824e-07 
8 4 9.64349e-07 4.90671e-05 5.22023e-05 8.98271e-07 -3.09344e-10 -1.47912e-11 -9.50835e-10 -3.09344e-11 -1.47912e-12 -9.50835e-11 
36 1 1.32017e-06 5.1007e-05 5.23174e-05 6.53686e-07 8.9031e-10 9.73223e-11 4.44833e-10 3.85982e-06 4.21927e-07 1.92851e-06 
32 4 8.96004e-07 4.89574e-05 4.97486e-05 1.12979e-06 4.85707e-10 -1.38934e-10 8.6301e-10 4.85707e-11 -1.38934e-11 8.6301e-11 
19 1 1.16644e-06 5.19478e-05 5.27254e-05 1.36286e-06 -7.53082e-10 -3.28993e-10 -5.69764e-10 -7.53082e-11 -3.28993e-11 -5.69764e-11 
16 2 1.17957e-06 4.90952e-05 4.83983e-05 2.3446e-06 -2.46512e-10 -3.93758e-10 -8.85543e-10 -9.63437e-08 -1.53891e-07 -3.46095e-07 
5 5 1.4839e-06 5.14527e-05 4.85559e-05 1.88326e-06 -6.86936e-10 1.73256e-10 7.05763e-10 -6.86936e-11 1.73256e-11 7.05763e-11 
10 4 9.40421e-07 5.05881e-05 4.9398e-05 1.64002e-06 4.56368e-10 2.11546e-11 8.8954e-10 4.56368e-11 2.11546e-12 8.8954e-11 
4 4 1.02325e-06 4.82673e-05 5.00268e-05 1.74049e-06 -5.61839e-10 -8.02353e-10 -2.0141e-10 -1.41145e-06 -2.01567e-06 -5.05984e-07 
23 3 1.22477e-06 5.11389e-05 5.05113e-05 1.91121e-06 -8.94613e-10 -8.19325e-11 -4.39266e-10 -2.16253e-06 -1.98054e-07 -1.06183e-06 
29 1 1.38178e-06 4.89359e-05 5.09815e-05 1.98016e-06 5.61847e-10 8.02348e-10 2.01411e-10 1.41147e-06 2.01566e-06 5.05984e-07 
1 1 1.19564e-06 4.98882e-05 5.15532e-05 1.31351e-06 4.26238e-11 -6.43336e-11 9.97018e-10 2.89922e-07 -4.3759e-07 6.7816e-06 
25 4 1.01393e-06 4.92935e-05 5.2277e-05 1.90156e-06 5.40359e-10 -6.57644e-10 -5.24896e-10 5.40359e-11 -6.57644e-11 -5.24896e-11 
2 2 1.27266e-06 5.02695e-05 4.77884e-05 2.08914e-06 1.70599e-10 8.06698e-10 5.65804e-10 1.70599e-11 8.06698e-11 5.65804e-11 
20 1 1.34987e-06 4.95093e-05 4.95889e-05 2.11424e-06 -1.96629e-10 -3.03198e-10 -9.3242e-10 -8.20675e-08 -1.26547e-07 -3.89166e-07 
3 3 1.25774e-06 5.21141e-05 4.97618e-05 1.9737e-06 7.91864e-10 -6.08587e-10 5.07401e-11 1.54472e-06 -1.1872e-06 9.89809e-08 
33 4 9.97957e-07 5.00395e-05 5.08298e-05 2.66865e-06 2.45012e-10 -9.47916e-10 2.03532e-10 2.45012e-11 -9.47916e-11 2.03532e-11 
30 1 1.09881e-06 5.02647e-05 5.2748e-05 2.44973e-06 -4.64014e-10 -7.21008e-10 5.14626e-10 -8.51252e-07 -1.32272e-06 9.44102e-07 
26 4 1.03357e-06 4.95109e-05 5.33234e-05 1.97694e-06 -7.11377e-10 5.43006e-10 -4.46191e-10 -9.32872e-07 7.12077e-07 -5.85117e-07 
21 2 1.20674e-06 5.05149e-05 4.87924e-05 2.84677e-06 8.71762e-10 -8.05642e-11 -4.8326e-10 8.29285e-07 -7.66386e-08 -4.59713e-07 
24 1 1.0828e-06 5.01892e-05 4.98701e-05 3.08093e-06 7.02188e-10 -5.77835e-10 -4.15979e-10 9.4142e-07 -7.74701e-07 -5.57701e-07 
18 4 9.01055e-07 5.2032e-05 5.09208e-05 2.54655e-06 9.29413e-10 -7.5605e-11 -3.61214e-10 9.29413e-11 -7.5605e-12 -3.61214e-11 
28 4 8.85428e-07 4.96056e-05 5.16705e-05 2.59892e-06 -5.84272e-10 -6.02203e-10 -5.44038e-10 -5.84272e-11 -6.02203e-11 -5.44038e-11 
6 4 8.83695e-07 4.95251e-05 5.2442e-05 3.03726e-06 7.46504e-10 3.02659e-10 -5.92561e-10 7.46504e-11 3.02659e-11 -5.92561e-11 
7 2 1.34667e-06 4.94061e-05 4.88949e-05 3.46142e-06 -6.58341e-10 2.07026e-10 7.2369e-10 -7.32964e-07 2.30493e-07 8.0572e-07 
17 4 1.08992e-06 4.89417e-05 4.99715e-05 3.12287e-06 -4.65634e-10 3.1389e-10 8.27441e-10 -8.52123e-08 5.74427e-08 1.51424e-07 
27 4 9.05669e-07 5.06579e-05 5.1102e-05 3.70508e-06 5.221e-10 -1.17454e-10 -8.44758e-10 5.221e-11 -1.17454e-11 -8.44758e-11 
9 1 1.30577e-06 5.15752e-05 5.20839e-05 3.36972e-06 8.33389e-11 -9.48378e-10 3.05997e-10 8.33389e-12 -9.48378e-11 3.05997e-11 
11 4 9.33345e-07 5.09448e-05 5.01401e-05 3.97746e-06 -1.64416e-11 6.33258e-10 -7.73766e-10 -2.38033e-08 9.16797e-07 -1.12022e-06 
13 1 1.17018e-06 4.9756e-05 5.16123e-05 3.61522e-06 1.50644e-10 -5.02474e-11 9.8731e-10 1.50644e-11 -5.02474e-12 9.8731e-11 
37 1 1.30255e-06 5.00872e-05 5.05397e-05 4.62898e-06 -3.97917e-10 -7.81074e-11 -9.14091e-10 -3.97917e-11 -7.81074e-12 -9.14091e-11 
39 2 1.09598e-06 4.93945e-05 4.83226e-05 1.24488e-06 -3.86799e-10 6.27771e-10 -6.75492e-10 -3.86799e-11 6.27771e-11 -6.75492e-11 
40 1 1.20742e-06 5.06521e-05 5.16832e-05 2.23464e-06 -7.26646e-10 5.54824e-10 -4.05161e-10 -3.22323e-06 2.46107e-06 -1.79719e-06 
41 1 1.19482e-06 5.14694e-05 4.95958e-05 7.12295e-07 -2.03663e-10 2.3023e-10 9.51586e-10 -2.03663e-11 2.3023e-11 9.51586e-11 
42 1 1.14655e-06 5.21132e-05 5.28222e-05 2.54675e-06 6.20064e-10 -7.43506e-10 -2.50438e-10 6.20064e-11 -7.43506e-11 -2.50438e-11 
43 1 1.21685e-06 5.21987e-05 5.00764e-05 3.17802e-06 9.86373e-10 9.6696e-12 1.64242e-10 9.86373e-11 9.6696e-13 1.64242e-11 
44 4 1.01257e-06 5.16554e-05 5.17451e-05 1.78196e-06 9.10075e-10 5.6093e-11 -4.10631e-10 1.37968e-06 8.50372e-08 -6.22518e-07 
45 4 9.41195e-07 5.19257e-05 5.16678e-05 8.36092e-07 -8.03255e-10 5.74486e-10 -1.57312e-10 -8.03255e-11 5.74486e-11 -1.57312e-11 
46 4 8.72177e-07 5.11717e-05 5.30584e-05 2.26722e-06 9.29422e-10 3.18115e-10 -1.87024e-10 1.7841e-06 6.10648e-07 -3.59007e-07 
47 4 8.79735e-07 5.11579e-05 5.00562e-05 3.00583e-06 -8.545e-12 9.93605e-10 -1.12584e-10 -8.545e-13 9.93605e-11 -1.12584e-11 
48 4 1.0645e-06 5.16976e-05 5.09524e-05 3.77212e-06 -5.27303e-10 3.66321e-11 -8.48887e-10 -5.27303e-11 3.66321e-12 -8.48887e-11 
49 4 8.62308e-07 4.96531e-05 5.04545e-05 3.63178e-06 -5.55156e-10 6.05223e-10 5.70533e-10 -7.7408e-07 8.43891e-07 7.95521e-07 
50 4 1.0541e-06 5.09611e-05 4.95154e-05 4.74077e-06 1.64416e-11 -6.33258e-10 7.73766e-10 2.38033e-08 -9.16797e-07 1.12022e-06 
51 4 8.73359e-07 5.2746e-05 5.20634e-05 2.29116e-06 -6.20064e-10 7.43506e-10 2.50438e-10 -6.20064e-11 7.43506e-11 2.50438e-11 
52 4 9.83707e-07 5.1152e-05 5.09928e-05 2.8908e-06 3.57202e-10 -2.72924e-10 8.93263e-10 1.87405e-06 -1.43189e-06 4.68648e-06 
ITEM: TIMESTEP
5000
ITEM: NUMBER OF ATOMS
69
ITEM: BOX BOUNDS ff ff ff
0 0.0001
0 0.0001
0 0.0001
ITEM: ATOMS id type diameter x y z vx vy vz fx fy fz 
14 4 9.44409e-07 4.94887e-05 5.1101e-05 4.71091e-07 -5.634e-10 6.12281e-10 5.547e-10 -2.26317e-07 2.45953e-07 2.22822e-07 
31 4 9.43929e-07 5.05869e-05 5.12708e-05 4.79555e-07 -6.3199e-10 7.74802e-10 -1.64844e-11 -6.3199e-11 7.74802e-11 -1.64844e-12 
15 4 9.24127e-07 4.99965e-05 5.19978e-05 4.55813e-07 3.82018e-10 -3.44639e-10 8.57488e-10 2.48576e-07 -2.24254e-07 5.57962e-07 
34 4 1.03195e-06 4.86881e-05 4.88388e-05 5.19277e-07 8.72512e-10 4.49568e-10 1.91343e-10 8.72512e-11 4.49568e-11 1.91343e-11 
38 1 1.09885e-06 4.96273e-05 4.93152e-05 7.22013e-07 -9.96616e-10 3.99879e-11 7.18215e-11 -1.34928e-06 5.4138e-08 9.72363e-08 
12 1 1.19058e-06 5.15196e-05 5.11807e-05 1.18138e-06 3.49744e-10 4.3534e-10 -8.29553e-10 1.6734e-06 2.08294e-06 -3.9691e-06 
22 1 1.42839e-06 5.05e-05 5.05365e-05 1.65619e-06 -8.71328e-10 2.5377e-10 4.19986e-10 -6.43359e-06 1.87375e-06 3.10104e-06 
35 4 8.31361e-07 4.86474e-05 5.11145e-05 8.90037e-07 1.99024e-10 9.79788e-10 -2.01057e-11 1.99024e-11 9.79788e-11 -2.01057e-12 
8 4 9.61192e-07 4.88218e-05 5.20031e-05 8.64325e-07 5.40495e-10 -3.70585e-10 7.55336e-10 5.40495e-11 -3.70585e-11 7.55336e-11 
36 1 1.20305e-06 5.05233e-05 5.28302e-05 8.59254e-07 -7.86162e-10 5.64752e-10 2.51007e-10 -1.89585e-06 1.36191e-06 6.05311e-07 
32 4 8.9307e-07 4.88992e-05 4.9844e-05 1.17027e-06 7.20976e-10 -5.28059e-10 -4.48718e-10 7.20976e-11 -5.28059e-11 -4.48718e-11 
19 1 1.31352e-06 5.21845e-05 5.2842e-05 1.27309e-06 6.06447e-10 5.47461e-10 5.76635e-10 1.07463e-06 9.70108e-07 1.02181e-06 
16 2 1.24564e-06 4.89217e-05 4.78074e-05 2.252e-06 3.47746e-10 3.81854e-10 -8.56307e-10 3.47746e-11 3.81854e-11 -8.56307e-11 
5 5 1.4839e-06 5.14962e-05 4.84424e-05 1.86402e-06 -1.77468e-10 9.81853e-10 -6.68545e-11 -1.77468e-11 9.81853e-11 -6.68545e-12 
10 4 9.37342e-07 5.04525e-05 4.91106e-05 1.76935e-06 -8.78761e-10 -2.50238e-10 4.06398e-10 -8.78761e-11 -2.50238e-11 4.06398e-11 
4 4 1.0199e-06 4.80457e-05 4.98942e-05 1.62047e-06 2.67064e-10 6.45028e-10 7.15972e-10 2.67064e-11 6.45028e-11 7.15972e-11 
23 3 1.2832e-06 5.16655e-05 5.06898e-05 2.28587e-06 6.04484e-10 -1.47433e-10 7.82855e-10 4.34065e-06 -1.05868e-06 5.6215e-06 
29 1 1.16876e-06 4.846e-05 5.16994e-05 1.82928e-06 8.12613e-11 8.57325e-10 -5.08321e-10 1.88015e-07 1.9836e-06 -1.17611e-06 
1 1 1.3464e-06 4.97462e-05 5.18809e-05 1.55328e-06 -4.65995e-10 9.32294e-11 -8.79862e-10 -2.47008e-06 4.94178e-07 -4.66385e-06 
25 4 1.01061e-06 4.89045e-05 5.26974e-05 1.7046e-06 1.82376e-10 -9.83124e-10 -1.43676e-11 1.82376e-11 -9.83124e-11 -1.43676e-12 
2 2 1.34395e-06 5.02626e-05 4.77916e-05 2.09634e-06 -4.14037e-10 -5.32834e-10 -7.38012e-10 -4.14037e-11 -5.32834e-11 -7.38012e-11 
20 1 1.26548e-06 4.93686e-05 4.99149e-05 2.71704e-06 8.89164e-13 -9.36343e-10 3.51086e-10 2.59575e-09 -2.73348e-06 1.02493e-06 
3 3 1.31775e-06 5.24076e-05 4.96585e-05 1.97203e-06 -8.72192e-10 4.84835e-10 6.49253e-11 -8.72192e-11 4.84835e-11 6.49253e-12 
33 4 9.94689e-07 5.02706e-05 5.10764e-05 3.10617e-06 9.97409e-10 -5.49605e-11 4.64224e-11 9.97409e-11 -5.49605e-12 4.64224e-12 
30 1 1.23737e-06 5.02763e-05 5.29969e-05 2.70653e-06 4.03734e-10 -8.80344e-10 -2.48986e-10 4.03734e-11 -8.80344e-11 -2.48986e-11 
26 4 1.03018e-06 4.95306e-05 5.34598e-05 1.98553e-06 -6.57356e-10 4.13534e-10 -6.29979e-10 -6.57356e-11 4.13534e-11 -6.29979e-11 
21 2 1.27433e-06 5.08114e-05 4.84841e-05 3.0637e-06 -4.05077e-10 8.44252e-10 3.5093e-10 -4.05077e-11 8.44252e-11 3.5093e-11 
24 1 1.21933e-06 5.03006e-05 4.95486e-05 3.50619e-06 6.99547e-12 -8.03158e-10 -5.95725e-10 9.24945e-09 -1.06194e-06 -7.87672e-07 
18 4 8.98105e-07 5.25443e-05 5.11238e-05 2.77983e-06 -8.00475e-10 -4.00184e-10 -4.46197e-10 -8.00475e-11 -4.00184e-11 -4.46197e-11 
28 4 8.82529e-07 4.91592e-05 5.15919e-05 2.95795e-06 -3.9591e-10 6.32942e-10 6.65312e-10 -6.69816e-07 1.07084e-06 1.1256e-06 
6 4 8.80801e-07 4.9493e-05 5.2647e-05 3.35311e-06 -2.19538e-10 8.35017e-10 -5.04529e-10 -4.81203e-07 1.83026e-06 -1.10587e-06 
7 2 1.06676e-06 4.97384e-05 4.80928e-05 3.6836e-06 4.80428e-10 -8.73655e-10 7.69105e-11 1.5494e-06 -2.81758e-06 2.4804e-07 
17 4 1.08635e-06 4.87709e-05 5.0112e-05 3.71111e-06 4.91751e-10 -7.65191e-10 -4.15529e-10 4.91751e-11 -7.65191e-11 -4.15529e-11 
27 4 9.02704e-07 5.08012e-05 5.14384e-05 4.0225e-06 -4.71437e-10 -8.60958e-10 1.91046e-10 -4.71437e-11 -8.60958e-11 1.91046e-11 
9 1 1.08343e-06 5.10279e-05 5.24531e-05 3.69037e-06 -4.48598e-10 -5.15194e-10 7.30298e-10 -4.48598e-11 -5.15194e-11 7.30298e-11 
11 4 9.30289e-07 5.12083e-05 5.00317e-05 3.92699e-06 -8.43983e-10 4.59079e-10 2.7738e-10 -8.43983e-11 4.59079e-11 2.7738e-11 
13 1 1.31774e-06 4.9732e-05 5.17383e-05 3.9022e-06 2.19538e-10 -8.35017e-10 5.04529e-10 4.81203e-07 -1.83026e-06 1.10587e-06 
37 1 1.10451e-06 4.99144e-05 5.05007e-05 5.31009e-06 -3.2966e-10 -1.88169e-11 9.43912e-10 -1.01524e-06 -5.79497e-08 2.90692e-06 
39 2 1.15737e-06 4.93459e-05 4.82709e-05 1.2074e-06 -9.1625e-10 -1.88703e-10 3.5338e-10 -2.93937e-06 -6.05366e-07 1.13366e-06 