ITEM: TIMESTEP
0
ITEM: NUMBER OF ATOMS
5
ITEM: BOX BOUNDS ff ff ff
0 0.0001
0 0.0001
0 0.0001
ITEM: ATOMS id type diameter x y z vx vy vz fx fy fz 
2 2 1.2839e-06 5e-05 4.9e-05 2e-06 0 0 0 -7.678e-05 0 -2.44344e-16 
5 5 1.4839e-06 5.1e-05 4.9e-05 2e-06 0 0 0 7.678e-05 -5.122e-05 -3.77243e-16 
4 4 1.0539e-06 4.9e-05 5e-05 2e-06 0 0 0 0 0 -1.35147e-16 
3 3 1.0283e-06 5.1e-05 5e-05 2e-06 0 0 0 0 5.122e-05 -1.25536e-16 
1 1 1.0839e-06 5e-05 5.1e-05 2e-06 0 0 0 0 0 -1.47019e-16 
ITEM: TIMESTEP
500
ITEM: NUMBER OF ATOMS
6
ITEM: BOX BOUNDS ff ff ff
0 0.0001
0 0.0001
0 0.0001
ITEM: ATOMS id type diameter x y z vx vy vz fx fy fz 
2 2 1.35581e-06 4.97801e-05 4.90093e-05 6.79429e-07 0 0 -1e-09 0 0 -2.87745e-16 
5 5 1.4839e-06 5.11998e-05 4.89183e-05 7.40567e-07 0 0 1e-09 0 0 2.76517e-07 
4 4 1.05045e-06 4.9e-05 5e-05 5.2e-07 0 0 1e-09 0 0 1.04496e-06 
3 3 1.07736e-06 5.09896e-05 5.01696e-05 5.3e-07 0 0 1e-09 0 0 1.73581e-06 
1 1 1.22057e-06 5.0003e-05 5.09679e-05 6.1084e-07 4.39614e-144 -4.64485e-143 -1e-09 0 0 -2.09942e-16 
6 4 9.07185e-07 4.99029e-05 5.20254e-05 4.5604e-07 -1.47667e-141 1.56021e-140 -1e-09 0 0 -1.72395e-17 
ITEM: TIMESTEP
1000
ITEM: NUMBER OF ATOMS
8
ITEM: BOX BOUNDS ff ff ff
0 0.0001
0 0.0001
0 0.0001
ITEM: ATOMS id type diameter x y z vx vy vz fx fy fz 
2 2 1.16911e-06 4.98188e-05 4.84189e-05 5.87027e-07 -5.70494e-224 -1.56096e-222 -1e-09 0 0 -1.8449e-16 
5 5 1.4839e-06 5.12147e-05 4.88911e-05 7.44021e-07 0 0 -1e-09 0 0 -3.77243e-16 
4 4 1.04701e-06 4.89086e-05 5.00584e-05 5.26971e-07 0 0 -1e-09 0 0 -1.32514e-16 
3 3 1.12876e-06 5.10658e-05 5.0179e-05 5.73954e-07 0 0 -1e-09 0 0 -1.66038e-16 
1 1 1.37448e-06 5.00372e-05 5.08838e-05 6.95812e-07 3.21481e-99 -3.41849e-99 -1e-09 0 0 -2.99795e-16 
6 4 9.04215e-07 5.01101e-05 5.21478e-05 4.45568e-07 0 0 1e-09 0 0 1.30791e-06 
7 2 1.10166e-06 4.98605e-05 4.95608e-05 5.55728e-07 2.55409e-220 6.98839e-219 -1e-09 0 0 -1.54366e-16 
8 4 9.86742e-07 4.92319e-05 5.17401e-05 4.86848e-07 2.34989e-110 -2.49877e-110 1e-09 3.06561e-107 -3.25984e-107 1.30458e-06 
ITEM: TIMESTEP
1500
ITEM: NUMBER OF ATOMS
9
ITEM: BOX BOUNDS ff ff ff
0 0.0001
0 0.0001
0 0.0001
ITEM: ATOMS id type diameter x y z vx vy vz fx fy fz 
8 4 9.83512e-07 4.89593e-05 5.19421e-05 4.8215e-07 4.49375e-31 -3.04202e-31 1e-09 8.63376e-28 -5.84457e-28 1.92128e-06 
6 4 9.01254e-07 5.01668e-05 5.23364e-05 4.42381e-07 3.96162e-11 1.36152e-10 9.89896e-10 6.44864e-08 2.21625e-07 1.61133e-06 
2 2 1.23459e-06 4.9817e-05 4.83234e-05 6.09373e-07 1.34109e-12 -5.33795e-11 9.98573e-10 2.13118e-09 -8.48274e-08 1.58687e-06 
5 5 1.4839e-06 5.12178e-05 4.88454e-05 7.35373e-07 0 0 1e-09 0 0 1.31544e-06 
7 2 1.16337e-06 4.97869e-05 4.95212e-05 5.80749e-07 3.54917e-10 8.12752e-10 4.62027e-10 1.42131e-07 3.25478e-07 1.85025e-07 
4 4 1.04358e-06 4.88449e-05 5.00944e-05 5.13672e-07 0 0 1e-09 0 0 1.62384e-06 
3 3 1.18261e-06 5.1277e-05 5.01746e-05 5.89713e-07 -8.16745e-10 1.58857e-10 5.547e-10 -4.68384e-07 9.11005e-08 3.18108e-07 
9 1 1.23546e-06 4.98726e-05 5.13252e-05 6.15444e-07 1.55606e-10 -7.94189e-10 5.87411e-10 1.30588e-07 -6.66504e-07 4.9297e-07 
1 1 1.22143e-06 5.02932e-05 5.03658e-05 1.25698e-06 3.4238e-10 -7.81049e-10 5.22244e-10 1.4466e-09 -3.30004e-09 2.20655e-09 
ITEM: TIMESTEP
2000
ITEM: NUMBER OF ATOMS
11
ITEM: BOX BOUNDS ff ff ff
0 0.0001
0 0.0001
0 0.0001
ITEM: ATOMS id type diameter x y z vx vy vz fx fy fz 
8 4 9.80292e-07 4.87754e-05 5.20495e-05 4.93318e-07 1.69135e-40 -8.85556e-41 -1e-09 0 0 -2.17522e-17 
6 4 8.98304e-07 5.02367e-05 5.25408e-05 4.50247e-07 2.93278e-21 7.10503e-21 -1e-09 0 0 -1.67381e-17 
2 2 1.30375e-06 4.98417e-05 4.79957e-05 6.43203e-07 2.70171e-12 -1.72536e-11 9.99847e-10 4.68727e-09 -2.99338e-08 1.73466e-06 
5 5 1.4839e-06 5.12175e-05 4.88298e-05 7.46897e-07 9.54218e-12 -7.19326e-10 -6.94607e-10 2.30587e-08 -1.73825e-06 -1.67852e-06 
7 2 1.22853e-06 4.96459e-05 4.92463e-05 6.20107e-07 -1.54677e-10 9.87797e-10 -1.82431e-11 -4.68727e-09 2.99338e-08 -5.5283e-10 
4 4 1.04017e-06 4.88279e-05 5.01047e-05 5.1256e-07 0 0 1e-09 0 0 1.50455e-06 
3 3 1.23903e-06 5.13091e-05 5.01885e-05 6.254e-07 3.15079e-10 2.60113e-10 -9.12725e-10 9.68289e-07 7.99368e-07 -2.80495e-06 
9 1 1.39125e-06 4.98134e-05 5.15024e-05 6.99999e-07 -4.23449e-10 7.0249e-10 -5.72013e-10 -9.3482e-08 1.55084e-07 -1.26279e-07 
1 1 1.37545e-06 5.03987e-05 5.05314e-05 1.49066e-06 -2.76819e-10 1.62723e-10 9.47044e-10 -3.85827e-07 2.26801e-07 1.31998e-06 
10 4 9.55967e-07 4.98558e-05 5.03205e-05 4.84106e-07 -4.66834e-10 -1.81291e-10 -8.65563e-10 -2.63191e-07 -1.02208e-07 -4.87986e-07 
11 4 9.48775e-07 5.1206e-05 4.9696e-05 1.58338e-06 -6.47551e-11 1.71538e-10 9.83047e-10 -2.48847e-07 6.59204e-07 3.77775e-06 
ITEM: TIMESTEP
2500
ITEM: NUMBER OF ATOMS
15
ITEM: BOX BOUNDS ff ff ff
0 0.0001
0 0.0001
0 0.0001
ITEM: ATOMS id type diameter x y z vx vy vz fx fy fz 
10 4 9.52838e-07 4.9821e-05 5.00559e-05 4.81359e-07 9.55346e-20 -2.29966e-20 -1e-09 0 0 -1.99753e-17 
8 4 9.77082e-07 4.83148e-05 5.22172e-05 4.90528e-07 1.45898e-203 -3.06623e-202 -1e-09 0 0 -2.15393e-17 
6 4 8.95363e-07 5.05073e-05 5.27149e-05 4.48401e-07 0 0 -1e-09 0 0 -1.65743e-17 
2 2 1.37677e-06 4.99042e-05 4.77439e-05 6.88388e-07 0 0 -1e-09 0 0 -3.01297e-16 
5 5 1.4839e-06 5.12136e-05 4.88014e-05 7.41207e-07 -9.7178e-11 8.26356e-10 5.547e-10 -2.60499e-08 2.21516e-07 1.48695e-07 
7 2 1.29735e-06 4.94534e-05 4.90028e-05 6.42285e-07 0 0 1e-09 0 0 1.27764e-06 
4 4 1.03676e-06 4.87893e-05 5.00598e-05 5.10364e-07 0 0 1e-09 0 0 1.60333e-06 
3 3 1.29814e-06 5.16152e-05 5.02419e-05 6.47453e-07 -5.23045e-10 -5.5726e-10 6.44891e-10 -2.62122e-07 -2.79269e-07 3.23185e-07 
12 1 1.19193e-06 4.94212e-05 5.10543e-05 6.00752e-07 -9.98805e-10 -4.19998e-11 -2.49882e-11 -1.47924e-07 -6.22022e-09 -3.70078e-09 
1 1 1.27248e-06 5.06512e-05 5.1106e-05 6.31524e-07 1.54376e-10 6.49153e-12 9.87991e-10 1.47924e-07 6.22022e-09 9.46698e-07 
9 1 1.29106e-06 4.98746e-05 5.21352e-05 1.49964e-06 4.59764e-20 -1.39068e-20 -1e-09 0 0 -2.48452e-16 
11 4 9.45669e-07 5.15502e-05 4.96184e-05 1.59025e-06 1.52483e-20 -5.74393e-21 -1e-09 0 0 -1.95279e-17 
13 1 1.18297e-06 5.0569e-05 4.98764e-05 1.22908e-06 -1.12231e-19 3.3886e-20 -1e-09 0 0 -1.91128e-16 
14 4 9.60022e-07 4.83591e-05 5.12399e-05 4.8051e-07 -3.01078e-20 5.26069e-21 -1e-09 0 0 -2.04306e-17 
15 4 9.39405e-07 4.94972e-05 5.22494e-05 4.51065e-07 2.34245e-10 -7.08537e-11 9.69592e-10 9.00519e-07 -2.72387e-07 3.72745e-06 
ITEM: TIMESTEP
3000
ITEM: NUMBER OF ATOMS
20
ITEM: BOX BOUNDS ff ff ff
0 0.0001
0 0.0001
0 0.0001
ITEM: ATOMS id type diameter x y z vx vy vz fx fy fz 
10 4 9.49718e-07 4.93634e-05 5.01019e-05 4.79916e-07 6.17128e-41 -1.20883e-39 -1e-09 0 0 -1.97798e-17 
8 4 9.73884e-07 4.83148e-05 5.22174e-05 4.90527e-07 0 0 -1e-09 0 0 -2.13284e-17 
6 4 8.92431e-07 5.0532e-05 5.27175e-05 4.50428e-07 -9.65025e-20 5.28362e-20 -1e-09 0 0 -1.6412e-17 
2 2 1.0807e-06 5.05251e-05 4.74486e-05 5.40154e-07 -6.87726e-67 1.27832e-67 1e-09 -2.69178e-65 5.00339e-66 3.91402e-08 
5 5 1.4839e-06 5.11811e-05 4.85333e-05 7.3675e-07 -1.09522e-170 9.47097e-170 1e-09 -1.13894e-167 9.84897e-167 1.03991e-06 
7 2 1.37001e-06 4.93277e-05 4.89515e-05 6.86496e-07 -2.9322e-62 -9.47547e-61 -1e-09 0 0 -2.9688e-16 
4 4 1.03337e-06 4.83685e-05 5.00284e-05 5.07954e-07 0 0 1e-09 0 0 1.74589e-06 
3 3 1.36007e-06 5.19725e-05 5.06654e-05 6.76876e-07 -8.56404e-30 -1.39966e-29 1e-09 -5.41101e-27 -8.84348e-27 6.31829e-07 
12 1 1.34223e-06 4.93131e-05 5.1231e-05 6.78253e-07 -6.79772e-10 -6.05407e-10 -4.13996e-10 -1.42526e-07 -1.26934e-07 -8.68014e-08 
1 1 1.18497e-06 5.11265e-05 5.10263e-05 1.56131e-06 3.82116e-10 -1.77847e-10 9.06839e-10 1.26661e-06 -5.89511e-07 3.00592e-06 
9 1 1.07562e-06 4.98354e-05 5.3104e-05 1.03021e-06 -6.78738e-40 1.66588e-39 -1e-09 0 0 -1.43676e-16 
11 4 9.42573e-07 5.22602e-05 4.93918e-05 4.72191e-07 1.5797e-21 -5.73464e-22 -1e-09 0 0 -1.93367e-17 
13 1 1.33213e-06 5.10476e-05 4.96986e-05 1.52284e-06 -1.65285e-11 -1.10353e-10 9.93755e-10 -2.34851e-08 -1.568e-07 1.41201e-06 
14 4 9.56879e-07 4.81736e-05 5.1243e-05 4.73014e-07 -8.11062e-30 4.01714e-32 1e-09 -8.80099e-27 4.35907e-29 1.08512e-06 
15 4 9.36329e-07 4.94639e-05 5.23525e-05 4.72178e-07 5.08111e-20 1.0116e-19 -1e-09 0 0 -1.8955e-17 
16 2 1.21893e-06 4.93953e-05 4.76586e-05 6.04611e-07 -1.15207e-69 2.14143e-70 1e-09 -1.11807e-66 2.07823e-67 9.70484e-07 
17 4 1.1007e-06 5.03934e-05 5.00308e-05 5.56041e-07 -5.39041e-10 2.73728e-10 -7.9656e-10 -2.90956e-07 1.47749e-07 -4.29956e-07 
18 4 9.09964e-07 5.13879e-05 4.97084e-05 4.60135e-07 3.04925e-10 8.77668e-12 -9.52336e-10 3.14441e-07 9.05059e-09 -9.82058e-07 
19 1 1.0853e-06 5.06991e-05 5.12252e-05 5.46951e-07 -1.43399e-10 -1.18079e-10 -9.82596e-10 -5.69472e-07 -4.68918e-07 -3.90212e-06 
20 1 1.22283e-06 5.01843e-05 5.20068e-05 1.20878e-06 -3.38847e-10 7.24215e-10 6.00579e-10 -5.5461e-07 1.18536e-06 9.83001e-07 
ITEM: TIMESTEP
3500
ITEM: NUMBER OF ATOMS
28
ITEM: BOX BOUNDS ff ff ff
0 0.0001
0 0.0001
0 0.0001
ITEM: ATOMS id type diameter x y z vx vy vz fx fy fz 
11 4 9.39487e-07 5.26601e-05 4.92364e-05 4.73749e-07 -8.24077e-80 4.31308e-80 -1e-09 0 0 -1.91474e-17 
18 4 9.06985e-07 5.18433e-05 4.96755e-05 4.4895e-07 -2.26802e-10 -1.91489e-10 9.54931e-10 -2.1575e-07 -1.82158e-07 9.08395e-07 
10 4 9.46609e-07 4.90787e-05 4.97128e-05 4.68301e-07 -2.55549e-11 -7.00286e-12 9.99649e-10 -2.55306e-08 -6.99622e-09 9.98701e-07 
14 4 9.53746e-07 4.78851e-05 5.11254e-05 4.80832e-07 3.33841e-200 2.06358e-200 -1e-09 0 0 -2.00325e-17 
8 4 9.70695e-07 4.80591e-05 5.24837e-05 4.88815e-07 -1.64766e-180 1.77702e-180 -1e-09 0 0 -2.11196e-17 
15 4 9.33264e-07 4.94753e-05 5.2497e-05 4.62176e-07 -4.85434e-269 2.29925e-269 1e-09 -4.32653e-266 2.04926e-266 8.91271e-07 
6 4 8.8951e-07 5.05557e-05 5.27249e-05 4.42396e-07 -3.37926e-10 -4.57341e-10 8.22584e-10 -1.93771e-07 -2.62245e-07 4.7168e-07 
2 2 1.14123e-06 5.04229e-05 4.71703e-05 5.70666e-07 -6.11049e-10 -7.80605e-10 -1.31435e-10 -3.76557e-07 -4.81044e-07 -8.0996e-08 
16 2 1.2872e-06 4.93136e-05 4.7684e-05 6.48389e-07 -5.7854e-21 2.52842e-21 -1e-09 0 0 -2.46234e-16 
5 5 1.4839e-06 5.1223e-05 4.81925e-05 7.42777e-07 6.11049e-10 7.80605e-10 1.31435e-10 3.76557e-07 4.81044e-07 8.0996e-08 
21 2 1.08212e-06 4.98534e-05 4.89068e-05 5.3517e-07 8.25128e-71 4.18707e-70 1e-09 9.71957e-68 4.93215e-67 1.17795e-06 
4 4 1.02998e-06 4.81505e-05 5.00854e-05 5.10647e-07 0 0 1e-09 0 0 8.68922e-07 
17 4 1.09709e-06 5.00614e-05 4.99821e-05 5.42729e-07 1.25106e-10 5.08589e-11 9.90839e-10 1.47151e-07 5.98207e-08 1.16543e-06 
3 3 1.05866e-06 5.30101e-05 5.10172e-05 5.20428e-07 -2.48996e-30 -6.99072e-31 1e-09 -4.43369e-27 -1.24478e-27 1.78063e-06 
12 1 1.21538e-06 4.94998e-05 5.08562e-05 1.08067e-06 4.89106e-10 -8.11228e-10 -3.20444e-10 6.05095e-07 -1.00361e-06 -3.96435e-07 
19 1 1.22215e-06 5.06247e-05 5.12472e-05 6.08746e-07 5.44632e-10 -4.29017e-10 7.20639e-10 3.5222e-07 -2.77451e-07 4.66046e-07 
7 2 1.2076e-06 4.86319e-05 4.87394e-05 6.07644e-07 -7.38209e-20 1.14237e-19 -1e-09 0 0 -2.03318e-16 
20 1 1.37703e-06 5.01655e-05 5.21968e-05 1.38745e-06 -4.61359e-20 -6.24393e-20 -1e-09 0 0 -3.01464e-16 
9 1 1.21125e-06 4.98077e-05 5.351e-05 6.09275e-07 0 0 -1e-09 0 0 -2.05168e-16 
13 1 1.23191e-06 5.03301e-05 5.0068e-05 1.68501e-06 3.10819e-20 9.91115e-21 -1e-09 0 0 -2.15847e-16 
1 1 1.33439e-06 5.14466e-05 5.13338e-05 1.5994e-06 8.18123e-20 1.31167e-20 -1e-09 0 0 -2.74316e-16 
22 3 1.19509e-06 5.19269e-05 5.07154e-05 5.96258e-07 -7.72009e-10 -3.10338e-10 5.547e-10 -3.57745e-07 -1.43809e-07 2.57045e-07 
23 1 1.18352e-06 4.87897e-05 5.16907e-05 5.9734e-07 -2.72969e-10 4.00838e-11 -9.61188e-10 -9.38441e-07 1.37805e-07 -3.30447e-06 
24 1 1.14628e-06 5.14512e-05 4.93477e-05 1.35552e-06 -3.38811e-20 1.60286e-20 -1e-09 0 0 -1.73893e-16 
25 4 1.13338e-06 4.9045e-05 5.17305e-05 1.70996e-06 8.7368e-11 2.26921e-10 9.69986e-10 3.33346e-07 8.65801e-07 3.70091e-06 
26 4 9.30775e-07 4.90253e-05 5.42632e-05 4.55693e-07 0 0 1e-09 0 0 1.93893e-06 
27 4 9.11629e-07 5.09296e-05 4.94579e-05 4.60186e-07 6.35494e-21 7.29148e-20 -1e-09 0 0 -1.74941e-17 
28 4 8.91254e-07 5.09996e-05 5.02757e-05 8.42723e-07 -2.87061e-20 -1.26866e-19 -1e-09 0 0 -1.63471e-17 
ITEM: TIMESTEP
4000
ITEM: NUMBER OF ATOMS
35
ITEM: BOX BOUNDS ff ff ff
0 0.0001
0 0.0001
0 0.0001
ITEM: ATOMS id type diameter x y z vx vy vz fx fy fz 
11 4 9.36411e-07 5.27773e-05 4.91727e-05 4.6252e-07 0 0 1e-09 0 0 1.13708e-06 
18 4 9.04015e-07 5.19576e-05 4.9603e-05 4.47691e-07 -5.81017e-50 -7.15683e-50 1e-09 -5.0161e-47 -6.17872e-47 8.63331e-07 
10 4 9.4351e-07 4.89973e-05 4.97291e-05 4.77436e-07 -1.6927e-10 -5.84595e-10 -7.93471e-10 -3.30932e-08 -1.14291e-07 -1.55127e-07 
14 4 9.50623e-07 4.7537e-05 5.13598e-05 4.79734e-07 0 0 -1e-09 0 0 -1.98364e-17 
8 4 9.67517e-07 4.75264e-05 5.29947e-05 4.83873e-07 -1.91614e-20 1.77117e-20 -1e-09 0 0 -2.09128e-17 
15 4 9.30208e-07 4.95105e-05 5.25079e-05 4.71136e-07 7.14854e-20 1.63087e-20 -1e-09 0 0 -1.85857e-17 
6 4 8.86597e-07 5.05696e-05 5.27212e-05 4.49609e-07 -6.34668e-20 -1.08221e-20 -1e-09 0 0 -1.60922e-17 
2 2 1.20516e-06 5.0334e-05 4.69034e-05 6.05866e-07 5.13227e-80 5.11428e-80 -1e-09 0 0 -2.02087e-16 
16 2 1.3593e-06 4.92002e-05 4.751e-05 6.71388e-07 1.88704e-151 -9.88898e-152 1e-09 3.11822e-148 -1.6341e-148 1.65244e-06 
5 5 1.4839e-06 5.12934e-05 4.78574e-05 7.46534e-07 -1.79775e-10 -8.90619e-10 -4.17707e-10 -2.98321e-07 -1.4779e-06 -6.93146e-07 
21 2 1.14273e-06 4.98852e-05 4.85645e-05 5.70839e-07 1.43074e-105 1.24484e-104 1e-09 1.5073e-103 1.31146e-102 1.05352e-07 
4 4 1.02661e-06 4.79525e-05 4.96336e-05 5.14454e-07 0 0 -1e-09 0 0 -1.24918e-16 
17 4 1.0935e-06 5.00178e-05 4.96785e-05 5.52306e-07 -5.04745e-10 -3.61352e-10 -7.84001e-10 -9.6291e-08 -6.89357e-08 -1.49565e-07 
3 3 1.10917e-06 5.34172e-05 5.11795e-05 5.45199e-07 -1.10738e-30 -6.16141e-31 1e-09 -2.0786e-27 -1.15653e-27 1.87705e-06 
12 1 1.36863e-06 4.91929e-05 5.04043e-05 1.39397e-06 -4.93659e-10 -7.75524e-11 8.66191e-10 -3.31593e-07 -5.20924e-08 5.81825e-07 
19 1 1.37626e-06 5.11627e-05 5.1087e-05 6.88207e-07 3.30191e-10 8.14052e-10 -4.778e-10 5.05633e-07 1.24659e-06 -7.31673e-07 
7 2 1.27524e-06 4.86133e-05 4.86915e-05 6.43647e-07 0 0 -1e-09 0 0 -2.39432e-16 
20 1 1.21622e-06 5.02573e-05 5.14279e-05 1.55216e-06 1.28903e-19 -4.31673e-20 -1e-09 0 0 -2.07704e-16 
9 1 1.36398e-06 4.98182e-05 5.37031e-05 6.75986e-07 -1.02893e-10 4.21905e-10 9.00783e-10 -1.04002e-07 4.2645e-07 9.10488e-07 
13 1 1.38725e-06 5.06433e-05 5.01264e-05 1.52401e-06 -7.14785e-10 -4.25663e-10 5.54882e-10 -1.46837e-06 -8.74435e-07 1.13989e-06 
1 1 1.14287e-06 5.22207e-05 5.17692e-05 8.57512e-07 3.88371e-59 2.47814e-59 -1e-09 0 0 -1.72345e-16 
22 3 1.2521e-06 5.23885e-05 5.06046e-05 6.2315e-07 -6.06088e-10 -1.79506e-10 7.74877e-10 -4.53751e-07 -1.34388e-07 5.80116e-07 
23 1 1.33276e-06 4.83659e-05 5.22196e-05 6.69432e-07 8.96581e-20 -7.05077e-20 -1e-09 0 0 -2.73313e-16 
24 1 1.29082e-06 5.15414e-05 4.90856e-05 1.32258e-06 1.79775e-10 8.90619e-10 4.17707e-10 2.98321e-07 1.4779e-06 6.93146e-07 
25 4 1.12967e-06 4.91065e-05 5.17133e-05 1.51509e-06 -1.32011e-19 3.26478e-20 -1e-09 0 0 -3.32887e-17 
26 4 9.27727e-07 4.89e-05 5.43684e-05 4.5752e-07 -5.52448e-50 4.02057e-50 1e-09 -7.00859e-47 5.10067e-47 1.26864e-06 
27 4 9.08644e-07 5.08733e-05 4.91176e-05 4.4871e-07 2.85922e-50 -1.17724e-51 1e-09 3.20908e-47 -1.32129e-48 1.12236e-06 
28 4 8.88336e-07 5.11447e-05 4.99851e-05 4.35405e-07 -3.06409e-12 -1.87805e-10 9.82201e-10 -5.23786e-09 -3.2104e-07 1.67901e-06 
29 1 1.24497e-06 5.00753e-05 5.26487e-05 1.39495e-06 1.97523e-10 -8.09928e-10 5.52268e-10 1.04002e-07 -4.2645e-07 2.90785e-07 
30 1 1.23859e-06 5.13175e-05 5.25093e-05 1.40514e-06 1.17596e-40 8.16048e-40 -1e-09 0 0 -2.19375e-16 
31 4 1.02835e-06 4.89892e-05 5.11967e-05 5.09382e-07 2.01931e-50 -8.10426e-50 1e-09 1.93587e-47 -7.76937e-47 9.58677e-07 
32 4 1.03209e-06 4.99388e-05 5.07447e-05 5.21234e-07 6.22917e-10 2.84198e-10 -7.28838e-10 3.64687e-07 1.66384e-07 -4.26698e-07 
33 4 8.51175e-07 5.17405e-05 5.01448e-05 1.33329e-06 9.85093e-10 1.64976e-11 -1.71232e-10 1.06427e-06 1.78236e-08 -1.84995e-07 
34 4 9.698e-07 4.81713e-05 5.06211e-05 4.91409e-07 0 0 -1e-09 0 0 -2.10612e-17 
35 4 8.44698e-07 5.12686e-05 5.21686e-05 4.20097e-07 -6.93505e-11 -6.813e-10 7.28711e-10 -4.28733e-08 -4.21188e-07 4.50498e-07 
ITEM: TIMESTEP
4500
ITEM: NUMBER OF ATOMS
52
ITEM: BOX BOUNDS ff ff ff
0 0.0001
0 0.0001
0 0.0001
ITEM: ATOMS id type diameter x y z vx vy vz fx fy fz 
27 4 9.05669e-07 5.08054e-05 4.90038e-05 4.47749e-07 0 0 1e-09 0 0 1.01706e-06 
11 4 9.33345e-07 5.28067e-05 4.91687e-05 4.70738e-07 2.5839e-10 7.89374e-10 -5.56887e-10 3.09954e-07 9.469e-07 -6.68018e-07 
10 4 9.40421e-07 4.89446e-05 4.96775e-05 4.72974e-07 0 0 -1e-09 0 0 -1.92045e-17 
28 4 8.85428e-07 5.11383e-05 4.99523e-05 4.48244e-07 -3.49898e-10 -5.28231e-10 -7.73656e-10 -3.69539e-07 -5.57882e-07 -8.17084e-07 
18 4 9.01055e-07 5.19667e-05 4.96092e-05 4.56995e-07 -4.13277e-10 -1.54689e-10 -8.9737e-10 -5.20138e-07 -1.94687e-07 -1.1294e-06 
34 4 9.66625e-07 4.80939e-05 5.06631e-05 4.89676e-07 -2.76238e-40 8.58799e-40 -1e-09 0 0 -2.0855e-17 
14 4 9.47511e-07 4.74589e-05 5.14555e-05 4.80366e-07 0 0 -1e-09 0 0 -1.96422e-17 
35 4 8.41933e-07 5.14075e-05 5.23783e-05 4.12281e-07 1.11898e-50 3.4834e-50 1e-09 1.94381e-47 6.05113e-47 1.73713e-06 
8 4 9.64349e-07 4.7236e-05 5.3291e-05 4.74392e-07 1.03961e-30 -1.10431e-30 1e-09 1.61828e-27 -1.719e-27 1.55662e-06 
15 4 9.27163e-07 4.94401e-05 5.22836e-05 4.70452e-07 1.61977e-40 -6.00756e-40 -1e-09 0 0 -1.84037e-17 
6 4 8.83695e-07 5.05946e-05 5.27128e-05 4.39266e-07 7.51034e-11 -5.07012e-10 8.5866e-10 4.51479e-08 -3.04787e-07 5.16178e-07 
26 4 9.2469e-07 4.88683e-05 5.4387e-05 4.64249e-07 2.56533e-40 4.65539e-41 -1e-09 0 0 -1.82568e-17 
2 2 1.27266e-06 5.0149e-05 4.66298e-05 6.3051e-07 0 0 1e-09 0 0 1.16403e-06 
16 2 1.17957e-06 4.90881e-05 4.74088e-05 1.65624e-06 -1.06129e-10 -5.60891e-11 9.92769e-10 -3.42327e-07 -1.80919e-07 3.20224e-06 
5 5 1.4839e-06 5.15352e-05 4.70157e-05 7.39517e-07 0 0 1e-09 0 0 4.86694e-07 
7 2 1.34667e-06 4.84933e-05 4.86163e-05 6.64371e-07 6.59444e-52 -1.17762e-51 1e-09 1.18219e-48 -2.11112e-48 1.7927e-06 
21 2 1.20674e-06 4.98614e-05 4.84872e-05 6.01252e-07 4.49222e-10 5.20208e-10 7.26349e-10 2.61963e-07 3.03359e-07 4.2357e-07 
4 4 1.02325e-06 4.79189e-05 4.96421e-05 5.08838e-07 2.51259e-10 4.06443e-10 8.7845e-10 1.59404e-07 2.57856e-07 5.57308e-07 
17 4 1.08992e-06 4.99771e-05 4.96758e-05 5.35987e-07 9.69411e-12 -1.60841e-11 9.99824e-10 1.74011e-08 -2.88713e-08 1.7947e-06 
36 1 1.29396e-06 4.82461e-05 5.01714e-05 1.50322e-06 -9.82528e-10 -1.01007e-10 1.56319e-10 -2.60426e-07 -2.67727e-08 4.14335e-08 
32 4 1.02871e-06 4.99767e-05 5.08432e-05 5.09549e-07 8.96693e-150 9.61627e-150 1e-09 8.61857e-147 9.24268e-147 9.6115e-07 
22 3 1.31184e-06 5.2642e-05 5.05991e-05 6.60144e-07 8.53009e-10 1.23286e-10 -5.07126e-10 2.26954e-06 3.28019e-07 -1.34927e-06 
31 4 1.02498e-06 4.89791e-05 5.11963e-05 5.09883e-07 0 0 1e-09 0 0 5.21793e-07 
3 3 1.16209e-06 5.36493e-05 5.13292e-05 5.82399e-07 4.18915e-302 3.02607e-302 -1e-09 0 0 -1.81185e-16 
19 1 1.16092e-06 5.10993e-05 5.14332e-05 5.83976e-07 -4.49941e-11 2.08543e-10 -9.76978e-10 -4.11945e-08 1.90932e-07 -8.94475e-07 
1 1 1.28698e-06 5.23479e-05 5.18681e-05 6.50715e-07 1.09019e-40 -4.58199e-40 -1e-09 0 0 -2.46107e-16 
23 1 1.18532e-06 4.79692e-05 5.2512e-05 5.86961e-07 1.48311e-10 -1.42586e-10 9.78608e-10 1.72781e-07 -1.66112e-07 1.14007e-06 
9 1 1.14041e-06 4.98813e-05 5.45712e-05 5.73855e-07 3.17952e-20 -1.19508e-20 -1e-09 0 0 -1.71232e-16 
24 1 1.12867e-06 5.13944e-05 4.85212e-05 1.14372e-06 2.0402e-39 -1.30348e-39 -1e-09 0 0 -1.66002e-16 
38 1 1.24703e-06 5.04276e-05 4.91392e-05 1.48246e-06 -5.2845e-10 6.27835e-11 -8.4664e-10 -5.84014e-07 6.93849e-08 -9.35661e-07 
33 4 8.48388e-07 5.23256e-05 4.97435e-05 1.2363e-06 3.40066e-10 9.4315e-12 9.40354e-10 4.52785e-07 1.25577e-08 1.25204e-06 
37 1 1.29223e-06 5.15174e-05 5.05246e-05 1.28654e-06 -5.16813e-10 -7.641e-11 8.52681e-10 -1.53839e-06 -2.27448e-07 2.53816e-06 
29 1 1.04433e-06 4.93681e-05 5.25361e-05 1.42856e-06 -2.65565e-20 -9.79863e-20 -1e-09 0 0 -1.31498e-16 
30 1 1.39477e-06 5.18338e-05 5.3381e-05 6.99315e-07 2.36452e-60 5.58136e-60 -1e-09 0 0 -3.13265e-16 
12 1 1.14328e-06 4.94422e-05 5.02944e-05 1.31293e-06 -1.13201e-10 -3.11893e-10 -9.43349e-10 -2.33641e-07 -6.43729e-07 -1.94702e-06 
13 1 1.23268e-06 5.0993e-05 5.02533e-05 2.41648e-06 -3.34542e-20 -4.5528e-20 -1e-09 0 0 -2.16252e-16 
20 1 1.36958e-06 5.0355e-05 5.1099e-05 1.63775e-06 4.84763e-10 -8.45776e-10 2.22865e-10 1.01955e-06 -1.77884e-06 4.6873e-07 
25 4 1.12598e-06 4.9134e-05 5.13108e-05 1.69091e-06 -7.45769e-10 6.28347e-10 2.21379e-10 -1.86437e-06 1.57082e-06 5.53432e-07 
39 2 1.09598e-06 4.92071e-05 4.74718e-05 5.42703e-07 7.80196e-11 4.12332e-11 -9.96099e-10 1.68008e-07 8.87921e-08 -2.14501e-06 
40 1 1.19701e-06 4.83317e-05 5.21639e-05 1.68581e-06 -2.53246e-21 7.31582e-21 -1e-09 0 0 -1.98014e-16 
41 1 1.28877e-06 4.95996e-05 5.33901e-05 6.39161e-07 -9.88043e-11 -3.64561e-10 9.25923e-10 -1.11537e-07 -4.11542e-07 1.04525e-06 
42 1 1.17771e-06 5.25356e-05 4.83402e-05 1.05521e-06 -2.5839e-10 -7.89374e-10 5.56887e-10 -3.09954e-07 -9.469e-07 6.68018e-07 
43 1 1.17362e-06 5.12946e-05 5.28833e-05 1.87459e-06 7.60247e-20 8.36567e-20 -1e-09 0 0 -1.86633e-16 
44 4 8.91074e-07 5.03943e-05 5.43784e-05 1.43029e-06 1.25421e-39 -4.71417e-40 -1e-09 0 0 -1.63372e-17 
45 4 9.19121e-07 5.08633e-05 4.7977e-05 4.54437e-07 -5.22314e-30 -5.37526e-30 1e-09 -5.35254e-27 -5.50842e-27 1.02477e-06 
46 4 9.91819e-07 5.17973e-05 4.92499e-05 1.80781e-06 1.94265e-39 4.49595e-40 -1e-09 0 0 -2.25286e-17 
47 4 8.40731e-07 5.02069e-05 5.29863e-05 1.49478e-06 -6.66902e-20 1.13407e-19 -1e-09 0 0 -1.37217e-17 
48 4 1.00694e-06 5.10203e-05 4.90688e-05 2.43193e-06 5.2845e-10 -6.27835e-11 8.4664e-10 5.84014e-07 -6.93849e-08 9.35661e-07 
49 4 9.88699e-07 4.99683e-05 4.99138e-05 2.14696e-06 4.97755e-10 -3.60071e-10 7.89043e-10 8.93226e-07 -6.46151e-07 1.41594e-06 
50 4 1.04086e-06 5.06734e-05 5.21882e-05 1.25732e-06 9.6927e-11 9.93055e-10 -6.66798e-11 1.92592e-07 1.97318e-06 -1.32491e-07 
51 4 8.88722e-07 5.34272e-05 4.80457e-05 4.39352e-07 0 0 1e-09 0 0 1.00179e-06 
52 4 9.40093e-07 5.06796e-05 5.358e-05 8.6041e-07 2.82834e-118 5.15321e-119 -1e-09 0 0 -1.91845e-17 
ITEM: TIMESTEP
5000
ITEM: NUMBER OF ATOMS
70
ITEM: BOX BOUNDS ff ff ff
0 0.0001
0 0.0001
0 0.0001
ITEM: ATOMS id type diameter x y z vx vy vz fx fy fz 
27 4 9.02704e-07 5.07569e-05 4.90509e-05 4.45092e-07 1.98467e-10 3.19679e-10 9.26508e-10 2.60212e-07 4.19135e-07 1.21476e-06 
11 4 9.30289e-07 5.28374e-05 4.92081e-05 4.72103e-07 -4.39406e-11 -2.34706e-10 -9.71073e-10 -1.8659e-08 -9.96661e-08 -4.12358e-07 
10 4 9.37342e-07 4.88528e-05 4.96426e-05 4.63119e-07 -2.74739e-30 -6.89799e-30 1e-09 -3.05055e-27 -7.65916e-27 1.11035e-06 
28 4 8.82529e-07 5.10996e-05 4.99022e-05 4.47397e-07 2.17722e-10 4.5928e-10 -8.61196e-10 1.0482e-07 2.21115e-07 -4.14613e-07 
18 4 8.98105e-07 5.19902e-05 4.95764e-05 4.41704e-07 0 0 1e-09 0 0 1.46968e-06 
34 4 9.6346e-07 4.81188e-05 5.07169e-05 4.86249e-07 -4.18198e-20 -3.65006e-20 -1e-09 0 0 -2.06509e-17 
14 4 9.44409e-07 4.74115e-05 5.13792e-05 4.77533e-07 -4.23603e-20 9.37274e-20 -1e-09 0 0 -1.94499e-17 
35 4 8.39176e-07 5.13115e-05 5.25185e-05 4.21798e-07 6.26232e-21 1.25356e-20 -1e-09 0 0 -1.36457e-17 
8 4 9.61192e-07 4.70584e-05 5.36156e-05 4.73084e-07 -4.81341e-91 2.36664e-90 1e-09 -7.23194e-88 3.55577e-87 1.50245e-06 
15 4 9.24127e-07 4.92446e-05 5.22738e-05 4.67086e-07 -9.06002e-11 -9.16322e-11 -9.91663e-10 -1.22532e-07 -1.23928e-07 -1.34117e-06 
6 4 8.80801e-07 5.06112e-05 5.30181e-05 4.33908e-07 1.21056e-30 3.34583e-31 1e-09 1.57191e-27 4.34456e-28 1.2985e-06 
26 4 9.21662e-07 4.87742e-05 5.43999e-05 4.53725e-07 0 0 1e-09 0 0 1.42124e-06 
2 2 1.34395e-06 5.03253e-05 4.64058e-05 6.72038e-07 7.15958e-10 -6.9437e-10 7.24797e-11 9.82846e-08 -9.53211e-08 9.9498e-09 
16 2 1.24564e-06 4.82437e-05 4.70961e-05 7.19321e-07 -1.08897e-118 -2.71204e-118 -1e-09 0 0 -2.23146e-16 
5 5 1.4839e-06 5.16345e-05 4.69697e-05 7.42361e-07 -8.72594e-83 9.48545e-83 -1e-09 0 0 -3.77243e-16 
7 2 1.08142e-06 4.7675e-05 4.87074e-05 5.42346e-07 -9.54259e-21 -1.35645e-19 -1e-09 0 0 -1.46013e-16 
21 2 1.27433e-06 4.9912e-05 4.8395e-05 6.41746e-07 -4.46989e-10 -3.25343e-10 -8.33278e-10 -6.49549e-07 -4.72778e-07 -1.21089e-06 
4 4 1.0199e-06 4.77439e-05 4.977e-05 5.05288e-07 -3.24892e-14 -8.23247e-11 9.96606e-10 -3.03947e-11 -7.70172e-08 9.32355e-07 
17 4 1.08635e-06 4.99825e-05 4.96938e-05 5.48311e-07 -3.68989e-10 -5.90095e-10 -7.18077e-10 -2.30477e-07 -3.68584e-07 -4.48524e-07 
36 1 1.17916e-06 4.71599e-05 5.05258e-05 1.05934e-06 -1.32917e-39 1.7234e-39 -1e-09 0 0 -1.89291e-16 
32 4 1.02534e-06 5.00242e-05 5.09339e-05 5.18188e-07 -3.43295e-10 5.3632e-10 -7.71045e-10 -7.15097e-07 1.11718e-06 -1.60612e-06 
22 3 1.37442e-06 5.32056e-05 5.03464e-05 6.92409e-07 4.99753e-10 -7.60032e-10 -4.15451e-10 2.02263e-07 -3.07605e-07 -1.68144e-07 
31 4 1.02163e-06 4.88752e-05 5.13771e-05 5.13246e-07 -3.8044e-10 -9.23583e-10 4.75433e-11 -1.50099e-07 -3.64392e-07 1.87578e-08 
3 3 1.21753e-06 5.38581e-05 5.14756e-05 6.14534e-07 4.8351e-10 -2.83932e-10 -8.2801e-10 1.12425e-06 -6.60197e-07 -1.92528e-06 
19 1 1.3073e-06 5.12103e-05 5.14687e-05 6.56883e-07 2.54401e-10 2.268e-10 -9.40129e-10 6.45877e-07 5.75801e-07 -2.38681e-06 
1 1 1.08714e-06 5.25915e-05 5.12802e-05 1.2029e-06 -1.92862e-10 9.73132e-10 -1.25772e-10 -1.58453e-07 7.99511e-07 -1.03333e-07 
23 1 1.33479e-06 4.72818e-05 5.24987e-05 6.58977e-07 -8.09105e-31 -5.57715e-30 1e-09 -1.36193e-27 -9.38774e-27 1.68325e-06 
9 1 1.2842e-06 4.98162e-05 5.47553e-05 6.45908e-07 2.62772e-260 2.92259e-259 -1e-09 0 0 -2.44518e-16 
24 1 1.27099e-06 5.16192e-05 4.85058e-05 8.2163e-07 -1.72236e-10 -6.70472e-10 -7.21666e-10 -6.33154e-08 -2.46471e-07 -2.65291e-07 
38 1 1.40427e-06 5.03832e-05 4.87306e-05 1.84198e-06 3.53676e-10 2.51844e-10 9.00826e-10 4.89994e-07 3.48912e-07 1.24803e-06 
33 4 8.45611e-07 5.28763e-05 4.9416e-05 1.33231e-06 4.39406e-11 2.34706e-10 9.71073e-10 1.8659e-08 9.96661e-08 4.12358e-07 
37 1 1.07219e-06 5.13532e-05 5.08573e-05 1.6589e-06 2.6044e-10 -5.98322e-10 7.57748e-10 4.21364e-07 -9.68024e-07 1.22596e-06 
29 1 1.17601e-06 4.94426e-05 5.26285e-05 1.42761e-06 -2.79645e-10 2.76987e-10 9.19281e-10 -4.13945e-07 4.1001e-07 1.36077e-06 
30 1 1.17975e-06 5.19095e-05 5.5127e-05 6.91562e-07 2.42786e-79 7.95674e-79 -1e-09 0 0 -1.89573e-16 
12 1 1.28744e-06 4.91816e-05 5.0464e-05 1.15603e-06 1.03516e-19 8.18612e-20 -1e-09 0 0 -2.46372e-16 
13 1 1.38812e-06 5.10527e-05 4.98633e-05 2.34122e-06 4.17119e-21 3.12371e-21 -1e-09 0 0 -3.08805e-16 
20 1 1.28396e-06 5.0467e-05 5.16301e-05 1.69689e-06 -6.5679e-10 2.41377e-10 7.14398e-10 -1.06724e-06 3.92222e-07 1.16085e-06 
25 4 1.12229e-06 4.92748e-05 5.14693e-05 1.8254e-06 -6.50793e-20 1.11219e-19 -1e-09 0 0 -3.26401e-17 
39 2 1.15737e-06 4.94304e-05 4.72738e-05 5.81441e-07 -7.15958e-10 6.9437e-10 -7.24797e-11 -9.82846e-08 9.53211e-08 -9.9498e-09 
40 1 1.34794e-06 4.82714e-05 5.21304e-05 1.49351e-06 -2.02643e-39 1.34512e-39 -1e-09 0 0 -2.82762e-16 
41 1 1.09284e-06 4.8726e-05 5.35778e-05 1.2047e-06 -8.50383e-10 5.89834e-11 5.22848e-10 -2.2446e-07 1.55687e-08 1.38006e-07 
42 1 1.32622e-06 5.28117e-05 4.79737e-05 6.63666e-07 1.23349e-19 -5.50348e-20 -1e-09 0 0 -2.6931e-16 
43 1 1.32161e-06 5.14952e-05 5.38009e-05 1.49009e-06 -3.36142e-59 1.18176e-59 -1e-09 0 0 -2.66509e-16 
44 4 8.88157e-07 5.08834e-05 5.48256e-05 4.45148e-07 -3.47749e-81 -1.9481e-80 -1e-09 0 0 -1.61773e-17 
45 4 9.16112e-07 5.08364e-05 4.78255e-05 4.58614e-07 5.46632e-40 4.66338e-40 -1e-09 0 0 -1.77534e-17 
46 4 9.88572e-07 5.18134e-05 4.9262e-05 1.63563e-06 1.72236e-10 6.70472e-10 7.21666e-10 6.33154e-08 2.46471e-07 2.65291e-07 
47 4 8.37978e-07 5.04344e-05 5.36967e-05 1.28634e-06 7.20624e-10 1.79884e-10 6.69584e-10 1.26878e-06 3.16715e-07 1.17891e-06 
48 4 1.00365e-06 5.15276e-05 4.83532e-05 1.9465e-06 -2.21063e-40 -3.40521e-40 -1e-09 0 0 -2.33442e-17 
49 4 9.85462e-07 4.96719e-05 4.97009e-05 1.85598e-06 7.15867e-20 8.62842e-20 -1e-09 0 0 -2.20982e-17 
50 4 1.03745e-06 5.05371e-05 5.27533e-05 1.36647e-06 9.92031e-10 1.13149e-10 -5.54202e-11 6.86576e-07 7.83092e-08 -3.83558e-08 
51 4 8.85812e-07 5.39007e-05 4.7993e-05 4.36092e-07 -7.61156e-30 -1.05651e-31 1e-09 -1.03728e-26 -1.43977e-28 1.36276e-06 
52 4 9.37016e-07 5.07224e-05 5.39266e-05 4.63518e-07 -1.42667e-70 -1.17628e-69 1e-09 -1.42389e-67 -1.17399e-66 9.98053e-07 
53 1 1.30699e-06 5.24509e-05 5.34655e-05 6.48216e-07 5.60475e-30 -2.55739e-30 1e-09 5.918e-27 -2.70033e-27 1.05589e-06 
54 1 1.15775e-06 5.03954e-05 5.03541e-05 1.35179e-06 3.96916e-10 -3.14223e-10 8.62393e-10 9.45621e-07 -7.48611e-07 2.05458e-06 
55 4 1.10395e-06 4.91138e-05 4.90282e-05 1.2551e-06 3.69859e-10 7.14347e-10 5.94065e-10 7.59202e-08 1.46633e-07 1.21943e-07 
56 4 1.00454e-06 4.84603e-05 5.28383e-05 4.96134e-07 -7.45291e-212 1.80751e-210 1e-09 -9.1479e-209 2.21858e-207 1.22743e-06 
57 4 9.00766e-07 5.16136e-05 5.41573e-05 4.42265e-07 -4.41403e-51 -1.43032e-50 1e-09 -7.16622e-48 -2.32214e-47 1.62351e-06 
58 4 9.47318e-07 4.97753e-05 5.06137e-05 2.16165e-06 -5.89174e-10 2.46643e-10 7.69442e-10 -4.66291e-11 1.95201e-11 6.08961e-11 
59 4 9.72966e-07 4.77568e-05 5.32665e-05 1.37968e-06 -9.38316e-10 -3.01438e-10 1.69407e-10 -2.7015e-09 -8.67868e-10 4.87738e-10 
60 4 9.86849e-07 5.15563e-05 5.26615e-05 1.29512e-06 -6.61916e-10 4.04928e-10 6.30794e-10 -5.87202e-07 3.59222e-07 5.59593e-07 
61 2 1.17236e-06 4.86933e-05 4.82159e-05 5.79574e-07 -6.27244e-11 -1.21146e-10 9.90651e-10 -7.59202e-08 -1.46633e-07 1.19906e-06 
62 1 1.13295e-06 4.82549e-05 4.97278e-05 1.46085e-06 -1.3388e-20 -5.67718e-20 -1e-09 0 0 -1.67895e-16 
63 1 1.20716e-06 5.22795e-05 5.22191e-05 6.0593e-07 6.61916e-10 -4.04928e-10 -6.30794e-10 5.87202e-07 -3.59222e-07 -5.59593e-07 
64 1 1.22733e-06 5.2339e-05 5.02512e-05 1.66049e-06 -2.18737e-10 -8.91609e-10 3.96469e-10 -1.34316e-07 -5.47496e-07 2.43454e-07 