ITEM: TIMESTEP
0
ITEM: NUMBER OF ATOMS
5
ITEM: BOX BOUNDS ff ff ff
0 0.0001
0 0.0001
0 0.0001
ITEM: ATOMS id type diameter x y z vx vy vz fx fy fz 
2 2 1.2839e-06 5e-05 4.9e-05 2e-06 0 0 0 -7.678e-05 0 0 
5 5 1.4839e-06 5.1e-05 4.9e-05 2e-06 0 0 0 7.678e-05 -5.122e-05 0 
4 4 1.0539e-06 4.9e-05 5e-05 2e-06 0 0 0 0 0 0 
3 3 1.0283e-06 5.1e-05 5e-05 2e-06 0 0 0 0 5.122e-05 0 
1 1 1.0839e-06 5e-05 5.1e-05 2e-06 0 0 0 0 0 0 
ITEM: TIMESTEP
500
ITEM: NUMBER OF ATOMS
6
ITEM: BOX BOUNDS ff ff ff
0 0.0001
0 0.0001
0 0.0001
ITEM: ATOMS id type diameter x y z vx vy vz fx fy fz 
2 2 1.35581e-06 5.21338e-05 4.5124e-05 2e-06 5.40667e-10 -8.41236e-10 0 0 0 0 
5 5 1.4839e-06 5.46454e-05 4.63025e-05 2e-06 5.59401e-10 -8.28897e-10 0 0 0 0 
4 4 1.05045e-06 4.64967e-05 5.38949e-05 2e-06 -5.40667e-10 8.41236e-10 0 0 0 0 
3 3 1.07736e-06 5.05591e-05 5.23574e-05 2e-06 -5.59401e-10 8.28897e-10 0 0 0 0 
1 1 1.22057e-06 4.93531e-05 4.92253e-05 6.17895e-07 0 0 -1e-09 0 0 -1.91578e-22 
6 4 9.07185e-07 5.06083e-05 5.53838e-05 4.85974e-06 1.66758e-10 8.18172e-10 5.5026e-10 0 0 0 
ITEM: TIMESTEP
1000
ITEM: NUMBER OF ATOMS
8
ITEM: BOX BOUNDS ff ff ff
0 0.0001
0 0.0001
0 0.0001
ITEM: ATOMS id type diameter x y z vx vy vz fx fy fz 
2 2 1.16911e-06 5.30773e-05 4.22681e-05 1.50373e-06 -6.2972e-11 6.65347e-10 7.43873e-10 0 0 0 
5 5 1.4839e-06 5.74424e-05 4.21581e-05 2e-06 5.59401e-10 -8.28897e-10 0 0 0 0 
4 4 1.04701e-06 4.37934e-05 5.81011e-05 2e-06 -5.40667e-10 8.41236e-10 0 0 0 0 
3 3 1.12876e-06 4.77621e-05 5.65019e-05 2e-06 -5.59401e-10 8.28897e-10 0 0 0 0 
1 1 1.37448e-06 4.94007e-05 4.91488e-05 6.7939e-07 0 0 1e-09 0 0 1.57027e-06 
6 4 9.04215e-07 5.14421e-05 5.94746e-05 7.61103e-06 1.66758e-10 8.18172e-10 5.5026e-10 0 0 0 
7 2 1.10166e-06 5.25911e-05 4.74049e-05 4.03485e-06 -8.16025e-11 8.62192e-10 4.99966e-10 0 0 0 
8 4 9.86742e-07 4.71211e-05 5.28148e-05 8.31923e-07 -5.27465e-10 8.48283e-10 4.6865e-11 0 0 0 
ITEM: TIMESTEP
1500
ITEM: NUMBER OF ATOMS
9
ITEM: BOX BOUNDS ff ff ff
0 0.0001
0 0.0001
0 0.0001
ITEM: ATOMS id type diameter x y z vx vy vz fx fy fz 
9 1 1.23546e-06 4.91197e-05 4.96006e-05 6.08083e-07 0 0 1e-09 0 0 1.92944e-06 
8 4 9.83512e-07 4.44838e-05 5.70562e-05 1.06625e-06 -5.27465e-10 8.48283e-10 4.6865e-11 0 0 0 
1 1 1.22143e-06 4.96784e-05 4.87021e-05 6.06779e-06 0 0 1e-09 0 0 0 
2 2 1.23459e-06 5.27624e-05 4.55949e-05 5.2231e-06 -6.2972e-11 6.65347e-10 7.43873e-10 0 0 0 
5 5 1.4839e-06 6.02394e-05 3.80136e-05 2e-06 5.59401e-10 -8.28897e-10 0 0 0 0 
3 3 1.18261e-06 4.49651e-05 6.06464e-05 2e-06 -5.59401e-10 8.28897e-10 0 0 0 0 
4 4 1.04358e-06 4.109e-05 6.23073e-05 2e-06 -5.40667e-10 8.41236e-10 0 0 0 0 
7 2 1.16337e-06 5.21831e-05 5.17158e-05 6.53468e-06 -8.16025e-11 8.62192e-10 4.99966e-10 0 0 0 
6 4 9.01254e-07 5.22759e-05 6.35655e-05 1.03623e-05 1.66758e-10 8.18172e-10 5.5026e-10 0 0 0 
ITEM: TIMESTEP
2000
ITEM: NUMBER OF ATOMS
11
ITEM: BOX BOUNDS ff ff ff
0 0.0001
0 0.0001
0 0.0001
ITEM: ATOMS id type diameter x y z vx vy vz fx fy fz 
9 1 1.39125e-06 4.91197e-05 4.96006e-05 6.88083e-07 0 0 1e-09 0 0 1.50796e-06 
8 4 9.80292e-07 4.18465e-05 6.12976e-05 1.30057e-06 -5.27465e-10 8.48283e-10 4.6865e-11 0 0 0 
1 1 1.37545e-06 4.96784e-05 4.87021e-05 1.10678e-05 0 0 1e-09 0 0 0 
2 2 1.30375e-06 5.24475e-05 4.89216e-05 8.94247e-06 -6.2972e-11 6.65347e-10 7.43873e-10 0 0 0 
5 5 1.4839e-06 6.30364e-05 3.38691e-05 2e-06 5.59401e-10 -8.28897e-10 0 0 0 0 
3 3 1.23903e-06 4.21681e-05 6.47909e-05 2e-06 -5.59401e-10 8.28897e-10 0 0 0 0 
4 4 1.04017e-06 3.83867e-05 6.65135e-05 2e-06 -5.40667e-10 8.41236e-10 0 0 0 0 
7 2 1.22853e-06 5.17751e-05 5.60268e-05 9.03451e-06 -8.16025e-11 8.62192e-10 4.99966e-10 0 0 0 
6 4 8.98304e-07 5.31096e-05 6.76564e-05 1.31136e-05 1.66758e-10 8.18172e-10 5.5026e-10 0 0 0 
10 4 9.55967e-07 4.92234e-05 4.83912e-05 4.7266e-06 0 0 1e-09 0 0 0 
11 4 9.48775e-07 5.01383e-05 4.83105e-05 1.21105e-05 0 0 1e-09 0 0 0 
ITEM: TIMESTEP
2500
ITEM: NUMBER OF ATOMS
15
ITEM: BOX BOUNDS ff ff ff
0 0.0001
0 0.0001
0 0.0001
ITEM: ATOMS id type diameter x y z vx vy vz fx fy fz 
12 1 1.19193e-06 4.91746e-05 4.89603e-05 5.74025e-06 0 0 1e-09 0 0 0 
9 1 1.29106e-06 4.93991e-05 5.01915e-05 1.55406e-06 3.39332e-10 -1.02819e-10 9.3503e-10 0 0 0 
8 4 9.77082e-07 3.92091e-05 6.55391e-05 1.5349e-06 -5.27465e-10 8.48283e-10 4.6865e-11 0 0 0 
5 5 1.4839e-06 6.58334e-05 2.97246e-05 2e-06 5.59401e-10 -8.28897e-10 0 0 0 0 
3 3 1.29814e-06 3.93711e-05 6.89353e-05 2e-06 -5.59401e-10 8.28897e-10 0 0 0 0 
4 4 1.03676e-06 3.56834e-05 7.07197e-05 2e-06 -5.40667e-10 8.41236e-10 0 0 0 0 
10 4 9.52838e-07 4.92234e-05 4.83912e-05 9.7266e-06 0 0 1e-09 0 0 0 
2 2 1.37677e-06 5.21327e-05 5.22483e-05 1.26618e-05 -6.2972e-11 6.65347e-10 7.43873e-10 0 0 0 
7 2 1.29735e-06 5.13671e-05 6.03378e-05 1.15343e-05 -8.16025e-11 8.62192e-10 4.99966e-10 0 0 0 
1 1 1.27248e-06 4.73529e-05 5.06821e-05 6.5779e-06 -4.24527e-10 3.61451e-10 -8.30139e-10 0 0 0 
13 1 1.18297e-06 4.83535e-05 4.98301e-05 7.82134e-06 -3.66206e-10 3.11795e-10 -8.76743e-10 0 0 0 
11 4 9.45669e-07 5.1974e-05 4.67475e-05 1.64892e-05 3.66206e-10 -3.11795e-10 8.76743e-10 0 0 0 
6 4 8.95363e-07 5.39434e-05 7.17472e-05 1.58649e-05 1.66758e-10 8.18172e-10 5.5026e-10 0 0 0 
14 4 9.60022e-07 4.83712e-05 4.93524e-05 5.03975e-06 0 0 1e-09 0 0 0 
15 4 9.39405e-07 4.90441e-05 5.02991e-05 4.91499e-07 7.96298e-10 -2.41282e-10 5.547e-10 0 0 0 
ITEM: TIMESTEP
3000
ITEM: NUMBER OF ATOMS
20
ITEM: BOX BOUNDS ff ff ff
0 0.0001
0 0.0001
0 0.0001
ITEM: ATOMS id type diameter x y z vx vy vz fx fy fz 
12 1 1.34223e-06 4.91746e-05 4.89603e-05 1.07402e-05 0 0 1e-09 0 0 0 
9 1 1.20227e-06 5.11172e-05 4.96709e-05 6.92599e-06 3.39332e-10 -1.02819e-10 9.3503e-10 0 0 0 
8 4 9.73884e-07 3.65718e-05 6.97805e-05 1.76922e-06 -5.27465e-10 8.48283e-10 4.6865e-11 0 0 0 
5 5 1.4839e-06 6.86304e-05 2.55801e-05 2e-06 5.59401e-10 -8.28897e-10 0 0 0 0 
3 3 1.36007e-06 3.65741e-05 7.30798e-05 2e-06 -5.59401e-10 8.28897e-10 0 0 0 0 
4 4 1.03337e-06 3.298e-05 7.49258e-05 2e-06 -5.40667e-10 8.41236e-10 0 0 0 0 
10 4 9.49718e-07 4.92234e-05 4.83912e-05 1.47266e-05 0 0 1e-09 0 0 0 
2 2 1.0807e-06 5.49126e-05 5.18179e-05 1.62519e-05 7.07367e-10 -3.45292e-10 6.1677e-10 0 0 0 
7 2 1.37001e-06 5.0959e-05 6.46487e-05 1.40342e-05 -8.16025e-11 8.62192e-10 4.99966e-10 0 0 0 
1 1 1.06014e-06 4.52829e-05 5.30393e-05 2.22459e-06 -4.24527e-10 3.61451e-10 -8.30139e-10 0 0 0 
13 1 1.33213e-06 4.62817e-05 5.31965e-05 8.382e-06 -4.3007e-10 7.91216e-10 4.34761e-10 0 0 0 
11 4 9.42573e-07 5.38051e-05 4.51886e-05 2.0873e-05 3.66206e-10 -3.11795e-10 8.76743e-10 0 0 0 
6 4 8.92431e-07 5.47772e-05 7.58381e-05 1.86162e-05 1.66758e-10 8.18172e-10 5.5026e-10 0 0 0 
14 4 9.56879e-07 4.99926e-05 4.63695e-05 4.6307e-06 4.3007e-10 -7.91216e-10 -4.34761e-10 0 0 0 
15 4 9.36329e-07 5.30256e-05 4.90927e-05 3.265e-06 7.96298e-10 -2.41282e-10 5.547e-10 0 0 0 
16 2 1.21893e-06 4.91219e-05 5.46446e-05 1.12029e-05 -7.07367e-10 3.45292e-10 -6.1677e-10 0 0 0 
17 4 1.1007e-06 4.57818e-05 4.87051e-05 5.20826e-06 -8.94144e-11 -9.34594e-10 3.44296e-10 0 0 0 
18 4 9.09964e-07 4.74418e-05 5.15215e-05 2.7269e-06 -3.66206e-10 3.11795e-10 -8.76743e-10 0 0 0 
19 1 1.10115e-06 5.10761e-05 4.96834e-05 5.59104e-06 3.39332e-10 -1.02819e-10 9.3503e-10 0 0 0 
20 1 1.20524e-06 4.61932e-05 5.30046e-05 3.62438e-06 8.94144e-11 9.34594e-10 -3.44296e-10 0 0 0 
ITEM: TIMESTEP
3500
ITEM: NUMBER OF ATOMS
28
ITEM: BOX BOUNDS ff ff ff
0 0.0001
0 0.0001
0 0.0001
ITEM: ATOMS id type diameter x y z vx vy vz fx fy fz 
8 4 9.70695e-07 3.39345e-05 7.40219e-05 2.00355e-06 -5.27465e-10 8.48283e-10 4.6865e-11 0 0 0 
5 5 1.4839e-06 7.14274e-05 2.14356e-05 2e-06 5.59401e-10 -8.28897e-10 0 0 0 0 
1 1 1.19382e-06 4.44848e-05 5.37189e-05 6.03927e-07 0 0 -1e-09 0 0 -1.68474e-22 
3 3 1.05866e-06 3.76294e-05 7.61392e-05 6.49793e-07 8.31672e-10 3.20406e-10 -4.53499e-10 0 0 0 
4 4 1.02998e-06 3.02767e-05 7.9132e-05 2e-06 -5.40667e-10 8.41236e-10 0 0 0 0 
18 4 9.06985e-07 4.68499e-05 5.20255e-05 2.80028e-06 1.50091e-10 -1.27791e-10 9.80379e-10 0 0 0 
15 4 9.33264e-07 5.70071e-05 4.78863e-05 6.0385e-06 7.96298e-10 -2.41282e-10 5.547e-10 0 0 0 
20 1 1.35721e-06 4.66403e-05 5.76776e-05 1.9029e-06 8.94144e-11 9.34594e-10 -3.44296e-10 0 0 0 
14 4 9.53746e-07 5.21429e-05 4.24135e-05 2.4569e-06 4.3007e-10 -7.91216e-10 -4.34761e-10 0 0 0 
17 4 1.09709e-06 4.53348e-05 4.40322e-05 6.92975e-06 -8.94144e-11 -9.34594e-10 3.44296e-10 0 0 0 
19 1 1.24e-06 5.27728e-05 4.91693e-05 1.02662e-05 3.39332e-10 -1.02819e-10 9.3503e-10 0 0 0 
9 1 1.35387e-06 5.28139e-05 4.91568e-05 1.16011e-05 3.39332e-10 -1.02819e-10 9.3503e-10 0 0 0 
13 1 1.20624e-06 4.45988e-05 5.66736e-05 1.07584e-05 -4.3007e-10 7.91216e-10 4.34761e-10 0 0 0 
12 1 1.24125e-06 4.89252e-05 4.91031e-05 1.63946e-05 0 0 1e-09 0 0 0 
16 2 1.2872e-06 4.5585e-05 5.6371e-05 8.11901e-06 -7.07367e-10 3.45292e-10 -6.1677e-10 0 0 0 
21 2 1.08212e-06 5.48948e-05 6.56178e-05 1.11922e-05 7.86032e-10 1.13259e-10 -6.07722e-10 0 0 0 
7 2 1.2076e-06 4.69012e-05 6.4466e-05 1.73724e-05 -7.86032e-10 -1.13259e-10 6.07722e-10 0 0 0 
10 4 9.46609e-07 4.92234e-05 4.83912e-05 1.97266e-05 0 0 1e-09 0 0 0 
2 2 1.14123e-06 5.84494e-05 5.00914e-05 1.93357e-05 7.07367e-10 -3.45292e-10 6.1677e-10 0 0 0 
6 4 8.8951e-07 5.5611e-05 7.99289e-05 2.13675e-05 1.66758e-10 8.18172e-10 5.5026e-10 0 0 0 
11 4 9.39487e-07 5.56361e-05 4.36296e-05 2.52567e-05 3.66206e-10 -3.11795e-10 8.76743e-10 0 0 0 
22 3 1.19509e-06 3.26216e-05 7.42099e-05 3.38044e-06 -8.31672e-10 -3.20406e-10 4.53499e-10 0 0 0 
23 1 1.17462e-06 4.36763e-05 5.7619e-05 1.03585e-05 -4.3007e-10 7.91216e-10 4.34761e-10 0 0 0 
24 1 1.15497e-06 4.94067e-05 4.88273e-05 1.51314e-05 0 0 1e-09 0 0 0 
25 4 1.0206e-06 5.17776e-05 4.87859e-05 1.08089e-05 3.39332e-10 -1.02819e-10 9.3503e-10 0 0 0 
26 4 1.04037e-06 5.19526e-05 5.00394e-05 1.12278e-05 3.39332e-10 -1.02819e-10 9.3503e-10 0 0 0 
27 4 8.9263e-07 4.4994e-05 5.64472e-05 9.72149e-06 -4.3007e-10 7.91216e-10 4.34761e-10 0 0 0 
28 4 9.13283e-07 4.31911e-05 5.84699e-05 9.82616e-06 -4.3007e-10 7.91216e-10 4.34761e-10 0 0 0 
ITEM: TIMESTEP
4000
ITEM: NUMBER OF ATOMS
35
ITEM: BOX BOUNDS ff ff ff
0 0.0001
0 0.0001
0 0.0001
ITEM: ATOMS id type diameter x y z vx vy vz fx fy fz 
8 4 9.67517e-07 3.12972e-05 7.82633e-05 2.23787e-06 -5.27465e-10 8.48283e-10 4.6865e-11 0 0 0 
5 5 1.4839e-06 7.42244e-05 1.72911e-05 2e-06 5.59401e-10 -8.28897e-10 0 0 0 0 
1 1 1.34436e-06 4.45829e-05 5.36206e-05 6.80806e-07 0 0 -1e-09 0 0 -1.54405e-22 
3 3 1.10917e-06 3.51659e-05 7.51901e-05 4.27902e-06 -5.68293e-10 -2.18938e-10 7.93164e-10 0 0 0 
4 4 1.02661e-06 2.75734e-05 8.33382e-05 2e-06 -5.40667e-10 8.41236e-10 0 0 0 0 
18 4 9.04015e-07 4.76003e-05 5.13865e-05 7.70217e-06 1.50091e-10 -1.27791e-10 9.80379e-10 0 0 0 
15 4 9.30208e-07 6.09885e-05 4.66799e-05 8.812e-06 7.96298e-10 -2.41282e-10 5.547e-10 0 0 0 
20 1 1.19872e-06 4.91855e-05 5.54608e-05 3.00092e-06 5.68174e-10 -7.58738e-10 3.18582e-10 0 0 0 
14 4 9.50623e-07 5.39292e-05 3.91272e-05 7.18454e-07 -3.97359e-10 7.31036e-10 5.547e-10 0 0 0 
17 4 1.0935e-06 4.48877e-05 3.93592e-05 8.65123e-06 -8.94144e-11 -9.34594e-10 3.44296e-10 0 0 0 
19 1 1.39635e-06 5.39423e-05 4.81186e-05 7.42471e-06 2.04515e-10 -2.34579e-10 -9.5034e-10 0 0 0 
9 1 1.15956e-06 5.4837e-05 4.83158e-05 1.66997e-05 3.39332e-10 -1.02819e-10 9.3503e-10 0 0 0 
13 1 1.35834e-06 4.24753e-05 6.05696e-05 1.29541e-05 -3.34103e-10 1.76423e-10 9.25878e-10 0 0 0 
12 1 1.39776e-06 4.89252e-05 4.91031e-05 2.13946e-05 0 0 1e-09 0 0 0 
16 2 1.3593e-06 4.20482e-05 5.80975e-05 5.03517e-06 -7.07367e-10 3.45292e-10 -6.1677e-10 0 0 0 
21 2 1.14273e-06 5.8825e-05 6.61841e-05 8.15356e-06 7.86032e-10 1.13259e-10 -6.07722e-10 0 0 0 
7 2 1.27524e-06 4.29711e-05 6.38997e-05 2.0411e-05 -7.86032e-10 -1.13259e-10 6.07722e-10 0 0 0 
10 4 9.4351e-07 4.92234e-05 4.83912e-05 2.47266e-05 0 0 1e-09 0 0 0 
2 2 1.20516e-06 6.19862e-05 4.8365e-05 2.24196e-05 7.07367e-10 -3.45292e-10 6.1677e-10 0 0 0 
6 4 8.86597e-07 5.64448e-05 8.40198e-05 2.41188e-05 1.66758e-10 8.18172e-10 5.5026e-10 0 0 0 
11 4 9.36411e-07 5.74671e-05 4.20706e-05 2.96404e-05 3.66206e-10 -3.11795e-10 8.76743e-10 0 0 0 
22 3 1.2521e-06 2.84633e-05 7.26079e-05 5.64793e-06 -8.31672e-10 -3.20406e-10 4.53499e-10 0 0 0 
23 1 1.32273e-06 4.15348e-05 6.15203e-05 1.24822e-05 -6.73813e-10 6.75445e-10 -2.99582e-10 0 0 0 
24 1 1.30061e-06 4.94067e-05 4.88273e-05 2.01314e-05 0 0 1e-09 0 0 0 
25 4 1.01726e-06 4.94902e-05 4.59784e-05 1.04521e-05 -6.59209e-10 -6.77557e-10 -3.26129e-10 0 0 0 
26 4 1.03696e-06 4.95189e-05 5.28005e-05 1.2166e-05 -6.95963e-10 7.18065e-10 -4.24585e-12 0 0 0 
27 4 8.89707e-07 4.28819e-05 6.03549e-05 1.18273e-05 3.34103e-10 -1.76423e-10 -9.25878e-10 0 0 0 
28 4 9.10293e-07 4.10403e-05 6.24232e-05 1.19087e-05 -4.35182e-10 7.63277e-10 -4.77519e-10 0 0 0 
29 1 1.22705e-06 4.6396e-05 5.91924e-05 5.19692e-06 -4.89205e-12 8.27541e-12 9.99954e-10 0 0 0 
30 1 1.25667e-06 5.55509e-05 4.65869e-05 1.2607e-05 6.93015e-10 -7.12389e-10 1.10598e-10 0 0 0 
31 4 9.89789e-07 4.13106e-05 5.68974e-05 5.39013e-07 -7.06504e-10 7.07488e-10 -1.76597e-11 0 0 0 
32 4 8.98947e-07 4.66091e-05 5.49925e-05 1.61325e-06 4.46021e-11 -9.75883e-10 2.13689e-10 0 0 0 
33 4 1.06238e-06 4.89782e-05 4.81832e-05 2.22455e-05 0 0 1e-09 0 0 0 
34 4 9.46408e-07 4.89394e-05 4.79033e-05 1.96153e-05 0 0 1e-09 0 0 0 
35 4 8.36831e-07 4.64382e-05 5.87311e-05 1.56608e-06 3.79887e-11 -8.31183e-10 5.547e-10 0 0 0 
ITEM: TIMESTEP
4500
ITEM: NUMBER OF ATOMS
52
ITEM: BOX BOUNDS ff ff ff
0 0.0001
0 0.0001
0 0.0001
ITEM: ATOMS id type diameter x y z vx vy vz fx fy fz 
14 4 9.47511e-07 5.19424e-05 4.27824e-05 3.49196e-06 -3.97359e-10 7.31036e-10 5.547e-10 0 0 0 
1 1 1.19457e-06 4.48569e-05 5.41624e-05 4.00344e-06 0 0 1e-09 0 0 0 
31 4 9.86548e-07 4.09495e-05 5.72591e-05 1.853e-06 5.87939e-10 -5.88758e-10 5.547e-10 0 0 0 
32 4 8.96004e-07 4.68321e-05 5.01131e-05 2.6817e-06 4.46021e-11 -9.75883e-10 2.13689e-10 0 0 0 
35 4 8.34091e-07 4.66282e-05 5.45752e-05 4.33958e-06 3.79887e-11 -8.31183e-10 5.547e-10 0 0 0 
5 5 1.4839e-06 7.70214e-05 1.31467e-05 2e-06 5.59401e-10 -8.28897e-10 0 0 0 0 
8 4 9.64349e-07 2.86598e-05 8.25047e-05 2.4722e-06 -5.27465e-10 8.48283e-10 4.6865e-11 0 0 0 
4 4 1.02325e-06 2.487e-05 8.75444e-05 2e-06 -5.40667e-10 8.41236e-10 0 0 0 0 
20 1 1.34987e-06 5.20264e-05 5.16671e-05 4.59383e-06 5.68174e-10 -7.58738e-10 3.18582e-10 0 0 0 
3 3 1.16209e-06 3.23244e-05 7.40954e-05 8.24484e-06 -5.68293e-10 -2.18938e-10 7.93164e-10 0 0 0 
16 2 1.17957e-06 4.02574e-05 5.89201e-05 6.63105e-06 -1.62713e-11 -8.59933e-12 9.99831e-10 0 0 0 
29 1 1.38178e-06 4.63716e-05 5.92338e-05 1.01967e-05 -4.89205e-12 8.27541e-12 9.99954e-10 0 0 0 
22 3 1.31184e-06 2.43049e-05 7.10059e-05 7.91543e-06 -8.31672e-10 -3.20406e-10 4.53499e-10 0 0 0 
36 1 1.32017e-06 5.35898e-05 4.74864e-05 2.72957e-06 -7.6305e-10 5.42688e-10 -3.51063e-10 0 0 0 
19 1 1.16644e-06 5.54767e-05 4.8296e-05 3.93838e-06 3.4936e-10 9.24494e-10 -1.52509e-10 0 0 0 
18 4 9.01055e-07 4.83508e-05 5.07476e-05 1.26041e-05 1.50091e-10 -1.27791e-10 9.80379e-10 0 0 0 
21 2 1.20674e-06 6.27552e-05 6.67504e-05 5.11495e-06 7.86032e-10 1.13259e-10 -6.07722e-10 0 0 0 
17 4 1.08992e-06 4.44406e-05 3.46862e-05 1.03727e-05 -8.94144e-11 -9.34594e-10 3.44296e-10 0 0 0 
15 4 9.27163e-07 6.497e-05 4.54735e-05 1.15855e-05 7.96298e-10 -2.41282e-10 5.547e-10 0 0 0 
25 4 1.01393e-06 4.61942e-05 4.25906e-05 8.82148e-06 -6.59209e-10 -6.77557e-10 -3.26129e-10 0 0 0 
27 4 8.86795e-07 4.45524e-05 5.94728e-05 7.19787e-06 3.34103e-10 -1.76423e-10 -9.25878e-10 0 0 0 
28 4 9.07313e-07 4.09811e-05 6.66145e-05 9.84683e-06 2.72758e-10 8.88675e-10 -3.68592e-10 0 0 0 
26 4 1.03357e-06 4.60391e-05 5.63908e-05 1.21448e-05 -6.95963e-10 7.18065e-10 -4.24585e-12 0 0 0 
23 1 1.17641e-06 3.8711e-05 6.30814e-05 8.90189e-06 -4.11156e-10 7.03074e-11 -9.0885e-10 0 0 0 
30 1 1.09881e-06 5.68304e-05 4.3466e-05 1.27504e-05 -9.35842e-10 -2.81206e-10 -2.1242e-10 0 0 0 
13 1 1.13568e-06 4.08488e-05 6.2018e-05 1.79268e-05 -3.34103e-10 1.76423e-10 9.25878e-10 0 0 0 
9 1 1.30577e-06 5.65337e-05 4.78017e-05 2.13749e-05 3.39332e-10 -1.02819e-10 9.3503e-10 0 0 0 
34 4 9.43309e-07 4.69205e-05 4.41068e-05 1.79147e-05 -4.26843e-10 -8.02645e-10 -4.16613e-10 0 0 0 
24 1 1.091e-06 5.11165e-05 4.54306e-05 1.8087e-05 4.96192e-10 -7.26819e-10 -4.74897e-10 0 0 0 
7 2 1.34667e-06 3.90409e-05 6.33335e-05 2.34496e-05 -7.86032e-10 -1.13259e-10 6.07722e-10 0 0 0 
12 1 1.17906e-06 4.86069e-05 5.35191e-05 1.83303e-05 -5.81633e-11 8.15152e-10 -5.7632e-10 0 0 0 
37 1 1.31242e-06 4.92057e-05 4.51274e-05 2.42633e-05 5.81633e-11 -8.15152e-10 5.7632e-10 0 0 0 
33 4 1.05891e-06 4.91885e-05 4.45296e-05 2.56478e-05 4.21427e-11 -7.32106e-10 6.79886e-10 0 0 0 
2 2 1.27266e-06 6.55231e-05 4.66385e-05 2.55034e-05 7.07367e-10 -3.45292e-10 6.1677e-10 0 0 0 
6 4 8.83695e-07 5.72786e-05 8.81107e-05 2.68701e-05 1.66758e-10 8.18172e-10 5.5026e-10 0 0 0 
10 4 9.40421e-07 4.92234e-05 4.83912e-05 2.97266e-05 0 0 1e-09 0 0 0 
11 4 9.33345e-07 5.92981e-05 4.05117e-05 3.40241e-05 3.66206e-10 -3.11795e-10 8.76743e-10 0 0 0 
38 1 1.20847e-06 4.43057e-05 5.30724e-05 6.12901e-07 0 0 -1e-09 0 0 -1.76193e-22 
39 2 1.09598e-06 4.03541e-05 5.89712e-05 6.45369e-07 -2.33756e-11 -1.2354e-11 9.9965e-10 0 0 0 
40 1 1.188e-06 4.1416e-05 6.26189e-05 1.48811e-05 4.11156e-10 -7.03074e-11 9.0885e-10 0 0 0 
41 1 1.28344e-06 4.08712e-05 6.04882e-05 1.53239e-05 -2.16829e-10 -1.505e-10 -9.64539e-10 0 0 0 
42 1 1.14655e-06 5.98553e-05 4.31432e-05 1.3175e-05 8.39742e-10 -5.4295e-10 6.19085e-12 0 0 0 
43 1 1.22607e-06 5.24799e-05 4.5689e-05 1.83585e-05 4.96192e-10 -7.26819e-10 -4.74897e-10 0 0 0 
44 4 1.01257e-06 5.44741e-05 4.65923e-05 5.04813e-06 -3.66504e-10 1.09144e-10 9.23993e-10 0 0 0 
45 4 9.41195e-07 5.54416e-05 4.63042e-05 2.60916e-06 3.66504e-10 -1.09144e-10 -9.23993e-10 0 0 0 
46 4 9.25053e-07 3.98146e-05 6.30162e-05 9.08191e-06 -4.11156e-10 7.03074e-11 -9.0885e-10 0 0 0 
47 4 9.01158e-07 5.78266e-05 4.4455e-05 1.31601e-05 -8.39742e-10 5.4295e-10 -6.19085e-12 0 0 0 
48 4 9.27708e-07 4.15299e-05 6.09454e-05 1.82543e-05 2.16829e-10 1.505e-10 9.64539e-10 0 0 0 
49 4 9.60288e-07 5.62535e-05 4.66248e-05 2.15954e-05 3.39332e-10 -1.02819e-10 9.3503e-10 0 0 0 
50 4 9.50514e-07 4.22568e-05 6.18572e-05 1.49177e-05 4.11156e-10 -7.03074e-11 9.0885e-10 0 0 0 
51 4 9.79596e-07 4.17641e-05 6.01423e-05 1.70495e-05 -3.34103e-10 1.76423e-10 9.25878e-10 0 0 0 
52 4 9.35614e-07 5.86699e-05 4.55802e-05 1.25659e-05 1.33987e-10 9.22608e-10 -3.6172e-10 0 0 0 
ITEM: TIMESTEP
5000
ITEM: NUMBER OF ATOMS
69
ITEM: BOX BOUNDS ff ff ff
0 0.0001
0 0.0001
0 0.0001
ITEM: ATOMS id type diameter x y z vx vy vz fx fy fz 
14 4 9.44409e-07 4.99556e-05 4.64375e-05 6.26546e-06 -3.97359e-10 7.31036e-10 5.547e-10 0 0 0 
1 1 1.3452e-06 4.48569e-05 5.41624e-05 9.00344e-06 0 0 1e-09 0 0 0 
31 4 9.83318e-07 4.38892e-05 5.43153e-05 4.6265e-06 5.87939e-10 -5.88758e-10 5.547e-10 0 0 0 
32 4 8.9307e-07 4.70551e-05 4.52337e-05 3.75015e-06 4.46021e-11 -9.75883e-10 2.13689e-10 0 0 0 
35 4 8.31361e-07 5.05322e-05 5.38527e-05 5.88095e-06 9.68854e-10 2.93004e-11 2.45894e-10 0 0 0 
5 5 1.4839e-06 7.98184e-05 9.00217e-06 2e-06 5.59401e-10 -8.28897e-10 0 0 0 0 
8 4 9.61192e-07 2.60225e-05 8.67461e-05 2.70652e-06 -5.27465e-10 8.48283e-10 4.6865e-11 0 0 0 
4 4 1.0199e-06 2.21667e-05 9.17506e-05 2e-06 -5.40667e-10 8.41236e-10 0 0 0 0 
20 1 1.14178e-06 5.43227e-05 4.93531e-05 5.47936e-06 -2.4554e-10 7.44654e-10 -6.20645e-10 0 0 0 
3 3 1.21753e-06 2.9483e-05 7.30007e-05 1.22107e-05 -5.68293e-10 -2.18938e-10 7.93164e-10 0 0 0 
16 2 1.24564e-06 4.01534e-05 5.78283e-05 9.89944e-06 -3.53157e-11 -8.89998e-10 -4.54594e-10 0 0 0 
29 1 1.29539e-06 4.65174e-05 5.99904e-05 1.50624e-05 -4.89205e-12 8.27541e-12 9.99954e-10 0 0 0 
22 3 1.37442e-06 2.01465e-05 6.94038e-05 1.01829e-05 -8.31672e-10 -3.20406e-10 4.53499e-10 0 0 0 
36 1 1.13049e-06 4.92937e-05 5.06355e-05 9.53374e-07 -7.6305e-10 5.42688e-10 -3.51063e-10 0 0 0 
19 1 1.31352e-06 5.72235e-05 5.29185e-05 3.17583e-06 3.4936e-10 9.24494e-10 -1.52509e-10 0 0 0 
18 4 8.98105e-07 4.91012e-05 5.01086e-05 1.7506e-05 1.50091e-10 -1.27791e-10 9.80379e-10 0 0 0 
21 2 1.27433e-06 6.66853e-05 6.73167e-05 2.07634e-06 7.86032e-10 1.13259e-10 -6.07722e-10 0 0 0 
17 4 1.08635e-06 4.39936e-05 3.00133e-05 1.20942e-05 -8.94144e-11 -9.34594e-10 3.44296e-10 0 0 0 
15 4 9.24127e-07 6.89515e-05 4.4267e-05 1.4359e-05 7.96298e-10 -2.41282e-10 5.547e-10 0 0 0 
25 4 1.01061e-06 4.28981e-05 3.92028e-05 7.19083e-06 -6.59209e-10 -6.77557e-10 -3.26129e-10 0 0 0 
27 4 8.83891e-07 4.62229e-05 5.85907e-05 2.56848e-06 3.34103e-10 -1.76423e-10 -9.25878e-10 0 0 0 
28 4 9.04342e-07 4.23449e-05 7.10579e-05 8.00387e-06 2.72758e-10 8.88675e-10 -3.68592e-10 0 0 0 
26 4 1.03018e-06 4.25593e-05 5.99812e-05 1.21236e-05 -6.95963e-10 7.18065e-10 -4.24585e-12 0 0 0 
23 1 1.32474e-06 3.65347e-05 6.34304e-05 4.51475e-06 -9.8528e-10 5.82466e-11 -1.60719e-10 0 0 0 
30 1 1.23737e-06 5.21512e-05 4.20599e-05 1.16883e-05 -9.35842e-10 -2.81206e-10 -2.1242e-10 0 0 0 
13 1 1.27889e-06 3.91783e-05 6.29001e-05 2.25562e-05 -3.34103e-10 1.76423e-10 9.25878e-10 0 0 0 
9 1 1.18993e-06 5.7656e-05 4.76687e-05 2.6133e-05 3.39332e-10 -1.02819e-10 9.3503e-10 0 0 0 
34 4 9.40221e-07 4.47862e-05 4.00936e-05 1.58316e-05 -4.26843e-10 -8.02645e-10 -4.16613e-10 0 0 0 
24 1 1.22857e-06 5.35974e-05 4.17965e-05 1.57125e-05 4.96192e-10 -7.26819e-10 -4.74897e-10 0 0 0 
7 2 1.06676e-06 3.71757e-05 6.112e-05 2.60148e-05 4.1387e-10 -8.82352e-10 2.23979e-10 0 0 0 
12 1 1.32773e-06 4.83161e-05 5.75948e-05 1.54487e-05 -5.81633e-11 8.15152e-10 -5.7632e-10 0 0 0 
37 1 1.08895e-06 4.83217e-05 4.42896e-05 2.44147e-05 -2.36051e-10 5.90632e-10 -7.71643e-10 0 0 0 
33 4 1.05544e-06 5.01675e-05 4.08058e-05 2.85118e-05 2.36051e-10 -5.90632e-10 7.71643e-10 0 0 0 
2 2 1.34395e-06 6.90599e-05 4.49121e-05 2.85873e-05 7.07367e-10 -3.45292e-10 6.1677e-10 0 0 0 
6 4 8.80801e-07 5.81124e-05 9.22015e-05 2.96214e-05 1.66758e-10 8.18172e-10 5.5026e-10 0 0 0 
10 4 9.37342e-07 4.92234e-05 4.83912e-05 3.47266e-05 0 0 1e-09 0 0 0 
11 4 9.30289e-07 6.11292e-05 3.89527e-05 3.84078e-05 3.66206e-10 -3.11795e-10 8.76743e-10 0 0 0 
38 1 1.36086e-06 4.43057e-05 5.30724e-05 6.72901e-07 0 0 1e-09 0 0 1.50524e-06 
39 2 1.15737e-06 4.02372e-05 5.89095e-05 5.64362e-06 -2.33756e-11 -1.2354e-11 9.9965e-10 0 0 0 
40 1 1.3378e-06 4.29189e-05 6.26232e-05 1.89737e-05 -7.40713e-10 6.71051e-10 -3.2173e-11 0 0 0 
41 1 1.08831e-06 3.9458e-05 5.96296e-05 1.29714e-05 -3.7143e-10 -2.29044e-10 8.99766e-10 0 0 0 
42 1 1.29113e-06 6.40541e-05 4.04285e-05 1.3206e-05 8.39742e-10 -5.4295e-10 6.19085e-12 0 0 0 
43 1 1.38067e-06 5.49609e-05 4.20549e-05 1.5984e-05 4.96192e-10 -7.26819e-10 -4.74897e-10 0 0 0 
44 4 1.00925e-06 5.26416e-05 4.7138e-05 9.6681e-06 -3.66504e-10 1.09144e-10 9.23993e-10 0 0 0 
45 4 9.38114e-07 5.56706e-05 4.6236e-05 3.06592e-06 -2.31821e-10 6.90355e-11 9.70306e-10 0 0 0 
46 4 9.22024e-07 3.80521e-05 6.33407e-05 4.76227e-06 9.8528e-10 -5.82466e-11 1.60719e-10 0 0 0 
47 4 8.98207e-07 5.36278e-05 4.71697e-05 1.31291e-05 -8.39742e-10 5.4295e-10 -6.19085e-12 0 0 0 
48 4 9.24671e-07 4.26141e-05 6.16979e-05 2.3077e-05 2.16829e-10 1.505e-10 9.64539e-10 0 0 0 
49 4 9.57144e-07 5.79502e-05 4.61107e-05 2.62706e-05 3.39332e-10 -1.02819e-10 9.3503e-10 0 0 0 
50 4 9.47402e-07 4.44707e-05 6.12173e-05 1.90411e-05 7.40713e-10 -6.71051e-10 3.2173e-11 0 0 0 
51 4 9.76389e-07 4.00936e-05 6.10244e-05 2.16789e-05 -3.34103e-10 1.76423e-10 9.25878e-10 0 0 0 
52 4 9.32551e-07 5.93398e-05 5.01933e-05 1.07573e-05 1.33987e-10 9.22608e-10 -3.6172e-10 0 0 0 
53 1 1.26492e-06 5.4894e-05 4.76206e-05 6.92334e-06 2.4554e-10 -7.44654e-10 6.20645e-10 0 0 0 
54 1 1.16806e-06 4.61936e-05 5.86303e-05 1.53173e-05 -4.89205e-12 8.27541e-12 9.99954e-10 0 0 0 
55 4 1.0146e-06 4.20578e-05 5.35964e-05 3.73015e-06 -9.68854e-10 -2.93004e-11 -2.45894e-10 0 0 0 
56 4 9.79862e-07 4.68382e-05 6.00412e-05 1.39479e-05 -4.89205e-12 8.27541e-12 9.99954e-10 0 0 0 
57 4 9.3329e-07 5.36044e-05 4.17517e-05 1.46138e-05 4.96192e-10 -7.26819e-10 -4.74897e-10 0 0 0 
58 4 9.73669e-07 4.916e-05 5.78957e-05 1.62082e-05 -5.81633e-11 8.15152e-10 -5.7632e-10 0 0 0 
59 4 1.05402e-06 4.80756e-05 4.84e-05 2.49251e-05 -2.331e-10 9.29962e-10 -2.84316e-10 0 0 0 
60 4 1.00897e-06 4.38441e-05 5.26444e-05 5.64159e-06 0 0 1e-09 0 0 0 
61 4 1.05036e-06 5.44465e-05 4.26785e-05 1.50489e-05 4.96192e-10 -7.26819e-10 -4.74897e-10 0 0 0 
62 4 8.2846e-07 4.70873e-05 5.90185e-05 1.56601e-05 -4.89205e-12 8.27541e-12 9.99954e-10 0 0 0 
63 1 1.22556e-06 5.02958e-05 4.97276e-05 9.969e-07 -7.6305e-10 5.42688e-10 -3.51063e-10 0 0 0 
64 1 1.14329e-06 5.87822e-05 4.69214e-05 2.59702e-05 3.39332e-10 -1.02819e-10 9.3503e-10 0 0 0 
65 2 1.18454e-06 3.54429e-05 6.48143e-05 2.5077e-05 -4.1387e-10 8.82352e-10 -2.23979e-10 0 0 0 
66 1 1.2465e-06 4.9491e-05 4.37972e-05 2.40834e-05 -2.36051e-10 5.90632e-10 -7.71643e-10 0 0 0 
67 1 1.20044e-06 4.06155e-05 6.03434e-05 1.01673e-05 3.7143e-10 2.29044e-10 -8.99766e-10 0 0 0 
68 4 8.92902e-07 5.2032e-05 4.97185e-05 4.02791e-06 -6.66696e-10 4.09857e-10 -6.22522e-10 0 0 0 
69 4 9.45669e-07 5.42965e-05 4.67341e-05 7.23829e-06 5.68174e-10 -7.58738e-10 3.18582e-10 0 0 0 
ITEM: TIMESTEP
5500
ITEM: NUMBER OF ATOMS
98
ITEM: BOX BOUNDS ff ff ff
0 0.0001
0 0.0001
0 0.0001
ITEM: ATOMS id type diameter x y z vx vy vz fx fy fz 
63 1 1.38009e-06 4.97928e-05 5.00851e-05 6.81883e-07 4.13913e-95 -3.04791e-95 1e-09 6.75848e-92 -4.97671e-92 1.63283e-06 
36 1 1.27304e-06 4.87231e-05 5.08728e-05 6.27768e-07 -4.76542e-99 3.50909e-99 1e-09 -8.3427e-96 6.14328e-96 1.75068e-06 
38 1 1.21178e-06 4.44893e-05 5.2799e-05 6.01555e-07 0 0 1e-09 0 0 8.66916e-07 
5 5 1.4839e-06 8.26155e-05 4.85769e-06 2e-06 5.59401e-10 -8.28897e-10 0 0 0 0 
21 2 1.34571e-06 6.75322e-05 6.74387e-05 3.09792e-06 -3.77473e-10 -5.43897e-11 9.24422e-10 0 0 0 
4 4 1.01656e-06 1.94633e-05 9.59567e-05 2e-06 -5.40667e-10 8.41236e-10 0 0 0 0 
27 4 8.80997e-07 4.59828e-05 5.87175e-05 2.88625e-06 -3.73533e-10 1.97244e-10 9.06404e-10 0 0 0 
8 4 9.58045e-07 2.33852e-05 9.09876e-05 2.94085e-06 -5.27465e-10 8.48283e-10 4.6865e-11 0 0 0 
45 4 9.35042e-07 5.45115e-05 4.65812e-05 7.91745e-06 -2.31821e-10 6.90355e-11 9.70306e-10 0 0 0 
19 1 1.11651e-06 5.92163e-05 5.77691e-05 1.86494e-06 3.4936e-10 9.24494e-10 -1.52509e-10 0 0 0 
32 4 8.90147e-07 4.72781e-05 4.03543e-05 4.81859e-06 4.46021e-11 -9.75883e-10 2.13689e-10 0 0 0 
55 4 1.01128e-06 3.72135e-05 5.34499e-05 2.50068e-06 -9.68854e-10 -2.93004e-11 -2.45894e-10 0 0 0 
68 4 8.89979e-07 4.95255e-05 5.18755e-05 1.91442e-06 4.35956e-10 5.53501e-10 7.09633e-10 0 0 0 
31 4 9.80099e-07 4.68289e-05 5.13715e-05 7.4e-06 5.87939e-10 -5.88758e-10 5.547e-10 0 0 0 
23 1 1.10654e-06 3.33475e-05 6.31189e-05 5.05676e-06 5.97802e-10 -2.4179e-10 7.6431e-10 0 0 0 
46 4 9.19005e-07 4.29785e-05 6.30495e-05 5.56587e-06 9.8528e-10 -5.82466e-11 1.60719e-10 0 0 0 
20 1 1.28575e-06 5.3095e-05 5.30764e-05 2.37613e-06 -2.4554e-10 7.44654e-10 -6.20645e-10 0 0 0 
60 4 1.00567e-06 4.38441e-05 5.26444e-05 1.06416e-05 0 0 1e-09 0 0 0 
35 4 8.28639e-07 5.53765e-05 5.39992e-05 7.11042e-06 9.68854e-10 2.93004e-11 2.45894e-10 0 0 0 
39 2 1.22219e-06 4.01204e-05 5.88477e-05 1.06419e-05 -2.33756e-11 -1.2354e-11 9.9965e-10 0 0 0 
14 4 9.41317e-07 4.79688e-05 5.00927e-05 9.03896e-06 -3.97359e-10 7.31036e-10 5.547e-10 0 0 0 
53 1 1.13943e-06 5.71286e-05 5.21328e-05 5.56607e-06 5.29146e-10 8.03022e-10 -2.74153e-10 0 0 0 
25 4 1.0073e-06 3.96021e-05 3.5815e-05 5.56019e-06 -6.59209e-10 -6.77557e-10 -3.26129e-10 0 0 0 
69 4 9.42573e-07 5.16947e-05 4.27207e-05 8.61084e-06 -5.29146e-10 -8.03022e-10 2.74153e-10 0 0 0 
28 4 9.01382e-07 4.37087e-05 7.55013e-05 6.16091e-06 2.72758e-10 8.88675e-10 -3.68592e-10 0 0 0 
1 1 1.22405e-06 4.42582e-05 5.39023e-05 1.37738e-05 0 0 1e-09 0 0 0 
44 4 1.00595e-06 5.08091e-05 4.76837e-05 1.42881e-05 -3.66504e-10 1.09144e-10 9.23993e-10 0 0 0 
16 2 1.31542e-06 3.99768e-05 5.33783e-05 7.62647e-06 -3.53157e-11 -8.89998e-10 -4.54594e-10 0 0 0 
70 3 1.20728e-06 1.97293e-05 6.90259e-05 5.39305e-06 6.31829e-12 -4.06703e-11 -9.99153e-10 0 0 0 
67 1 1.35181e-06 4.24727e-05 6.14886e-05 5.66852e-06 3.7143e-10 2.29044e-10 -8.99766e-10 0 0 0 
52 4 9.29498e-07 6.00098e-05 5.48063e-05 8.94873e-06 1.33987e-10 9.22608e-10 -3.6172e-10 0 0 0 
22 3 1.07036e-06 1.9666e-05 6.94331e-05 1.5397e-05 -6.31829e-12 4.06703e-11 9.99153e-10 0 0 0 
30 1 1.39339e-06 4.7472e-05 4.06539e-05 1.06262e-05 -9.35842e-10 -2.81206e-10 -2.1242e-10 0 0 0 
17 4 1.0828e-06 4.35465e-05 2.53403e-05 1.38157e-05 -8.94144e-11 -9.34594e-10 3.44296e-10 0 0 0 
26 4 1.02681e-06 3.90795e-05 6.35715e-05 1.21023e-05 -6.95963e-10 7.18065e-10 -4.24585e-12 0 0 0 
3 3 1.27561e-06 2.66415e-05 7.1906e-05 1.61765e-05 -5.68293e-10 -2.18938e-10 7.93164e-10 0 0 0 
41 1 1.22554e-06 3.76009e-05 5.84843e-05 1.74702e-05 -3.7143e-10 -2.29044e-10 8.99766e-10 0 0 0 
42 1 1.07719e-06 6.84014e-05 3.76876e-05 1.25927e-05 8.39742e-10 -5.4295e-10 6.19085e-12 0 0 0 
47 4 8.95267e-07 4.94291e-05 4.98845e-05 1.30982e-05 -8.39742e-10 5.4295e-10 -6.19085e-12 0 0 0 
56 4 9.76654e-07 4.77925e-05 6.02058e-05 1.21268e-05 2.7635e-10 4.37076e-11 -9.60063e-10 0 0 0 
15 4 9.21102e-07 7.2933e-05 4.30606e-05 1.71325e-05 7.96298e-10 -2.41282e-10 5.547e-10 0 0 0 
57 4 9.30234e-07 5.60853e-05 3.81176e-05 1.22393e-05 4.96192e-10 -7.26819e-10 -4.74897e-10 0 0 0 
61 4 1.04692e-06 5.3759e-05 4.67882e-05 1.23108e-05 -1.39428e-10 8.24994e-10 -5.47672e-10 0 0 0 
12 1 1.14926e-06 4.60523e-05 5.84806e-05 1.25012e-05 -7.18471e-10 -2.56192e-10 -6.46657e-10 0 0 0 
54 1 1.31534e-06 4.40011e-05 5.77037e-05 1.69609e-05 -8.65229e-10 -3.75821e-10 -3.3187e-10 0 0 0 
29 1 1.21193e-06 4.55177e-05 5.93788e-05 2.04856e-05 -2.7635e-10 -4.37076e-11 9.60063e-10 0 0 0 
34 4 9.37143e-07 4.2652e-05 3.60803e-05 1.37486e-05 -4.26843e-10 -8.02645e-10 -4.16613e-10 0 0 0 
24 1 1.38349e-06 4.86729e-05 4.13836e-05 1.6368e-05 -9.87901e-10 -8.11043e-11 1.32188e-10 0 0 0 
43 1 1.19175e-06 5.13201e-05 4.1287e-05 1.23945e-05 -7.32608e-10 -1.26658e-10 -6.68762e-10 0 0 0 
62 4 8.25748e-07 4.92556e-05 5.99861e-05 1.89763e-05 8.65229e-10 3.75821e-10 3.3187e-10 0 0 0 