ITEM: TIMESTEP
0
ITEM: NUMBER OF ATOMS
5
ITEM: BOX BOUNDS ff ff ff
0 0.0001
0 0.0001
0 0.0001
ITEM: ATOMS id type diameter x y z vx vy vz fx fy fz 
4 4 1.0539e-06 5e-05 5e-05 4.9e-05 0 0 0 0 0 -8.22e-06 
2 2 1.2839e-06 5e-05 4.9e-05 5e-05 0 0 0 0 -3.122e-05 0 
3 3 1.0283e-06 5e-05 5e-05 5e-05 0 0 0 0 2e-05 -4.3e-05 
1 1 1.0839e-06 5e-05 5.1e-05 5e-05 0 0 0 0 1.122e-05 0 
5 5 1.4839e-06 5e-05 5e-05 5.1e-05 0 0 0 0 0 5.122e-05 
ITEM: TIMESTEP
2000
ITEM: NUMBER OF ATOMS
6
ITEM: BOX BOUNDS ff ff ff
0 0.0001
0 0.0001
0 0.0001
ITEM: ATOMS id type diameter x y z vx vy vz fx fy fz 
4 4 1.0539e-06 4.99954e-05 4.99521e-05 4.87955e-05 -9.46547e-14 -9.02726e-13 -1.05126e-12 -9.46547e-15 -9.02726e-14 -1.05126e-13 
3 3 1.0283e-06 4.99015e-05 4.98509e-05 4.99693e-05 -2.40963e-13 -1.25434e-12 5.45519e-13 -6.85784e-07 -3.56986e-06 1.55256e-06 
2 2 1.2839e-06 5.00032e-05 4.86806e-05 5.00176e-05 -1.20158e-13 1.3825e-12 -5.71512e-14 -1.20158e-14 1.3825e-13 -5.71512e-15 
1 1 1.20404e-06 5.00917e-05 5.08411e-05 4.95386e-05 2.40963e-13 1.25434e-12 -5.45519e-13 6.85784e-07 3.56986e-06 -1.55256e-06 
5 5 1.4839e-06 5.00007e-05 4.99989e-05 5.12198e-05 1.07751e-13 1.7237e-13 1.37393e-12 1.07751e-14 1.7237e-14 1.37393e-13 
6 1 1.1346e-06 4.99415e-05 5.18771e-05 5.03797e-05 0 -1.38106e-12 -1.47226e-13 0 -1.38106e-13 -1.47226e-14 
ITEM: TIMESTEP
4000
ITEM: NUMBER OF ATOMS
8
ITEM: BOX BOUNDS ff ff ff
0 0.0001
0 0.0001
0 0.0001
ITEM: ATOMS id type diameter x y z vx vy vz fx fy fz 
4 4 1.0539e-06 4.99911e-05 4.99361e-05 4.87844e-05 3.20299e-13 1.11245e-12 7.67385e-13 3.20299e-14 1.11245e-13 7.67385e-14 
7 1 1.30734e-06 4.99573e-05 5.14538e-05 4.90244e-05 3.49396e-13 -9.64237e-13 -9.3658e-13 3.49396e-14 -9.64237e-14 -9.3658e-14 
3 3 1.0283e-06 4.97559e-05 4.98137e-05 4.99845e-05 1.16708e-12 7.39637e-13 -1.40932e-13 1.16708e-13 7.39637e-14 -1.40932e-14 
1 1 1.29252e-06 5.07418e-05 5.04385e-05 4.98655e-05 8.66212e-13 -8.44333e-13 -6.82488e-13 1.54662e-06 -1.50755e-06 -1.21858e-06 
2 2 1.2839e-06 5.00039e-05 4.86807e-05 5.00176e-05 2.85904e-13 -1.35854e-12 4.06562e-14 2.85904e-14 -1.35854e-13 4.06562e-15 
6 1 1.27187e-06 4.98724e-05 5.26533e-05 5.03219e-05 -3.49396e-13 9.64237e-13 9.3658e-13 -3.49396e-14 9.64237e-14 9.3658e-14 
5 5 1.4839e-06 5.00007e-05 4.99989e-05 5.12198e-05 1.66992e-13 1.78097e-13 1.36726e-12 1.66992e-14 1.78097e-14 1.36726e-13 
8 1 1.17424e-06 4.99803e-05 5.11807e-05 5.04654e-05 -8.66212e-13 8.44333e-13 6.82488e-13 -1.54662e-06 1.50755e-06 1.21858e-06 
