ITEM: TIMESTEP
0
ITEM: NUMBER OF ATOMS
5
ITEM: BOX BOUNDS ff ff ff
0 0.0001
0 0.0001
0 0.0001
ITEM: ATOMS id type diameter x y z vx vy vz fx fy fz 
2 2 1.2839e-06 5e-05 4.9e-05 2e-06 0 0 0 -7.678e-05 0 0 
5 5 1.4839e-06 5.1e-05 4.9e-05 2e-06 0 0 0 7.678e-05 -5.122e-05 0 
4 4 1.0539e-06 4.9e-05 5e-05 2e-06 0 0 0 0 0 0 
3 3 1.0283e-06 5.1e-05 5e-05 2e-06 0 0 0 0 5.122e-05 0 
1 1 1.0839e-06 5e-05 5.1e-05 2e-06 0 0 0 0 0 0 
