ITEM: TIMESTEP
0
ITEM: NUMBER OF ATOMS
5
ITEM: BOX BOUNDS ff ff ff
0 0.0001
0 0.0001
0 0.0001
ITEM: ATOMS id type diameter x y z vx vy vz fx fy fz 
2 2 1.2839e-06 5e-05 4.9e-05 2e-06 0 0 0 -7.678e-05 0 0 
5 5 1.4839e-06 5.1e-05 4.9e-05 2e-06 0 0 0 7.678e-05 -5.122e-05 0 
4 4 1.0539e-06 4.9e-05 5e-05 2e-06 0 0 0 0 0 0 
3 3 1.0283e-06 5.1e-05 5e-05 2e-06 0 0 0 0 5.122e-05 0 
1 1 1.0839e-06 5e-05 5.1e-05 2e-06 0 0 0 0 0 0 
ITEM: TIMESTEP
500
ITEM: NUMBER OF ATOMS
6
ITEM: BOX BOUNDS ff ff ff
0 0.0001
0 0.0001
0 0.0001
ITEM: ATOMS id type diameter x y z vx vy vz fx fy fz 
2 2 1.35581e-06 5.21338e-05 4.5124e-05 2e-06 5.40667e-10 -8.41236e-10 0 0 0 0 
5 5 1.4839e-06 5.46454e-05 4.63025e-05 2e-06 5.59401e-10 -8.28897e-10 0 0 0 0 
4 4 1.05045e-06 4.64967e-05 5.38949e-05 2e-06 -5.40667e-10 8.41236e-10 0 0 0 0 
3 3 1.07736e-06 5.05591e-05 5.23574e-05 2e-06 -5.59401e-10 8.28897e-10 0 0 0 0 
1 1 1.22057e-06 4.93531e-05 4.92253e-05 6.17895e-07 0 0 -1e-09 0 0 -1.91578e-22 
6 4 9.07185e-07 5.06083e-05 5.53838e-05 4.85974e-06 1.66758e-10 8.18172e-10 5.5026e-10 0 0 0 
ITEM: TIMESTEP
1000
ITEM: NUMBER OF ATOMS
8
ITEM: BOX BOUNDS ff ff ff
0 0.0001
0 0.0001
0 0.0001
ITEM: ATOMS id type diameter x y z vx vy vz fx fy fz 
2 2 1.05921e-06 5.31479e-05 4.30748e-05 2.40285e-06 -7.82675e-11 2.86011e-10 9.55025e-10 0 0 0 
5 5 1.4839e-06 5.74424e-05 4.21581e-05 2e-06 5.59401e-10 -8.28897e-10 0 0 0 0 
4 4 1.04701e-06 4.37934e-05 5.81011e-05 2e-06 -5.40667e-10 8.41236e-10 0 0 0 0 
3 3 1.12876e-06 4.77621e-05 5.65019e-05 2e-06 -5.59401e-10 8.28897e-10 0 0 0 0 
1 1 1.37448e-06 4.94007e-05 4.91488e-05 6.7939e-07 0 0 1e-09 0 0 1.57027e-06 
6 4 9.04215e-07 5.14421e-05 5.94746e-05 7.61103e-06 1.66758e-10 8.18172e-10 5.5026e-10 0 0 0 
7 2 1.2043e-06 5.21676e-05 4.6657e-05 4.962e-06 -1.83434e-10 6.70316e-10 7.19047e-10 0 0 0 
8 4 9.86742e-07 4.71211e-05 5.28148e-05 8.31923e-07 -5.27465e-10 8.48283e-10 4.6865e-11 0 0 0 
ITEM: TIMESTEP
1500
ITEM: NUMBER OF ATOMS
9
ITEM: BOX BOUNDS ff ff ff
0 0.0001
0 0.0001
0 0.0001
ITEM: ATOMS id type diameter x y z vx vy vz fx fy fz 
1 1 1.20586e-06 4.96068e-05 4.87852e-05 5.98245e-07 0 0 1e-09 0 0 9.36572e-07 
8 4 9.83512e-07 4.44838e-05 5.70562e-05 1.06625e-06 -5.27465e-10 8.48283e-10 4.6865e-11 0 0 0 
9 1 1.25031e-06 4.73027e-05 5.28495e-05 4.3839e-06 -3.83179e-10 6.75898e-10 6.29552e-10 0 0 0 
5 5 1.4839e-06 6.02394e-05 3.80136e-05 2e-06 5.59401e-10 -8.28897e-10 0 0 0 0 
2 2 1.11854e-06 5.27565e-05 4.45049e-05 7.17797e-06 -7.82675e-11 2.86011e-10 9.55025e-10 0 0 0 
3 3 1.18261e-06 4.49651e-05 6.06464e-05 2e-06 -5.59401e-10 8.28897e-10 0 0 0 0 
4 4 1.04358e-06 4.109e-05 6.23073e-05 2e-06 -5.40667e-10 8.41236e-10 0 0 0 0 
7 2 1.27176e-06 5.12504e-05 5.00086e-05 8.55723e-06 -1.83434e-10 6.70316e-10 7.19047e-10 0 0 0 
6 4 9.01254e-07 5.22759e-05 6.35655e-05 1.03623e-05 1.66758e-10 8.18172e-10 5.5026e-10 0 0 0 
ITEM: TIMESTEP
2000
ITEM: NUMBER OF ATOMS
11
ITEM: BOX BOUNDS ff ff ff
0 0.0001
0 0.0001
0 0.0001
ITEM: ATOMS id type diameter x y z vx vy vz fx fy fz 
1 1 1.35791e-06 4.96068e-05 4.87852e-05 6.78245e-07 0 0 1e-09 0 0 1.41777e-07 
8 4 9.80292e-07 4.18465e-05 6.12976e-05 1.30057e-06 -5.27465e-10 8.48283e-10 4.6865e-11 0 0 0 
9 1 1.40797e-06 4.53868e-05 5.6229e-05 7.53166e-06 -3.83179e-10 6.75898e-10 6.29552e-10 0 0 0 
5 5 1.4839e-06 6.30364e-05 3.38691e-05 2e-06 5.59401e-10 -8.28897e-10 0 0 0 0 
2 2 1.18119e-06 5.23652e-05 4.59349e-05 1.19531e-05 -7.82675e-11 2.86011e-10 9.55025e-10 0 0 0 
3 3 1.23903e-06 4.21681e-05 6.47909e-05 2e-06 -5.59401e-10 8.28897e-10 0 0 0 0 
4 4 1.04017e-06 3.83867e-05 6.65135e-05 2e-06 -5.40667e-10 8.41236e-10 0 0 0 0 
7 2 1.34299e-06 5.03333e-05 5.33602e-05 1.21525e-05 -1.83434e-10 6.70316e-10 7.19047e-10 0 0 0 
6 4 8.98304e-07 5.31096e-05 6.76564e-05 1.31136e-05 1.66758e-10 8.18172e-10 5.5026e-10 0 0 0 
10 4 9.33059e-07 4.9708e-05 4.76048e-05 4.2144e-06 0 0 1e-09 0 0 0 
11 4 9.71209e-07 4.58575e-05 5.58282e-05 8.599e-06 -3.83179e-10 6.75898e-10 6.29552e-10 0 0 0 
ITEM: TIMESTEP
2500
ITEM: NUMBER OF ATOMS
16
ITEM: BOX BOUNDS ff ff ff
0 0.0001
0 0.0001
0 0.0001
ITEM: ATOMS id type diameter x y z vx vy vz fx fy fz 
1 1 1.13523e-06 4.85357e-05 4.66164e-05 3.38626e-06 -3.17672e-10 -6.43204e-10 6.96687e-10 0 0 0 
8 4 9.77082e-07 3.92091e-05 6.55391e-05 1.5349e-06 -5.27465e-10 8.48283e-10 4.6865e-11 0 0 0 
5 5 1.4839e-06 6.58334e-05 2.97246e-05 2e-06 5.59401e-10 -8.28897e-10 0 0 0 0 
3 3 1.29814e-06 3.93711e-05 6.89353e-05 2e-06 -5.59401e-10 8.28897e-10 0 0 0 0 
4 4 1.03676e-06 3.56834e-05 7.07197e-05 2e-06 -5.40667e-10 8.41236e-10 0 0 0 0 
10 4 9.30005e-07 4.9708e-05 4.76048e-05 9.2144e-06 0 0 1e-09 0 0 0 
12 1 1.18352e-06 4.29492e-05 5.92563e-05 1.05648e-05 -3.83179e-10 6.75898e-10 6.29552e-10 0 0 0 
9 1 1.32533e-06 4.40551e-05 6.00029e-05 1.08077e-05 -3.83179e-10 6.75898e-10 6.29552e-10 0 0 0 
11 4 9.6803e-07 4.39416e-05 5.92076e-05 1.17468e-05 -3.83179e-10 6.75898e-10 6.29552e-10 0 0 0 
2 2 1.24735e-06 5.19739e-05 4.7365e-05 1.67282e-05 -7.82675e-11 2.86011e-10 9.55025e-10 0 0 0 
7 2 1.06289e-06 5.02513e-05 5.49356e-05 1.08877e-05 1.2082e-10 -2.4071e-11 -9.92383e-10 0 0 0 
6 4 8.95363e-07 5.39434e-05 7.17472e-05 1.58649e-05 1.66758e-10 8.18172e-10 5.5026e-10 0 0 0 
13 1 1.28311e-06 5.01427e-05 4.90602e-05 1.54033e-06 3.45845e-10 -1.04792e-10 9.32422e-10 0 0 0 
14 2 1.18208e-06 4.95057e-05 5.50842e-05 1.70125e-05 -1.2082e-10 2.4071e-11 9.92383e-10 0 0 0 
15 4 9.14351e-07 4.77705e-05 4.69899e-05 2.71908e-06 -3.17672e-10 -6.43204e-10 6.96687e-10 0 0 0 
16 4 9.33621e-07 4.97725e-05 4.91724e-05 4.99945e-07 6.01231e-10 -1.82176e-10 7.78032e-10 0 0 0 
ITEM: TIMESTEP
3000
ITEM: NUMBER OF ATOMS
20
ITEM: BOX BOUNDS ff ff ff
0 0.0001
0 0.0001
0 0.0001
ITEM: ATOMS id type diameter x y z vx vy vz fx fy fz 
1 1 1.27838e-06 4.78596e-05 4.36655e-05 6.79857e-06 7.07367e-10 -3.45292e-10 6.1677e-10 0 0 0 
8 4 9.73884e-07 3.65718e-05 6.97805e-05 1.76922e-06 -5.27465e-10 8.48283e-10 4.6865e-11 0 0 0 
5 5 1.4839e-06 6.86304e-05 2.55801e-05 2e-06 5.59401e-10 -8.28897e-10 0 0 0 0 
3 3 1.36007e-06 3.65741e-05 7.30798e-05 2e-06 -5.59401e-10 8.28897e-10 0 0 0 0 
4 4 1.03337e-06 3.298e-05 7.49258e-05 2e-06 -5.40667e-10 8.41236e-10 0 0 0 0 
10 4 9.2696e-07 4.9708e-05 4.76048e-05 1.42144e-05 0 0 1e-09 0 0 0 
12 1 1.33276e-06 4.10333e-05 6.26358e-05 1.37126e-05 -3.83179e-10 6.75898e-10 6.29552e-10 0 0 0 
9 1 1.1443e-06 4.35754e-05 6.23936e-05 1.48844e-05 3.0679e-10 5.86829e-11 9.49967e-10 0 0 0 
11 4 9.6486e-07 4.23335e-05 5.94211e-05 1.43031e-05 -2.28534e-10 -9.15052e-10 3.32343e-10 0 0 0 
2 2 1.31722e-06 5.15825e-05 4.8795e-05 2.15033e-05 -7.82675e-11 2.86011e-10 9.55025e-10 0 0 0 
7 2 1.12242e-06 5.08554e-05 5.48152e-05 5.92577e-06 1.2082e-10 -2.4071e-11 -9.92383e-10 0 0 0 
6 4 8.92431e-07 5.47772e-05 7.58381e-05 1.86162e-05 1.66758e-10 8.18172e-10 5.5026e-10 0 0 0 
13 1 1.13243e-06 5.1868e-05 4.81649e-05 5.66085e-06 3.45845e-10 -1.04792e-10 9.32422e-10 0 0 0 
14 2 1.24829e-06 4.89016e-05 5.52045e-05 2.19744e-05 -1.2082e-10 2.4071e-11 9.92383e-10 0 0 0 
15 4 9.11357e-07 4.58353e-05 4.46537e-05 5.03354e-06 -7.07367e-10 3.45292e-10 -6.1677e-10 0 0 0 
16 4 9.30564e-07 5.27786e-05 4.82615e-05 4.3901e-06 6.01231e-10 -1.82176e-10 7.78032e-10 0 0 0 
17 4 1.02375e-06 4.09261e-05 6.15149e-05 1.41255e-05 -3.83179e-10 6.75898e-10 6.29552e-10 0 0 0 
18 4 1.01947e-06 4.31691e-05 6.35308e-05 1.31592e-05 -3.83179e-10 6.75898e-10 6.29552e-10 0 0 0 
19 1 1.22224e-06 4.21789e-05 6.21265e-05 1.056e-05 -3.0679e-10 -5.86829e-11 -9.49967e-10 0 0 0 
20 1 1.16085e-06 5.1876e-05 4.89168e-05 6.75761e-06 3.45845e-10 -1.04792e-10 9.32422e-10 0 0 0 
ITEM: TIMESTEP
3500
ITEM: NUMBER OF ATOMS
28
ITEM: BOX BOUNDS ff ff ff
0 0.0001
0 0.0001
0 0.0001
ITEM: ATOMS id type diameter x y z vx vy vz fx fy fz 
8 4 9.70695e-07 3.39345e-05 7.40219e-05 2.00355e-06 -5.27465e-10 8.48283e-10 4.6865e-11 0 0 0 
5 5 1.4839e-06 7.14274e-05 2.14356e-05 2e-06 5.59401e-10 -8.28897e-10 0 0 0 0 
3 3 1.1733e-06 3.44715e-05 7.58751e-05 1.52551e-06 2.87571e-10 -2.91004e-10 9.1248e-10 0 0 0 
4 4 1.02998e-06 3.02767e-05 7.9132e-05 2e-06 -5.40667e-10 8.41236e-10 0 0 0 0 
16 4 9.27518e-07 5.57848e-05 4.73506e-05 8.28026e-06 6.01231e-10 -1.82176e-10 7.78032e-10 0 0 0 
15 4 9.08373e-07 4.22985e-05 4.63801e-05 1.94969e-06 -7.07367e-10 3.45292e-10 -6.1677e-10 0 0 0 
13 1 1.27522e-06 5.35972e-05 4.7641e-05 1.0323e-05 3.45845e-10 -1.04792e-10 9.32422e-10 0 0 0 
7 2 1.18529e-06 5.14595e-05 5.46949e-05 9.63861e-07 1.2082e-10 -2.4071e-11 -9.92383e-10 0 0 0 
1 1 1.09309e-06 5.15787e-05 4.22517e-05 9.31915e-06 7.07367e-10 -3.45292e-10 6.1677e-10 0 0 0 
20 1 1.30723e-06 5.36052e-05 4.83928e-05 1.14197e-05 3.45845e-10 -1.04792e-10 9.32422e-10 0 0 0 
19 1 1.37636e-06 4.06449e-05 6.18331e-05 5.81012e-06 -3.0679e-10 -5.86829e-11 -9.49967e-10 0 0 0 
18 4 1.01613e-06 4.12532e-05 6.69102e-05 1.6307e-05 -3.83179e-10 6.75898e-10 6.29552e-10 0 0 0 
12 1 1.20364e-06 4.05113e-05 6.67227e-05 1.38405e-05 8.94144e-11 9.34594e-10 -3.44296e-10 0 0 0 
10 4 9.23925e-07 4.9708e-05 4.76048e-05 1.92144e-05 0 0 1e-09 0 0 0 
11 4 9.61701e-07 4.11908e-05 5.48459e-05 1.59648e-05 -2.28534e-10 -9.15052e-10 3.32343e-10 0 0 0 
17 4 1.0204e-06 4.00853e-05 5.9e-05 1.62292e-05 -8.94144e-11 -9.34594e-10 3.44296e-10 0 0 0 
9 1 1.28859e-06 4.51094e-05 6.2687e-05 1.96342e-05 3.0679e-10 5.86829e-11 9.49967e-10 0 0 0 
6 4 8.8951e-07 5.5611e-05 7.99289e-05 2.13675e-05 1.66758e-10 8.18172e-10 5.5026e-10 0 0 0 
2 2 1.16427e-06 5.06678e-05 5.09088e-05 2.52842e-05 -5.05606e-10 7.49252e-10 -4.27766e-10 0 0 0 
14 2 1.31821e-06 4.82975e-05 5.53249e-05 2.69363e-05 -1.2082e-10 2.4071e-11 9.92383e-10 0 0 0 
21 3 1.08525e-06 3.66246e-05 7.36963e-05 4.13544e-06 4.92045e-10 -4.97919e-10 7.1412e-10 0 0 0 
22 1 1.17848e-06 4.11759e-05 6.71965e-05 1.2763e-05 8.94144e-11 9.34594e-10 -3.44296e-10 0 0 0 
23 1 1.18814e-06 5.11983e-05 4.15993e-05 1.04947e-05 7.07367e-10 -3.45292e-10 6.1677e-10 0 0 0 
24 2 1.03639e-06 5.17669e-05 4.92801e-05 2.62141e-05 5.05606e-10 -7.49252e-10 4.27766e-10 0 0 0 
25 4 1.04959e-06 5.25737e-05 4.72467e-05 1.0881e-05 3.45845e-10 -1.04792e-10 9.32422e-10 0 0 0 
26 4 1.00453e-06 5.27736e-05 4.9245e-05 1.10592e-05 3.45845e-10 -1.04792e-10 9.32422e-10 0 0 0 
27 4 1.01852e-06 4.10959e-05 6.15748e-05 4.62697e-06 -3.0679e-10 -5.86829e-11 -9.49967e-10 0 0 0 
28 4 1.0019e-06 4.45771e-05 6.36205e-05 1.90502e-05 3.0679e-10 5.86829e-11 9.49967e-10 0 0 0 
ITEM: TIMESTEP
4000
ITEM: NUMBER OF ATOMS
36
ITEM: BOX BOUNDS ff ff ff
0 0.0001
0 0.0001
0 0.0001
ITEM: ATOMS id type diameter x y z vx vy vz fx fy fz 
8 4 9.67517e-07 3.12972e-05 7.82633e-05 2.23787e-06 -5.27465e-10 8.48283e-10 4.6865e-11 0 0 0 
5 5 1.4839e-06 7.42244e-05 1.72911e-05 2e-06 5.59401e-10 -8.28897e-10 0 0 0 0 
3 3 1.22927e-06 3.59093e-05 7.44201e-05 6.08791e-06 2.87571e-10 -2.91004e-10 9.1248e-10 0 0 0 
4 4 1.02661e-06 2.75734e-05 8.33382e-05 2e-06 -5.40667e-10 8.41236e-10 0 0 0 0 
16 4 9.24481e-07 5.87909e-05 4.64397e-05 1.21704e-05 6.01231e-10 -1.82176e-10 7.78032e-10 0 0 0 
15 4 9.05399e-07 4.21168e-05 4.64688e-05 2.36899e-06 5.98128e-10 -2.91968e-10 7.46323e-10 0 0 0 
13 1 1.17374e-06 5.40009e-05 4.54053e-05 9.04629e-06 -6.0122e-12 -5.65429e-10 -8.24775e-10 0 0 0 
7 2 1.25169e-06 5.13147e-05 5.47238e-05 5.20266e-06 -4.12961e-11 8.22747e-12 9.99113e-10 0 0 0 
1 1 1.23092e-06 5.51155e-05 4.05252e-05 1.2403e-05 7.07367e-10 -3.45292e-10 6.1677e-10 0 0 0 
20 1 1.23503e-06 5.60756e-05 4.76891e-05 1.21035e-05 8.1399e-10 2.50702e-10 -5.23993e-10 0 0 0 
19 1 1.18448e-06 4.06984e-05 6.02615e-05 8.88408e-06 9.94159e-11 -3.53929e-10 9.29974e-10 0 0 0 
18 4 1.01281e-06 3.93373e-05 7.02897e-05 1.94548e-05 -3.83179e-10 6.75898e-10 6.29552e-10 0 0 0 
12 1 1.35542e-06 3.72877e-05 6.9472e-05 1.47883e-05 -8.30558e-10 4.52483e-10 3.24705e-10 0 0 0 
10 4 9.209e-07 4.9708e-05 4.76048e-05 2.42144e-05 0 0 1e-09 0 0 0 
11 4 9.58553e-07 4.00482e-05 5.02706e-05 1.76265e-05 -2.28534e-10 -9.15052e-10 3.32343e-10 0 0 0 
17 4 1.01706e-06 3.96383e-05 5.43271e-05 1.79507e-05 -8.94144e-11 -9.34594e-10 3.44296e-10 0 0 0 
9 1 1.20573e-06 4.65729e-05 6.24153e-05 2.39904e-05 3.0679e-10 5.86829e-11 9.49967e-10 0 0 0 
6 4 8.86597e-07 5.64448e-05 8.40198e-05 2.41188e-05 1.66758e-10 8.18172e-10 5.5026e-10 0 0 0 
2 2 1.22949e-06 4.81398e-05 5.46551e-05 2.31454e-05 -5.05606e-10 7.49252e-10 -4.27766e-10 0 0 0 
14 2 1.39205e-06 4.76934e-05 5.54452e-05 3.18982e-05 -1.2082e-10 2.4071e-11 9.92383e-10 0 0 0 
21 3 1.13703e-06 3.90848e-05 7.12067e-05 7.70604e-06 4.92045e-10 -4.97919e-10 7.1412e-10 0 0 0 
22 1 1.32708e-06 4.16229e-05 7.18694e-05 1.10415e-05 8.94144e-11 9.34594e-10 -3.44296e-10 0 0 0 
23 1 1.33796e-06 5.47352e-05 3.98728e-05 1.35785e-05 7.07367e-10 -3.45292e-10 6.1677e-10 0 0 0 
24 2 1.09444e-06 5.4295e-05 4.55338e-05 2.83529e-05 5.05606e-10 -7.49252e-10 4.27766e-10 0 0 0 
25 4 1.04616e-06 5.19949e-05 4.64323e-05 1.47304e-05 -8.1399e-10 -2.50702e-10 5.23993e-10 0 0 0 
26 4 1.00124e-06 5.07475e-05 5.15553e-05 1.12171e-05 -6.80211e-10 6.69599e-10 -2.98245e-10 0 0 0 
27 4 1.01519e-06 4.31468e-05 5.94877e-05 1.17044e-06 5.91661e-10 -5.08206e-10 -6.2583e-10 0 0 0 
28 4 9.98621e-07 4.61111e-05 6.39139e-05 2.38e-05 3.0679e-10 5.86829e-11 9.49967e-10 0 0 0 
29 1 1.27269e-06 3.98315e-05 6.33478e-05 7.1473e-07 -5.26092e-51 1.87293e-50 -1e-09 0 0 -9.64911e-23 
30 4 9.24875e-07 5.45414e-05 4.11002e-05 1.16584e-05 7.07367e-10 -3.45292e-10 6.1677e-10 0 0 0 
31 4 1.01646e-06 4.02528e-05 7.10117e-05 1.1223e-05 8.94144e-11 9.34594e-10 -3.44296e-10 0 0 0 
32 4 9.8837e-07 4.46298e-05 6.5472e-05 1.19179e-05 8.30558e-10 -4.52483e-10 -3.24705e-10 0 0 0 
33 4 9.73588e-07 5.42545e-05 3.89222e-05 1.30476e-05 7.07367e-10 -3.45292e-10 6.1677e-10 0 0 0 
34 1 1.10365e-06 5.40059e-05 4.53659e-05 7.74964e-06 -6.0122e-12 -5.65429e-10 -8.24775e-10 0 0 0 
35 1 1.09312e-06 5.7157e-05 4.58784e-05 1.3759e-05 6.80211e-10 -6.69599e-10 2.98245e-10 0 0 0 
36 1 1.09211e-06 4.67071e-05 6.34924e-05 2.47406e-05 3.0679e-10 5.86829e-11 9.49967e-10 0 0 0 
ITEM: TIMESTEP
4500
ITEM: NUMBER OF ATOMS
50
ITEM: BOX BOUNDS ff ff ff
0 0.0001
0 0.0001
0 0.0001
ITEM: ATOMS id type diameter x y z vx vy vz fx fy fz 
29 1 1.1191e-06 3.88211e-05 6.363e-05 1.97672e-06 -7.35916e-10 2.06259e-10 6.44892e-10 0 0 0 
27 4 1.01187e-06 4.12871e-05 6.10851e-05 2.69258e-06 -6.31176e-10 5.42148e-10 5.547e-10 0 0 0 
5 5 1.4839e-06 7.70214e-05 1.31467e-05 2e-06 5.59401e-10 -8.28897e-10 0 0 0 0 
15 4 9.02435e-07 4.51074e-05 4.5009e-05 6.10061e-06 5.98128e-10 -2.91968e-10 7.46323e-10 0 0 0 
8 4 9.64349e-07 2.86598e-05 8.25047e-05 2.4722e-06 -5.27465e-10 8.48283e-10 4.6865e-11 0 0 0 
4 4 1.02325e-06 2.487e-05 8.75444e-05 2e-06 -5.40667e-10 8.41236e-10 0 0 0 0 
7 2 1.3218e-06 5.11082e-05 5.47649e-05 1.01982e-05 -4.12961e-11 8.22747e-12 9.99113e-10 0 0 0 
3 3 1.28792e-06 3.73472e-05 7.29651e-05 1.06503e-05 2.87571e-10 -2.91004e-10 9.1248e-10 0 0 0 
34 1 1.24281e-06 5.39758e-05 4.25387e-05 3.62577e-06 -6.0122e-12 -5.65429e-10 -8.24775e-10 0 0 0 
21 3 1.19128e-06 4.1545e-05 6.87171e-05 1.12766e-05 4.92045e-10 -4.97919e-10 7.1412e-10 0 0 0 
19 1 1.33384e-06 4.11955e-05 5.84919e-05 1.35339e-05 9.94159e-11 -3.53929e-10 9.29974e-10 0 0 0 
13 1 1.32174e-06 5.33167e-05 4.37472e-05 6.15504e-06 -6.66768e-10 6.15438e-10 4.20304e-10 0 0 0 
26 4 9.97963e-07 4.73464e-05 5.49033e-05 9.72587e-06 -6.80211e-10 6.69599e-10 -2.98245e-10 0 0 0 
31 4 1.01313e-06 4.06999e-05 7.56846e-05 9.50156e-06 8.94144e-11 9.34594e-10 -3.44296e-10 0 0 0 
22 1 1.21291e-06 4.24673e-05 7.63e-05 8.81435e-06 8.94144e-11 9.34594e-10 -3.44296e-10 0 0 0 
30 4 9.21847e-07 5.39756e-05 4.22694e-05 1.04257e-05 -5.20958e-10 5.21684e-10 -6.75609e-10 0 0 0 
32 4 9.85134e-07 4.87826e-05 6.32096e-05 1.02944e-05 8.30558e-10 -4.52483e-10 -3.24705e-10 0 0 0 
1 1 1.38613e-06 5.71802e-05 4.1152e-05 1.10098e-05 2.41481e-10 4.46193e-10 -8.61742e-10 0 0 0 
16 4 9.21454e-07 6.17971e-05 4.55288e-05 1.60606e-05 6.01231e-10 -1.82176e-10 7.78032e-10 0 0 0 
20 1 1.39076e-06 6.01455e-05 4.89427e-05 9.48355e-06 8.1399e-10 2.50702e-10 -5.23993e-10 0 0 0 
33 4 9.704e-07 5.61447e-05 3.57903e-05 1.25646e-05 1.71437e-10 -8.09259e-10 -5.6188e-10 0 0 0 
23 1 1.26458e-06 5.49694e-05 4.13382e-05 1.64166e-05 -1.71437e-10 8.09259e-10 5.6188e-10 0 0 0 
35 1 1.23095e-06 6.0558e-05 4.25304e-05 1.52502e-05 6.80211e-10 -6.69599e-10 2.98245e-10 0 0 0 
25 4 1.04273e-06 4.79249e-05 4.51788e-05 1.73503e-05 -8.1399e-10 -2.50702e-10 5.23993e-10 0 0 0 
12 1 1.28514e-06 3.38219e-05 7.1743e-05 1.665e-05 -8.30558e-10 4.52483e-10 3.24705e-10 0 0 0 
11 4 9.55415e-07 3.89055e-05 4.56954e-05 1.92882e-05 -2.28534e-10 -9.15052e-10 3.32343e-10 0 0 0 
17 4 1.01373e-06 3.91912e-05 4.96541e-05 1.96722e-05 -8.94144e-11 -9.34594e-10 3.44296e-10 0 0 0 
18 4 1.00949e-06 3.74214e-05 7.36692e-05 2.26025e-05 -3.83179e-10 6.75898e-10 6.29552e-10 0 0 0 
2 2 1.29836e-06 4.56118e-05 5.84014e-05 2.10066e-05 -5.05606e-10 7.49252e-10 -4.27766e-10 0 0 0 
9 1 1.35776e-06 4.81069e-05 6.27087e-05 2.87402e-05 3.0679e-10 5.86829e-11 9.49967e-10 0 0 0 
28 4 9.95352e-07 4.7645e-05 6.42074e-05 2.85499e-05 3.0679e-10 5.86829e-11 9.49967e-10 0 0 0 
10 4 9.17885e-07 4.9708e-05 4.76048e-05 2.92144e-05 0 0 1e-09 0 0 0 
6 4 8.83695e-07 5.72786e-05 8.81107e-05 2.68701e-05 1.66758e-10 8.18172e-10 5.5026e-10 0 0 0 
36 1 1.22982e-06 4.8241e-05 6.37858e-05 2.94904e-05 3.0679e-10 5.86829e-11 9.49967e-10 0 0 0 
24 2 1.15574e-06 5.6823e-05 4.17876e-05 3.04918e-05 5.05606e-10 -7.49252e-10 4.27766e-10 0 0 0 
14 2 1.23959e-06 4.68483e-05 5.49181e-05 2.73146e-05 -1.53906e-10 -1.04912e-10 -9.825e-10 0 0 0 
37 2 1.08348e-06 4.84159e-05 5.59867e-05 3.73218e-05 1.53906e-10 1.04912e-10 9.825e-10 0 0 0 
38 1 1.15807e-06 4.16907e-05 7.67738e-05 9.80285e-06 8.94144e-11 9.34594e-10 -3.44296e-10 0 0 0 
39 1 1.11815e-06 5.78998e-05 4.18859e-05 1.62264e-05 3.9709e-10 8.00183e-10 4.49475e-10 0 0 0 
40 1 1.1275e-06 3.25321e-05 7.17269e-05 1.62029e-05 -8.30558e-10 4.52483e-10 3.24705e-10 0 0 0 
41 1 1.15534e-06 4.10376e-05 6.29932e-05 9.7725e-07 9.10205e-10 -2.73469e-10 3.11033e-10 0 0 0 
42 4 8.38771e-07 3.99153e-05 6.33303e-05 9.78896e-07 6.63964e-10 -1.99486e-10 7.20665e-10 0 0 0 
43 4 9.53239e-07 5.51134e-05 4.20888e-05 5.02243e-06 6.66768e-10 -6.15438e-10 -4.20304e-10 0 0 0 
44 4 1.09863e-06 4.11102e-05 5.73934e-05 1.28678e-05 9.94159e-11 -3.53929e-10 9.29974e-10 0 0 0 
45 4 1.02984e-06 5.59689e-05 4.34424e-05 6.45172e-06 7.66497e-10 3.81264e-10 5.16837e-10 0 0 0 
46 4 1.14059e-06 6.14378e-05 4.91876e-05 9.74089e-06 8.1399e-10 2.50702e-10 -5.23993e-10 0 0 0 
47 4 1.00351e-06 6.07049e-05 4.13971e-05 1.55633e-05 6.80211e-10 -6.69599e-10 2.98245e-10 0 0 0 
48 4 9.89204e-07 4.78172e-05 6.1492e-05 2.89682e-05 3.0679e-10 5.86829e-11 9.49967e-10 0 0 0 
49 4 9.83974e-07 4.91114e-05 6.29973e-05 2.95282e-05 3.0679e-10 5.86829e-11 9.49967e-10 0 0 0 
50 4 8.81823e-07 4.17712e-05 6.21406e-05 6.37421e-07 8.14013e-10 -5.79608e-10 -3.7899e-11 0 0 0 
ITEM: TIMESTEP
5000
ITEM: NUMBER OF ATOMS
66
ITEM: BOX BOUNDS ff ff ff
0 0.0001
0 0.0001
0 0.0001
ITEM: ATOMS id type diameter x y z vx vy vz fx fy fz 
29 1 1.26021e-06 3.51415e-05 6.46613e-05 5.20118e-06 -7.35916e-10 2.06259e-10 6.44892e-10 0 0 0 
27 4 1.00855e-06 3.81312e-05 6.37958e-05 5.46608e-06 -6.31176e-10 5.42148e-10 5.547e-10 0 0 0 
5 5 1.4839e-06 7.98184e-05 9.00217e-06 2e-06 5.59401e-10 -8.28897e-10 0 0 0 0 
15 4 8.99481e-07 4.8098e-05 4.35491e-05 9.83222e-06 5.98128e-10 -2.91968e-10 7.46323e-10 0 0 0 
8 4 9.61192e-07 2.60225e-05 8.67461e-05 2.70652e-06 -5.27465e-10 8.48283e-10 4.6865e-11 0 0 0 
4 4 1.0199e-06 2.21667e-05 9.17506e-05 2e-06 -5.40667e-10 8.41236e-10 0 0 0 0 
7 2 1.08162e-06 5.21435e-05 5.32112e-05 1.42885e-05 5.68665e-10 -7.63655e-10 3.05697e-10 0 0 0 
3 3 1.34936e-06 3.8785e-05 7.151e-05 1.52127e-05 2.87571e-10 -2.91004e-10 9.1248e-10 0 0 0 
34 1 1.39952e-06 5.39552e-05 4.0605e-05 7.05035e-07 0 0 -1e-09 0 0 -2.64248e-22 
21 3 1.24811e-06 4.40053e-05 6.62275e-05 1.48472e-05 4.92045e-10 -4.97919e-10 7.1412e-10 0 0 0 
19 1 1.14787e-06 4.1293e-05 5.63226e-05 1.8408e-05 9.94159e-11 -3.53929e-10 9.29974e-10 0 0 0 
13 1 1.1757e-06 4.97086e-05 4.6238e-05 8.43963e-06 -6.66768e-10 6.15438e-10 4.20304e-10 0 0 0 
26 4 9.94696e-07 4.39454e-05 5.82513e-05 8.23465e-06 -6.80211e-10 6.69599e-10 -2.98245e-10 0 0 0 
31 4 1.00981e-06 4.1147e-05 8.03576e-05 7.78008e-06 8.94144e-11 9.34594e-10 -3.44296e-10 0 0 0 
22 1 1.36585e-06 4.29144e-05 8.0973e-05 7.09287e-06 8.94144e-11 9.34594e-10 -3.44296e-10 0 0 0 
30 4 9.18829e-07 5.13708e-05 4.48779e-05 7.04765e-06 -5.20958e-10 5.21684e-10 -6.75609e-10 0 0 0 
32 4 9.81909e-07 5.29354e-05 6.09472e-05 8.67088e-06 8.30558e-10 -4.52483e-10 -3.24705e-10 0 0 0 
1 1 1.21186e-06 5.8268e-05 4.39457e-05 6.31229e-06 2.41481e-10 4.46193e-10 -8.61742e-10 0 0 0 
16 4 9.18437e-07 6.48032e-05 4.4618e-05 1.99507e-05 6.01231e-10 -1.82176e-10 7.78032e-10 0 0 0 
20 1 1.18561e-06 6.40553e-05 5.03927e-05 6.28886e-06 8.1399e-10 2.50702e-10 -5.23993e-10 0 0 0 
33 4 9.67223e-07 5.70019e-05 3.1744e-05 9.75521e-06 1.71437e-10 -8.09259e-10 -5.6188e-10 0 0 0 
23 1 1.42403e-06 5.41122e-05 4.53845e-05 1.9226e-05 -1.71437e-10 8.09259e-10 5.6188e-10 0 0 0 
35 1 1.38617e-06 6.35489e-05 4.00117e-05 1.64546e-05 -1.2399e-10 9.56466e-10 -2.64196e-10 0 0 0 
25 4 1.03932e-06 4.3855e-05 4.39253e-05 1.99703e-05 -8.1399e-10 -2.50702e-10 5.23993e-10 0 0 0 
12 1 1.10222e-06 2.93753e-05 7.44163e-05 1.87092e-05 -8.30558e-10 4.52483e-10 3.24705e-10 0 0 0 
11 4 9.52287e-07 3.77628e-05 4.11201e-05 2.09499e-05 -2.28534e-10 -9.15052e-10 3.32343e-10 0 0 0 
17 4 1.01041e-06 3.87441e-05 4.49811e-05 2.13936e-05 -8.94144e-11 -9.34594e-10 3.44296e-10 0 0 0 
18 4 1.00619e-06 3.55055e-05 7.70487e-05 2.57503e-05 -3.83179e-10 6.75898e-10 6.29552e-10 0 0 0 
2 2 1.37108e-06 4.30837e-05 6.21476e-05 1.88677e-05 -5.05606e-10 7.49252e-10 -4.27766e-10 0 0 0 
9 1 1.18341e-06 4.73354e-05 5.9573e-05 2.63693e-05 -2.35617e-10 -7.0292e-10 -6.71109e-10 0 0 0 
28 4 9.92093e-07 4.5848e-05 6.55132e-05 2.61679e-05 -5.11647e-10 3.07439e-10 -8.02308e-10 0 0 0 
10 4 9.1488e-07 4.9708e-05 4.76048e-05 3.42144e-05 0 0 1e-09 0 0 0 
6 4 8.80801e-07 5.81124e-05 9.22015e-05 2.96214e-05 1.66758e-10 8.18172e-10 5.5026e-10 0 0 0 
36 1 1.38489e-06 4.87742e-05 6.69223e-05 3.2985e-05 5.70037e-11 7.59598e-10 6.4789e-10 0 0 0 
24 2 1.22048e-06 5.9351e-05 3.80413e-05 3.26306e-05 5.05606e-10 -7.49252e-10 4.27766e-10 0 0 0 
14 2 1.30902e-06 4.60787e-05 5.43936e-05 2.24021e-05 -1.53906e-10 -1.04912e-10 -9.825e-10 0 0 0 
37 2 1.14417e-06 4.91854e-05 5.65113e-05 4.22343e-05 1.53906e-10 1.04912e-10 9.825e-10 0 0 0 
38 1 1.30409e-06 4.21377e-05 8.14468e-05 8.08137e-06 8.94144e-11 9.34594e-10 -3.44296e-10 0 0 0 
39 1 1.25914e-06 5.98853e-05 4.58868e-05 1.84737e-05 3.9709e-10 8.00183e-10 4.49475e-10 0 0 0 
40 1 1.26967e-06 2.83794e-05 7.39893e-05 1.78264e-05 -8.30558e-10 4.52483e-10 3.24705e-10 0 0 0 
41 1 1.30102e-06 4.55886e-05 6.16258e-05 2.53242e-06 9.10205e-10 -2.73469e-10 3.11033e-10 0 0 0 
42 4 8.36025e-07 4.32351e-05 6.23329e-05 4.58222e-06 6.63964e-10 -1.99486e-10 7.20665e-10 0 0 0 
43 4 9.50118e-07 5.84473e-05 3.90116e-05 2.92091e-06 6.66768e-10 -6.15438e-10 -4.20304e-10 0 0 0 
44 4 1.09504e-06 4.16072e-05 5.56237e-05 1.75177e-05 9.94159e-11 -3.53929e-10 9.29974e-10 0 0 0 
45 4 1.02647e-06 5.98013e-05 4.53488e-05 9.0359e-06 7.66497e-10 3.81264e-10 5.16837e-10 0 0 0 
46 4 1.13685e-06 6.55078e-05 5.04411e-05 7.12092e-06 8.1399e-10 2.50702e-10 -5.23993e-10 0 0 0 
47 4 1.00023e-06 6.38223e-05 3.79028e-05 1.70371e-05 1.2399e-10 -9.56466e-10 2.64196e-10 0 0 0 
48 4 9.85965e-07 4.78302e-05 5.94271e-05 3.32922e-05 -7.43883e-11 -5.32367e-10 8.43239e-10 0 0 0 
49 4 9.80753e-07 5.06454e-05 6.32907e-05 3.42781e-05 3.0679e-10 5.86829e-11 9.49967e-10 0 0 0 
50 4 8.78936e-07 4.58412e-05 5.92425e-05 4.47926e-07 8.14013e-10 -5.79608e-10 -3.7899e-11 0 0 0 
51 1 1.23338e-06 4.2122e-05 5.71516e-05 1.79429e-05 9.94159e-11 -3.53929e-10 9.29974e-10 0 0 0 
52 1 1.2648e-06 5.85123e-05 4.27956e-05 7.10692e-06 2.41481e-10 4.46193e-10 -8.61742e-10 0 0 0 
53 1 1.29559e-06 6.43905e-05 4.99814e-05 7.49163e-06 8.1399e-10 2.50702e-10 -5.23993e-10 0 0 0 
54 1 1.24225e-06 4.93622e-05 6.56197e-05 3.21423e-05 2.35617e-10 7.0292e-10 6.71109e-10 0 0 0 
55 4 9.06731e-07 5.7822e-05 4.48967e-05 6.07088e-06 2.41481e-10 4.46193e-10 -8.61742e-10 0 0 0 
56 4 1.08826e-06 5.52501e-05 4.49053e-05 1.89036e-05 -1.71437e-10 8.09259e-10 5.6188e-10 0 0 0 
57 4 9.47615e-07 6.01962e-05 4.5936e-05 1.73937e-05 3.9709e-10 8.00183e-10 4.49475e-10 0 0 0 
58 4 9.52528e-07 5.85195e-05 4.27498e-05 5.98158e-06 2.41481e-10 4.46193e-10 -8.61742e-10 0 0 0 
59 2 1.13294e-06 4.97728e-05 5.63948e-05 1.30141e-05 -5.68665e-10 7.63655e-10 -3.05697e-10 0 0 0 
60 1 1.18694e-06 5.02597e-05 4.74165e-05 8.07174e-06 -6.66768e-10 6.15438e-10 4.20304e-10 0 0 0 
61 1 1.19157e-06 2.99867e-05 7.35613e-05 1.78025e-05 -8.30558e-10 4.52483e-10 3.24705e-10 0 0 0 
62 4 1.07234e-06 4.38354e-05 8.13014e-05 7.92182e-06 8.94144e-11 9.34594e-10 -3.44296e-10 0 0 0 
63 4 8.40226e-07 2.91707e-05 7.4721e-05 1.96691e-05 -8.30558e-10 4.52483e-10 3.24705e-10 0 0 0 
64 4 1.03629e-06 4.16681e-05 8.10114e-05 9.12781e-06 8.94144e-11 9.34594e-10 -3.44296e-10 0 0 0 
65 4 1.02009e-06 2.78816e-05 7.45928e-05 1.69215e-05 -8.30558e-10 4.52483e-10 3.24705e-10 0 0 0 
66 4 8.88016e-07 3.09432e-05 7.39767e-05 1.81694e-05 -8.30558e-10 4.52483e-10 3.24705e-10 0 0 0 
ITEM: TIMESTEP
5500
ITEM: NUMBER OF ATOMS
100
ITEM: BOX BOUNDS ff ff ff
0 0.0001
0 0.0001
0 0.0001
ITEM: ATOMS id type diameter x y z vx vy vz fx fy fz 
50 4 8.76058e-07 4.27954e-05 6.14113e-05 3.08513e-06 -6.77787e-10 4.8261e-10 5.547e-10 0 0 0 
67 1 1.24818e-06 5.40785e-05 4.06492e-05 6.15366e-07 0 0 1e-09 0 0 1.74522e-06 
34 1 1.25354e-06 5.2572e-05 4.01086e-05 6.16887e-06 -2.58593e-10 -9.27893e-11 9.61519e-10 0 0 0 
5 5 1.4839e-06 8.26155e-05 4.85769e-06 2e-06 5.59401e-10 -8.28897e-10 0 0 0 0 
4 4 1.01656e-06 1.94633e-05 9.59567e-05 2e-06 -5.40667e-10 8.41236e-10 0 0 0 0 
43 4 9.47008e-07 6.17811e-05 3.59344e-05 8.1939e-07 6.66768e-10 -6.15438e-10 -4.20304e-10 0 0 0 
41 1 1.12733e-06 5.05302e-05 6.00211e-05 4.61637e-06 9.10205e-10 -2.73469e-10 3.11033e-10 0 0 0 
8 4 9.58045e-07 2.33852e-05 9.09876e-05 2.94085e-06 -5.27465e-10 8.48283e-10 4.6865e-11 0 0 0 
42 4 8.33288e-07 4.6555e-05 6.13355e-05 8.18554e-06 6.63964e-10 -1.99486e-10 7.20665e-10 0 0 0 
27 4 1.00525e-06 3.49754e-05 6.65066e-05 8.23958e-06 -6.31176e-10 5.42148e-10 5.547e-10 0 0 0 
29 1 1.06054e-06 3.2982e-05 6.54797e-05 7.8303e-06 7.86958e-10 5.77511e-10 2.17205e-10 0 0 0 
58 4 9.49409e-07 5.88309e-05 4.31258e-05 1.14933e-06 6.31829e-12 -4.06703e-11 -9.99153e-10 0 0 0 
1 1 1.36467e-06 6.01133e-05 4.1261e-05 6.02074e-06 4.1387e-10 -8.82352e-10 2.23979e-10 0 0 0 
55 4 9.03762e-07 5.66046e-05 4.87414e-05 4.1219e-06 -4.1387e-10 8.82352e-10 -2.23979e-10 0 0 0 
20 1 1.33511e-06 6.53887e-05 5.18054e-05 2.6681e-06 -2.54984e-10 3.12874e-10 -9.14928e-10 0 0 0 
68 1 1.21492e-06 4.00236e-05 8.0722e-05 2.50334e-06 -5.29818e-10 -6.3372e-11 -8.4574e-10 0 0 0 
52 1 1.19024e-06 5.92348e-05 4.338e-05 9.34406e-06 -6.31829e-12 4.06703e-11 9.99153e-10 0 0 0 
30 4 9.15821e-07 4.8766e-05 4.74863e-05 3.6696e-06 -5.20958e-10 5.21684e-10 -6.75609e-10 0 0 0 
53 1 1.14301e-06 6.6992e-05 4.96982e-05 7.861e-06 2.54984e-10 -3.12874e-10 9.14928e-10 0 0 0 
46 4 1.13313e-06 6.95777e-05 5.16946e-05 4.50096e-06 8.1399e-10 2.50702e-10 -5.23993e-10 0 0 0 
31 4 1.00651e-06 4.1594e-05 8.50306e-05 6.0586e-06 8.94144e-11 9.34594e-10 -3.44296e-10 0 0 0 
22 1 1.22657e-06 4.56519e-05 8.13952e-05 1.14878e-05 5.29818e-10 6.3372e-11 8.4574e-10 0 0 0 
62 4 1.06883e-06 4.78834e-05 8.25495e-05 1.05616e-05 8.11042e-10 2.48246e-10 5.29703e-10 0 0 0 
13 1 1.32395e-06 4.68188e-05 4.80944e-05 1.02399e-05 -2.97476e-10 -9.36215e-10 1.87108e-10 0 0 0 
60 1 1.33661e-06 4.76586e-05 5.07375e-05 9.71163e-06 2.97476e-10 9.36215e-10 -1.87108e-10 0 0 0 
26 4 9.91439e-07 4.05443e-05 6.15993e-05 6.74342e-06 -6.80211e-10 6.69599e-10 -2.98245e-10 0 0 0 
38 1 1.1299e-06 4.31017e-05 8.61208e-05 6.72091e-06 8.94144e-11 9.34594e-10 -3.44296e-10 0 0 0 
32 4 9.78694e-07 5.70882e-05 5.86848e-05 7.04735e-06 8.30558e-10 -4.52483e-10 -3.24705e-10 0 0 0 
45 4 1.02311e-06 6.36338e-05 4.72551e-05 1.16201e-05 7.66497e-10 3.81264e-10 5.16837e-10 0 0 0 
64 4 1.0329e-06 4.21152e-05 8.56844e-05 7.40632e-06 8.94144e-11 9.34594e-10 -3.44296e-10 0 0 0 
33 4 9.64056e-07 5.78591e-05 2.76977e-05 6.94581e-06 1.71437e-10 -8.09259e-10 -5.6188e-10 0 0 0 
15 4 8.96536e-07 5.10887e-05 4.20893e-05 1.35638e-05 5.98128e-10 -2.91968e-10 7.46323e-10 0 0 0 
59 2 1.1964e-06 4.69295e-05 6.0213e-05 1.14856e-05 -5.68665e-10 7.63655e-10 -3.05697e-10 0 0 0 
7 2 1.14221e-06 5.49868e-05 4.93929e-05 1.5817e-05 5.68665e-10 -7.63655e-10 3.05697e-10 0 0 0 
21 3 1.30765e-06 4.64655e-05 6.37379e-05 1.84178e-05 4.92045e-10 -4.97919e-10 7.1412e-10 0 0 0 
3 3 1.18763e-06 4.00711e-05 7.04536e-05 2.05027e-05 1.82739e-10 -1.04355e-10 9.77608e-10 0 0 0 
70 1 1.27619e-06 6.32041e-05 4.514e-05 1.46014e-05 -1.2399e-10 9.56466e-10 -2.64196e-10 0 0 0 
35 1 1.19929e-06 6.26704e-05 4.44689e-05 1.56338e-05 -1.2399e-10 9.56466e-10 -2.64196e-10 0 0 0 
65 4 1.01675e-06 2.44167e-05 7.69415e-05 1.67503e-05 -4.16156e-10 5.04501e-10 -7.565e-10 0 0 0 
47 4 9.9695e-07 6.44423e-05 3.31205e-05 1.83581e-05 1.2399e-10 -9.56466e-10 2.64196e-10 0 0 0 
57 4 9.44512e-07 6.17542e-05 4.7259e-05 1.46513e-05 2.7635e-10 4.37076e-11 -9.60063e-10 0 0 0 
44 4 1.09145e-06 4.26218e-05 5.32548e-05 1.79434e-05 3.04762e-10 -5.91753e-10 -7.4629e-10 0 0 0 
51 1 1.3889e-06 4.40528e-05 5.79808e-05 1.92552e-05 6.57288e-10 6.57291e-10 -3.68702e-10 0 0 0 
40 1 1.12304e-06 2.49067e-05 7.52777e-05 1.8965e-05 -9.95297e-10 -5.56698e-11 -7.92798e-11 0 0 0 
61 1 1.34182e-06 2.76415e-05 7.54306e-05 1.91829e-05 9.95297e-10 5.56698e-11 7.92798e-11 0 0 0 
39 1 1.07234e-06 5.89099e-05 4.67569e-05 2.27908e-05 -2.7635e-10 -4.37076e-11 9.60063e-10 0 0 0 
19 1 1.29261e-06 4.07337e-05 5.69209e-05 2.25669e-05 -3.04762e-10 5.91753e-10 7.4629e-10 0 0 0 
71 2 1.07496e-06 4.28449e-05 6.24903e-05 1.36194e-05 -1.23727e-12 -3.82491e-13 -9.99999e-10 0 0 0 