ITEM: TIMESTEP
0
ITEM: NUMBER OF ATOMS
5
ITEM: BOX BOUNDS ff ff ff
0 0.0001
0 0.0001
0 0.0001
ITEM: ATOMS id type diameter x y z vx vy vz fx fy fz 
2 2 1.2839e-06 5e-05 4.9e-05 2e-06 0 0 0 -7.678e-05 0 -2.44344e-16 
5 5 1.4839e-06 5.1e-05 4.9e-05 2e-06 0 0 0 7.678e-05 -5.122e-05 -3.77243e-16 
4 4 1.0539e-06 4.9e-05 5e-05 2e-06 0 0 0 0 0 -1.35147e-16 
3 3 1.0283e-06 5.1e-05 5e-05 2e-06 0 0 0 0 5.122e-05 -1.25536e-16 
1 1 1.0839e-06 5e-05 5.1e-05 2e-06 0 0 0 0 0 -1.47019e-16 
ITEM: TIMESTEP
500
ITEM: NUMBER OF ATOMS
6
ITEM: BOX BOUNDS ff ff ff
0 0.0001
0 0.0001
0 0.0001
ITEM: ATOMS id type diameter x y z vx vy vz fx fy fz 
2 2 1.35581e-06 4.97801e-05 4.90093e-05 6.79429e-07 0 0 -1e-09 0 0 -2.87745e-16 
5 5 1.4839e-06 5.11998e-05 4.89183e-05 7.40567e-07 0 0 1e-09 0 0 2.76517e-07 
4 4 1.05045e-06 4.9e-05 5e-05 5.2e-07 0 0 1e-09 0 0 1.04496e-06 
3 3 1.07736e-06 5.09896e-05 5.01696e-05 5.3e-07 0 0 1e-09 0 0 1.73581e-06 
1 1 1.22057e-06 5.0003e-05 5.09679e-05 6.1084e-07 4.39614e-144 -4.64485e-143 -1e-09 0 0 -2.09942e-16 
6 4 9.07185e-07 4.99029e-05 5.20254e-05 4.5604e-07 -1.47667e-141 1.56021e-140 -1e-09 0 0 -1.72395e-17 
ITEM: TIMESTEP
1000
ITEM: NUMBER OF ATOMS
7
ITEM: BOX BOUNDS ff ff ff
0 0.0001
0 0.0001
0 0.0001
ITEM: ATOMS id type diameter x y z vx vy vz fx fy fz 
2 2 1.43176e-06 4.97597e-05 4.90108e-05 7.18721e-07 0 0 -1e-09 0 0 -3.38856e-16 
5 5 1.4839e-06 5.12249e-05 4.8889e-05 7.50609e-07 0 0 -1e-09 0 0 -3.77243e-16 
4 4 1.04701e-06 4.9e-05 5e-05 5.2e-07 0 0 1e-09 0 0 7.01041e-07 
3 3 1.12876e-06 5.10657e-05 5.0179e-05 5.73878e-07 0 0 -1e-09 0 0 -1.66038e-16 
1 1 1.37448e-06 5.00372e-05 5.08838e-05 6.95813e-07 3.22919e-99 -3.43378e-99 -1e-09 0 0 -2.99795e-16 
6 4 9.04215e-07 5.01101e-05 5.21478e-05 4.45568e-07 0 0 1e-09 0 0 1.30791e-06 
7 4 9.86742e-07 4.92319e-05 5.17401e-05 4.86848e-07 2.34987e-110 -2.49875e-110 1e-09 3.06559e-107 -3.25981e-107 1.30458e-06 
