NUFEB Simulation 

       1 atoms 
       2 atom types 

   0.000000e-04   2e-05  xlo xhi 
   0.000000e-04   2e-05  ylo yhi 
   0.000000e-04   2e-05  zlo zhi 

 Atoms 

     1 1 1.0e-6 150 1e-5 1e-5 1e-6 1.0e-6 
