  Granular Flow Simulation 

       8 atoms 
       5 atom types 
       5 nutrients

   0.000000      1.0E-04  xlo xhi
   0.000000      1.0E-04  ylo yhi
   0.000000      1.0E-05  zlo zhi
 Atoms

     1 1 1.0e-6 1e6 0.5e-5 0.6e-5 5e-6 1.0e-6
     2 1 1.0e-6 1e6 0.5e-5 0.5e-5 5e-6 1.0e-6
     3 1 1.0e-6 1e6 0.6e-5 0.5e-5 5e-6 1.0e-6
     4 1 1.0e-6 1e6 0.6e-5 0.6e-5 5e-6 1.0e-6
     5 2 1.0e-6 1e6 0.7e-5 0.5e-5 5e-6 1.0e-6
     6 3 1.0e-6 1e6 0.7e-5 0.6e-5 5e-6 1.0e-6
     7 4 1.0e-6 1e6 0.4e-5 0.5e-5 5e-6 1.0e-6
     8 5 1.0e-6 1e6 0.4e-5 0.6e-5 5e-6 1.0e-6

 Nutrients

     1 sub l 1e-4 1e-4 1e-4 1e-4 1e-4 1e-4 1e-4
     2 o2 l 1e-4 1e-4 1e-4 1e-4 1e-4 1e-4 1e-4
     3 no2 l 1e-4 1e-4 1e-4 1e-4 1e-4 1e-4 1e-4
     4 no3 l 1e-4 1e-4 1e-4 1e-4 1e-4 1e-4 1e-4
     5 nh4 l 1e-4 1e-4 1e-4 1e-4 1e-4 1e-4 1e-4

 Diffusion Coeffs
    
     sub 1.6e-9
     o2 0
     no2 0
     no3 0
     nh4 0

 Type Name

     1 het
     2 aob
     3 nob
     4 eps
     5 dead

 Ks
     
     het 3.5e-5 0 0 0 0
     aob 0 0 0 0 0
     nob 0 0 0 0 0
     eps 0 0 0 0 0
     dead 0 0 0 0 0

Growth Rate

     het 0.000277778
     aob 0
     nob 0
     eps 0
     dead 0

 Yield
    
     het 0.61
     aob 0.33
     nob 0.083
     eps 0.18
     dead 0

 Maintenance
 
     het 0
     aob 0
     nob 0
     eps 0
     dead 0

 Decay

     het 0.000003694
     aob 0.00000127314
     nob 0.00000127314
     eps 0.00000196759
     dead 0


