LAMMPS (5 Nov 2016)
# NUFEB simulation

atom_style	bio
atom_modify	map array sort 1000 5.0e-7
boundary	pp pp ff
newton		off
processors  1 1 4

comm_modify	vel yes

read_data_bio atom.in
  orthogonal box = (0 0 0) to (2e-05 2e-05 0.0006)
  1 by 1 by 4 MPI processor grid
  reading atoms ...
  9 atoms
  5 nutrients

group HET type 1
9 atoms in group HET

lattice sc 2e-6 origin 0 0 0
Lattice spacing in x,y,z = 79.3701 79.3701 79.3701
region reg3 block 0 10 0 10 250 260

neighbor	5e-7 bin
neigh_modify	delay 0 one 2000

##############Define DEM Variables&Commands##############

pair_style  gran/hooke/history 1.e-4 NULL 1.e-5 NULL 0.0 1
pair_coeff  * *

timestep 300

variable kanc equal 50

fix 1 all nve/limit 1e-8
fix fv all viscous 1e-5

fix zw all wall/gran hooke/history 2000 NULL 500.0 NULL 1.5 0 zplane  0.0   6e-04

fix zwa all walladh v_kanc zplane  0.0   6e-04

##############Define IBm Variables##############

#EPS density, ratio variables and division diameter
variable EPSdens equal 30
variable EPSratio equal 1.25
variable divDia equal 6e-6

#kinetics variables
variable etaHET equal 0.0
variable diffT equal 1e-4
variable tol equal 1e-7
variable layer equal 0

##############Define IBm Commands##############

fix k1 all kinetics 1 10 10 300 v_diffT v_layer demflag 0
fix kgm all kinetics/growth/monod v_EPSdens v_etaHET
fix g1 all kinetics/diffusion v_tol pp pp nd kg bulk 2.31e-7 1.25e-3 0.1
fix d1 all divide 1 v_EPSdens v_divDia 31231 demflag 0
fix vf1 all verify 1 bm1 1 demflag 0

##############Simulation Output##############

compute myPres all pressure thermo_temp
compute myHeight all avg_height
compute myMass all biomass

#dump		id all custom 200000 snapshot.bubblemd id type diameter x y z
thermo_style    custom step cpu atoms biomass c_myPres c_myHeight
thermo		1000
thermo_modify	lost warn

##############Two-loops Run##############

run 1000 pre no post no every 1 "fix_modify k1 demflag 1" "fix_modify vf1 demflag 1" "fix_modify d1 demflag 1" "delete_atoms region reg3" "timestep 1e-3" "run 10000 pre no post no" "timestep 300" "fix_modify k1 demflag 0" "fix_modify vf1 demflag 0" "fix_modify d1 demflag 0"
WARNING: EPS is not defined in fix_kinetics/kinetics/monod (../fix_bio_kinetics_monod.cpp:253)
ae = 1.000000e+00, top = 4.000000e-06, base = 4.000000e-06, ave_h = 1.000000e-06 
Neighbor list info ...
  2 neighbor list requests
  update every 1 steps, delay 0 steps, check yes
  max neighbors/atom: 2000, page size: 100000
  master list distance cutoff = 6.5e-06
  ghost atom cutoff = 6.5e-06
  binsize = 3.25e-06 -> bins = 7 7 185
Memory usage per processor = 7.37353 Mbytes
Step CPU Atoms biomass c_myPres c_myHeight 
       0            0        9 1.3232388e-14 0.0083333333     2.25e-06 
number of iterations: 417 
S-sub-bulk = 2.992430e-02
S-sub-base = 2.999222e-02
S-o2-bulk = 1.000000e-02
S-o2-base = 9.998553e-03

       1  0.075918913       18 1.3452464e-14  0.011125571 4.9483901e-06 
Loop time of 0.0759347 on 4 procs for 1 steps with 18 atoms

98.2% CPU use with 4 MPI tasks x no OpenMP threads
fix_modify k1 demflag 1
fix_modify vf1 demflag 1
fix_modify d1 demflag 1
delete_atoms region reg3
Deleted 0 atoms, new total = 18
timestep 1e-3
run 10000 pre no post no
Step CPU Atoms biomass c_myPres c_myHeight 
       1            0       18 1.3452464e-14  0.011125571 3.9878779e-06 
    1000 0.0048987865       18 1.3452464e-14 1.2582944e-05 6.0863048e-06 
    2000  0.010652781       18 1.3452464e-14 1.2459463e-05 6.0863125e-06 
    3000    0.0150249       18 1.3452464e-14 1.2335917e-05 6.0863185e-06 
    4000  0.019053936       18 1.3452464e-14 1.2212304e-05 6.0863225e-06 
    5000  0.023087978       18 1.3452464e-14 1.2250432e-05 6.0863358e-06 
    6000  0.027323008       18 1.3452464e-14 1.2126776e-05 6.086337e-06 
    7000  0.031380892       18 1.3452464e-14 1.2099289e-05 6.0866797e-06 
    8000   0.03529501       18 1.3452464e-14 1.2140751e-05 6.0866838e-06 
    9000  0.039313793       18 1.3452464e-14 1.2133288e-05 6.0866839e-06 
   10000  0.043288946       18 1.3452464e-14 1.2150981e-05 6.0866847e-06 
   10001  0.043311834       18 1.3452464e-14 1.3944941e-05 6.086827e-06 
Loop time of 0.0433255 on 4 procs for 10000 steps with 18 atoms

99.1% CPU use with 4 MPI tasks x no OpenMP threads
timestep 300
fix_modify k1 demflag 0
fix_modify vf1 demflag 0
fix_modify d1 demflag 0
Step CPU Atoms biomass c_myPres c_myHeight 
   10001            0       18 1.3452464e-14 1.3944941e-05 6.086827e-06 
number of iterations: 1159 
S-sub-bulk = 2.985156e-02
S-sub-base = 2.991313e-02
S-o2-bulk = 1.000000e-02
S-o2-base = 9.997923e-03

   10002  0.054847002       18 1.3676129e-14 0.00027566819 6.0966724e-06 
Loop time of 0.0548627 on 4 procs for 1 steps with 18 atoms

96.6% CPU use with 4 MPI tasks x no OpenMP threads
fix_modify k1 demflag 1
fix_modify vf1 demflag 1
fix_modify d1 demflag 1
delete_atoms region reg3
Deleted 0 atoms, new total = 18
timestep 1e-3
run 10000 pre no post no
Step CPU Atoms biomass c_myPres c_myHeight 
   10002            0       18 1.3676129e-14 0.00027566819 5.2973642e-06 
   11000 0.0044369698       18 1.3676129e-14 1.6115946e-05 5.3312493e-06 
   12000 0.0088891983       18 1.3676129e-14 1.7106928e-05 5.3312169e-06 
   13000  0.013331175       18 1.3676129e-14 1.7104135e-05 5.3312481e-06 
   14000  0.017784119       18 1.3676129e-14 1.7101159e-05 5.3312774e-06 
   15000  0.022246122       18 1.3676129e-14 1.7098131e-05 5.3313046e-06 
   16000  0.027013063       18 1.3676129e-14 1.7095059e-05  5.33133e-06 
   17000   0.03148818       18 1.3676129e-14 1.7091943e-05 5.3313535e-06 
   18000  0.035958052       18 1.3676129e-14 1.7088781e-05 5.3313752e-06 
   19000  0.040443182       18 1.3676129e-14 1.7085572e-05 5.3313952e-06 
   20000  0.044891119       18 1.3676129e-14 1.7082316e-05 5.3314136e-06 
   20002  0.044914007       18 1.3676129e-14 1.7082309e-05 5.3314136e-06 
Loop time of 0.044923 on 4 procs for 10000 steps with 18 atoms

99.9% CPU use with 4 MPI tasks x no OpenMP threads
timestep 300
fix_modify k1 demflag 0
fix_modify vf1 demflag 0
fix_modify d1 demflag 0
Step CPU Atoms biomass c_myPres c_myHeight 
   20002            0       18 1.3676129e-14 1.7082309e-05 5.3314136e-06 
number of iterations: 1636 
S-sub-bulk = 2.978160e-02
S-sub-base = 2.983495e-02
S-o2-bulk = 1.000000e-02
S-o2-base = 9.996912e-03

   20003   0.08833909       18 1.3903435e-14 0.00031356748 6.1563468e-06 
Loop time of 0.0883524 on 4 procs for 1 steps with 18 atoms

100.0% CPU use with 4 MPI tasks x no OpenMP threads
fix_modify k1 demflag 1
fix_modify vf1 demflag 1
fix_modify d1 demflag 1
delete_atoms region reg3
Deleted 0 atoms, new total = 18
timestep 1e-3
run 10000 pre no post no
Step CPU Atoms biomass c_myPres c_myHeight 
   20003            0       18 1.3903435e-14 0.00031356748 5.3417538e-06 
   21000 0.0041320324       18 1.3903435e-14 1.2273794e-05 5.3766277e-06 
   22000 0.0082221031       18 1.3903435e-14 1.2834304e-05 5.3767484e-06 
   23000  0.012660027       18 1.3903435e-14 1.383984e-05 5.3765972e-06 
   24000  0.016770124       18 1.3903435e-14 1.2697956e-05 5.3767057e-06 
   25000  0.020890951       18 1.3903435e-14 1.2996521e-05 5.3764156e-06 
   26000  0.025010109       18 1.3903435e-14 1.1481015e-05 5.376729e-06 
   27000  0.029724121       18 1.3903435e-14 1.2940028e-05 5.3764317e-06 
   28000  0.033797026       18 1.3903435e-14 1.3148561e-05 5.3766376e-06 
   29000  0.038461924       18 1.3903435e-14 1.3017462e-05 5.3766913e-06 
   30000  0.042906046       18 1.3903435e-14 1.3611046e-05 5.376409e-06 
   30003  0.042935133       18 1.3903435e-14 2.3173908e-05 5.3769391e-06 
Loop time of 0.0429466 on 4 procs for 10000 steps with 18 atoms

100.0% CPU use with 4 MPI tasks x no OpenMP threads
timestep 300
fix_modify k1 demflag 0
fix_modify vf1 demflag 0
fix_modify d1 demflag 0
Step CPU Atoms biomass c_myPres c_myHeight 
   30003            0       18 1.3903435e-14 2.3173908e-05 5.3769391e-06 
number of iterations: 1599 
S-sub-bulk = 2.971424e-02
S-sub-base = 2.976470e-02
S-o2-bulk = 1.000000e-02
S-o2-base = 9.996853e-03

   30004  0.076211929       18 1.413445e-14 0.00031174654 6.2158554e-06 
Loop time of 0.0762274 on 4 procs for 1 steps with 18 atoms

100.0% CPU use with 4 MPI tasks x no OpenMP threads
fix_modify k1 demflag 1
fix_modify vf1 demflag 1
fix_modify d1 demflag 1
delete_atoms region reg3
Deleted 0 atoms, new total = 18
timestep 1e-3
run 10000 pre no post no
Step CPU Atoms biomass c_myPres c_myHeight 
   30004            0       18 1.413445e-14 0.00031174654 5.3883959e-06 
   31000 0.0041689873       18 1.413445e-14 2.9979966e-05 5.4193262e-06 
   32000 0.0082249641       18 1.413445e-14 2.9823178e-05 5.4192981e-06 
   33000  0.012603045       18 1.413445e-14 2.8879701e-05 5.4192545e-06 
   34000  0.016664028       18 1.413445e-14 2.9908263e-05 5.4192952e-06 
   35000  0.020765066       18 1.413445e-14 3.0282271e-05 5.419271e-06 
   36000  0.024889946       18 1.413445e-14 3.0111118e-05 5.4192436e-06 
   37000  0.031563044       18 1.413445e-14 2.9541005e-05 5.4192134e-06 
   38000  0.037533045       18 1.413445e-14 2.1954887e-05 5.419943e-06 
   39000  0.042142153       18 1.413445e-14 2.0763624e-05 5.419924e-06 
   40000  0.046260118       18 1.413445e-14 2.288277e-05 5.4198884e-06 
   40004  0.046292067       18 1.413445e-14 2.1911015e-05 5.4198897e-06 
Loop time of 0.0463047 on 4 procs for 10000 steps with 18 atoms

100.0% CPU use with 4 MPI tasks x no OpenMP threads
timestep 300
fix_modify k1 demflag 0
fix_modify vf1 demflag 0
fix_modify d1 demflag 0
Step CPU Atoms biomass c_myPres c_myHeight 
   40004            0       18 1.413445e-14 2.1911015e-05 5.4198897e-06 
number of iterations: 1586 
S-sub-bulk = 2.964931e-02
S-sub-base = 2.969705e-02
S-o2-bulk = 1.000000e-02
S-o2-base = 9.996797e-03

   40005  0.075532913       18 1.4369234e-14 0.00030455083 6.2712211e-06 
Loop time of 0.0755448 on 4 procs for 1 steps with 18 atoms

99.9% CPU use with 4 MPI tasks x no OpenMP threads
fix_modify k1 demflag 1
fix_modify vf1 demflag 1
fix_modify d1 demflag 1
delete_atoms region reg3
Deleted 0 atoms, new total = 18
timestep 1e-3
run 10000 pre no post no
Step CPU Atoms biomass c_myPres c_myHeight 
   40005            0       18 1.4369234e-14 0.00030455083 5.4312625e-06 
   41000  0.004032135       18 1.4369234e-14 1.0422575e-05 5.4640858e-06 
   42000 0.0091719627       18 1.4369234e-14 1.0419062e-05 5.4640587e-06 
   43000  0.013206005       18 1.4369234e-14 1.0418328e-05 5.4640316e-06 
   44000  0.017290115       18 1.4369234e-14 1.0412456e-05 5.4640044e-06 
   45000  0.021353006       18 1.4369234e-14 1.0412402e-05 5.4639773e-06 
   46000  0.025359154       18 1.4369234e-14 6.3386394e-06 5.4645658e-06 
   47000  0.029757023       18 1.4369234e-14 6.3386378e-06 5.4645295e-06 
   48000  0.033702135       18 1.4369234e-14 6.3386361e-06 5.4644932e-06 
   49000  0.038285017       18 1.4369234e-14 6.3386345e-06 5.4644568e-06 
   50000  0.042623997       18 1.4369234e-14 6.3386329e-06 5.4644204e-06 
   50005  0.042664051       18 1.4369234e-14 2.4568961e-05 5.4639378e-06 
Loop time of 0.0426768 on 4 procs for 10000 steps with 18 atoms

100.0% CPU use with 4 MPI tasks x no OpenMP threads
timestep 300
fix_modify k1 demflag 0
fix_modify vf1 demflag 0
fix_modify d1 demflag 0
Step CPU Atoms biomass c_myPres c_myHeight 
   50005            0       18 1.4369234e-14 2.4568961e-05 5.4639378e-06 
number of iterations: 1573 
S-sub-bulk = 2.958667e-02
S-sub-base = 2.963210e-02
S-o2-bulk = 1.000000e-02
S-o2-base = 9.996773e-03

   50006   0.07454896       18 1.460785e-14 0.00029804414 6.3291521e-06 
Loop time of 0.0745637 on 4 procs for 1 steps with 18 atoms

100.0% CPU use with 4 MPI tasks x no OpenMP threads
fix_modify k1 demflag 1
fix_modify vf1 demflag 1
fix_modify d1 demflag 1
delete_atoms region reg3
Deleted 0 atoms, new total = 18
timestep 1e-3
run 10000 pre no post no
Step CPU Atoms biomass c_myPres c_myHeight 
   50006            0       18 1.460785e-14 0.00029804414 5.4762674e-06 
   51000 0.0045990944       18 1.460785e-14 1.463234e-05 5.5046827e-06 
   52000 0.0087609291       18 1.460785e-14 1.4632122e-05 5.5046677e-06 
   53000  0.013556004       18 1.460785e-14 1.4631905e-05 5.5046519e-06 
   54000  0.018620968       18 1.460785e-14 1.4631687e-05 5.5047649e-06 
   55000  0.023576975       18 1.460785e-14 1.4631469e-05 5.5047477e-06 
   56000  0.028501034       18 1.460785e-14 1.4631252e-05 5.5047298e-06 
   57000  0.033421993       18 1.460785e-14 1.4631034e-05 5.5047113e-06 
   58000  0.038339138       18 1.460785e-14 1.4630817e-05 5.5046921e-06 
   59000  0.043264151       18 1.460785e-14  1.46306e-05 5.5046725e-06 
   60000  0.048221111       18 1.460785e-14 1.4630382e-05 5.5046528e-06 
   60006  0.048282146       18 1.460785e-14 1.4630381e-05 5.5046526e-06 
Loop time of 0.0482922 on 4 procs for 10000 steps with 18 atoms

100.0% CPU use with 4 MPI tasks x no OpenMP threads
timestep 300
fix_modify k1 demflag 0
fix_modify vf1 demflag 0
fix_modify d1 demflag 0
Step CPU Atoms biomass c_myPres c_myHeight 
   60006            0       18 1.460785e-14 1.4630381e-05 5.5046526e-06 
number of iterations: 1562 
S-sub-bulk = 2.952615e-02
S-sub-base = 2.956915e-02
S-o2-bulk = 1.000000e-02
S-o2-base = 9.996735e-03

   60007  0.075558901       18 1.4850363e-14 0.00036140393 6.3789414e-06 
Loop time of 0.0755734 on 4 procs for 1 steps with 18 atoms

100.0% CPU use with 4 MPI tasks x no OpenMP threads
fix_modify k1 demflag 1
fix_modify vf1 demflag 1
fix_modify d1 demflag 1
delete_atoms region reg3
Deleted 0 atoms, new total = 18
timestep 1e-3
run 10000 pre no post no
Step CPU Atoms biomass c_myPres c_myHeight 
   60007            0       18 1.4850363e-14 0.00036140393 5.5159594e-06 
   61000 0.0042588711       18 1.4850363e-14 2.994493e-05 5.549866e-06 
   62000 0.0085389614       18 1.4850363e-14 2.9948464e-05 5.5498205e-06 
   63000  0.012769938       18 1.4850363e-14 2.9850163e-05 5.5497904e-06 
   64000  0.016968012       18 1.4850363e-14 2.9751589e-05 5.5497603e-06 
   65000  0.021822929       18 1.4850363e-14 2.9652742e-05 5.5497302e-06 
   66000  0.026125908       18 1.4850363e-14 2.9583697e-05 5.5497001e-06 
   67000  0.031239033       18 1.4850363e-14 2.9525998e-05 5.5496738e-06 
   68000  0.035637856       18 1.4850363e-14 2.9468038e-05 5.5496694e-06 
   69000  0.039819956       18 1.4850363e-14 2.9409815e-05 5.5496637e-06 
   70000  0.043992996       18 1.4850363e-14 2.9351329e-05 5.5496566e-06 
   70007  0.044045925       18 1.4850363e-14 2.2432191e-05 5.5500548e-06 
Loop time of 0.0440569 on 4 procs for 10000 steps with 18 atoms

100.0% CPU use with 4 MPI tasks x no OpenMP threads
timestep 300
fix_modify k1 demflag 0
fix_modify vf1 demflag 0
fix_modify d1 demflag 0
Step CPU Atoms biomass c_myPres c_myHeight 
   70007            0       18 1.4850363e-14 2.2432191e-05 5.5500548e-06 
number of iterations: 1551 
S-sub-bulk = 2.946763e-02
S-sub-base = 2.950833e-02
S-o2-bulk = 1.000000e-02
S-o2-base = 9.996682e-03

   70008  0.073909044       18 1.5096836e-14 0.00034303607 6.4373015e-06 
Loop time of 0.0739222 on 4 procs for 1 steps with 18 atoms

100.0% CPU use with 4 MPI tasks x no OpenMP threads
fix_modify k1 demflag 1
fix_modify vf1 demflag 1
fix_modify d1 demflag 1
delete_atoms region reg3
Deleted 0 atoms, new total = 18
timestep 1e-3
run 10000 pre no post no
Step CPU Atoms biomass c_myPres c_myHeight 
   70008            0       18 1.5096836e-14 0.00034303607 5.5616281e-06 
   71000  0.004347086       18 1.5096836e-14 1.6674353e-05 5.5923425e-06 
   72000 0.0086870193       18 1.5096836e-14 1.6479109e-05 5.5924187e-06 
   73000  0.013337135       18 1.5096836e-14 1.7202709e-05 5.5924187e-06 
   74000  0.017621994       18 1.5096836e-14 1.7202143e-05 5.5924093e-06 
   75000  0.021991014       18 1.5096836e-14 1.7201576e-05 5.5923999e-06 
   76000  0.026443958       18 1.5096836e-14 1.6939307e-05 5.5923878e-06 
   77000  0.031202078       18 1.5096836e-14 1.693879e-05 5.5923725e-06 
   78000  0.035766125       18 1.5096836e-14 1.6938274e-05 5.5923577e-06 
   79000  0.040789127       18 1.5096836e-14 1.6937757e-05 5.5923434e-06 
   80000  0.045145988       18 1.5096836e-14 1.6937241e-05 5.5923296e-06 
   80008  0.045207024       18 1.5096836e-14 1.6937237e-05 5.5923295e-06 
Loop time of 0.0452188 on 4 procs for 10000 steps with 18 atoms

100.0% CPU use with 4 MPI tasks x no OpenMP threads
timestep 300
fix_modify k1 demflag 0
fix_modify vf1 demflag 0
fix_modify d1 demflag 0
Step CPU Atoms biomass c_myPres c_myHeight 
   80008            0       18 1.5096836e-14 1.6937237e-05 5.5923295e-06 
number of iterations: 1539 
S-sub-bulk = 2.941096e-02
S-sub-base = 2.944950e-02
S-o2-bulk = 1.000000e-02
S-o2-base = 9.996597e-03

   80009   0.07446003       18 1.5347335e-14 0.00038603765 6.4910015e-06 
Loop time of 0.0744731 on 4 procs for 1 steps with 18 atoms

100.0% CPU use with 4 MPI tasks x no OpenMP threads
fix_modify k1 demflag 1
fix_modify vf1 demflag 1
fix_modify d1 demflag 1
delete_atoms region reg3
Deleted 0 atoms, new total = 18
timestep 1e-3
run 10000 pre no post no
Step CPU Atoms biomass c_myPres c_myHeight 
   80009            0       18 1.5347335e-14 0.00038603765 5.6056592e-06 
   81000 0.0045421124       18 1.5347335e-14 4.9252811e-05 5.6340663e-06 
   82000  0.009032011       18 1.5347335e-14 4.8369008e-05 5.6338374e-06 
   83000  0.013799906       18 1.5347335e-14 4.5403739e-05 5.6338406e-06 
   84000  0.018277884       18 1.5347335e-14 2.690384e-05 5.6349649e-06 
   85000  0.022809982       18 1.5347335e-14 1.8190394e-05 5.634735e-06 
   86000  0.027920961       18 1.5347335e-14 1.7877447e-05 5.6348171e-06 
   87000  0.032939911       18 1.5347335e-14  1.72945e-05 5.6349028e-06 
   88000  0.038808107       18 1.5347335e-14 1.8707558e-05 5.6346952e-06 
   89000  0.043467045       18 1.5347335e-14 1.8804725e-05 5.6347943e-06 
   90000  0.047959089       18 1.5347335e-14 1.8494721e-05 5.634892e-06 
   90009  0.048031092       18 1.5347335e-14 2.263548e-05 5.6345552e-06 
Loop time of 0.0480402 on 4 procs for 10000 steps with 18 atoms

100.0% CPU use with 4 MPI tasks x no OpenMP threads
timestep 300
fix_modify k1 demflag 0
fix_modify vf1 demflag 0
fix_modify d1 demflag 0
Step CPU Atoms biomass c_myPres c_myHeight 
   90009            0       18 1.5347335e-14 2.263548e-05 5.6345552e-06 
number of iterations: 1529 
S-sub-bulk = 2.935603e-02
S-sub-base = 2.939251e-02
S-o2-bulk = 1.000000e-02
S-o2-base = 9.996559e-03

   90010  0.072768211       18 1.5601926e-14 0.00044077447 6.5432496e-06 
Loop time of 0.072782 on 4 procs for 1 steps with 18 atoms

100.0% CPU use with 4 MPI tasks x no OpenMP threads
fix_modify k1 demflag 1
fix_modify vf1 demflag 1
fix_modify d1 demflag 1
delete_atoms region reg3
Deleted 0 atoms, new total = 18
timestep 1e-3
run 10000 pre no post no
Step CPU Atoms biomass c_myPres c_myHeight 
   90010            0       18 1.5601926e-14 0.00044077447 5.6470653e-06 
   91000  0.004034996       18 1.5601926e-14 3.0399516e-05 5.6750016e-06 
   92000 0.0081560612       18 1.5601926e-14 3.0393389e-05 5.6749723e-06 
   93000    0.0122931       18 1.5601926e-14 3.0393218e-05 5.6749746e-06 
   94000  0.016443014       18 1.5601926e-14 3.0387288e-05 5.6749478e-06 
   95000  0.020519972       18 1.5601926e-14 3.0381309e-05 5.6749222e-06 
   96000  0.024588108       18 1.5601926e-14 3.0375097e-05 5.6748967e-06 
   97000  0.028949022       18 1.5601926e-14 2.8120417e-05 5.6760532e-06 
   98000  0.033236027       18 1.5601926e-14 2.8090055e-05 5.6760151e-06 
   99000  0.037595034       18 1.5601926e-14 2.8058609e-05 5.6759768e-06 
  100000  0.042406082       18 1.5601926e-14 2.8026084e-05 5.6759385e-06 
  100010  0.042471886       18 1.5601926e-14 2.8025753e-05 5.6759381e-06 
Loop time of 0.0424836 on 4 procs for 10000 steps with 18 atoms

100.0% CPU use with 4 MPI tasks x no OpenMP threads
timestep 300
fix_modify k1 demflag 0
fix_modify vf1 demflag 0
fix_modify d1 demflag 0
Step CPU Atoms biomass c_myPres c_myHeight 
  100010            0       18 1.5601926e-14 2.8025753e-05 5.6759381e-06 
number of iterations: 1516 
S-sub-bulk = 2.930271e-02
S-sub-base = 2.933764e-02
S-o2-bulk = 1.000000e-02
S-o2-base = 9.996527e-03

  100011  0.072011948       18 1.5860678e-14 0.00040574188 6.5964983e-06 
Loop time of 0.0720249 on 4 procs for 1 steps with 18 atoms

100.0% CPU use with 4 MPI tasks x no OpenMP threads
fix_modify k1 demflag 1
fix_modify vf1 demflag 1
fix_modify d1 demflag 1
delete_atoms region reg3
Deleted 0 atoms, new total = 18
timestep 1e-3
run 10000 pre no post no
Step CPU Atoms biomass c_myPres c_myHeight 
  100011            0       18 1.5860678e-14 0.00040574188 5.6894612e-06 
  101000 0.0043001175       18 1.5860678e-14 2.2672062e-05 5.7184753e-06 
  102000 0.0090930462       18 1.5860678e-14 2.2768474e-05 5.7183609e-06 
  103000  0.013384104       18 1.5860678e-14 2.2368526e-05 5.7182097e-06 
  104000  0.018419027       18 1.5860678e-14 2.2085272e-05 5.7182412e-06 
  105000  0.023004055       18 1.5860678e-14 2.255324e-05 5.7182706e-06 
  106000  0.027327061       18 1.5860678e-14 2.1919015e-05 5.7182848e-06 
  107000  0.031644106       18 1.5860678e-14 1.9739855e-05 5.7182557e-06 
  108000  0.035950899       18 1.5860678e-14 2.0265849e-05 5.718243e-06 
  109000  0.040277004       18 1.5860678e-14 2.1462645e-05 5.7180592e-06 
  110000  0.044620037       18 1.5860678e-14 2.1521256e-05 5.718264e-06 
  110011  0.044692993       18 1.5860678e-14 2.422261e-05 5.7184225e-06 
Loop time of 0.044703 on 4 procs for 10000 steps with 18 atoms

100.0% CPU use with 4 MPI tasks x no OpenMP threads
timestep 300
fix_modify k1 demflag 0
fix_modify vf1 demflag 0
fix_modify d1 demflag 0
Step CPU Atoms biomass c_myPres c_myHeight 
  110011            0       18 1.5860678e-14 2.422261e-05 5.7184225e-06 
number of iterations: 1509 
S-sub-bulk = 2.925089e-02
S-sub-base = 2.928399e-02
S-o2-bulk = 1.000000e-02
S-o2-base = 9.996494e-03

  110012  0.071827888       18 1.6123658e-14 0.00041072787 6.6470474e-06 
Loop time of 0.07184 on 4 procs for 1 steps with 18 atoms

100.0% CPU use with 4 MPI tasks x no OpenMP threads
fix_modify k1 demflag 1
fix_modify vf1 demflag 1
fix_modify d1 demflag 1
delete_atoms region reg3
Deleted 0 atoms, new total = 18
timestep 1e-3
run 10000 pre no post no
Step CPU Atoms biomass c_myPres c_myHeight 
  110012            0       18 1.6123658e-14 0.00041072787 5.7304835e-06 
  111000 0.0041000843       18 1.6123658e-14 2.0047994e-05 5.7587527e-06 
  112000 0.0082361698       18 1.6123658e-14 2.0048643e-05 5.7587359e-06 
  113000  0.012819052       18 1.6123658e-14 2.004905e-05 5.7587192e-06 
  114000  0.016962051       18 1.6123658e-14 2.004854e-05 5.7587006e-06 
  115000  0.021119118       18 1.6123658e-14 2.0048533e-05 5.7586839e-06 
  116000  0.025309086       18 1.6123658e-14 2.0047949e-05 5.7586672e-06 
  117000  0.029721022       18 1.6123658e-14 2.0047929e-05 5.7586505e-06 
  118000  0.034203053       18 1.6123658e-14 2.0047343e-05 5.7586337e-06 
  119000  0.039793015       18 1.6123658e-14 2.004729e-05 5.758617e-06 
  120000  0.044117212       18 1.6123658e-14 2.0046682e-05 5.7586002e-06 
  120012  0.044183016       18 1.6123658e-14 2.0047642e-05 5.7586001e-06 
Loop time of 0.0441936 on 4 procs for 10000 steps with 18 atoms

100.0% CPU use with 4 MPI tasks x no OpenMP threads
timestep 300
fix_modify k1 demflag 0
fix_modify vf1 demflag 0
fix_modify d1 demflag 0
Step CPU Atoms biomass c_myPres c_myHeight 
  120012            0       18 1.6123658e-14 2.0047642e-05 5.7586001e-06 
number of iterations: 1499 
S-sub-bulk = 2.920046e-02
S-sub-base = 2.923185e-02
S-o2-bulk = 1.000000e-02
S-o2-base = 9.996450e-03

  120013  0.072626829       18 1.6390937e-14 0.00043407602 6.6980257e-06 
Loop time of 0.0726397 on 4 procs for 1 steps with 18 atoms

100.0% CPU use with 4 MPI tasks x no OpenMP threads
fix_modify k1 demflag 1
fix_modify vf1 demflag 1
fix_modify d1 demflag 1
delete_atoms region reg3
Deleted 0 atoms, new total = 18
timestep 1e-3
run 10000 pre no post no
Step CPU Atoms biomass c_myPres c_myHeight 
  120013            0       18 1.6390937e-14 0.00043407602 5.7703712e-06 
  121000 0.0041809082       18 1.6390937e-14 2.5270277e-05 5.800586e-06 
  122000 0.0081980228       18 1.6390937e-14 2.0034375e-05 5.8014842e-06 
  123000  0.012461901       18 1.6390937e-14 2.0016656e-05 5.8014653e-06 
  124000  0.016726971       18 1.6390937e-14 1.9998553e-05 5.8014458e-06 
  125000  0.020828962       18 1.6390937e-14 1.9980063e-05 5.8014256e-06 
  126000  0.024827957       18 1.6390937e-14 1.9961184e-05 5.8014049e-06 
  127000  0.028831005       18 1.6390937e-14 1.9941915e-05 5.8013837e-06 
  128000   0.03283596       18 1.6390937e-14 1.9922255e-05 5.8013619e-06 
  129000  0.036882877       18 1.6390937e-14 1.9902202e-05 5.8013396e-06 
  130000  0.040941954       18 1.6390937e-14 1.9881756e-05 5.8013168e-06 
  130013   0.04102087       18 1.6390937e-14 1.6408224e-05 5.8007948e-06 
Loop time of 0.0410318 on 4 procs for 10000 steps with 18 atoms

100.0% CPU use with 4 MPI tasks x no OpenMP threads
timestep 300
fix_modify k1 demflag 0
fix_modify vf1 demflag 0
fix_modify d1 demflag 0
Step CPU Atoms biomass c_myPres c_myHeight 
  130013            0       18 1.6390937e-14 1.6408224e-05 5.8007948e-06 
number of iterations: 1488 
S-sub-bulk = 2.915132e-02
S-sub-base = 2.918142e-02
S-o2-bulk = 1.000000e-02
S-o2-base = 9.996393e-03

  130014  0.071969032       18 1.6662585e-14 0.00038861211 6.7510795e-06 
Loop time of 0.0719824 on 4 procs for 1 steps with 18 atoms

100.0% CPU use with 4 MPI tasks x no OpenMP threads
fix_modify k1 demflag 1
fix_modify vf1 demflag 1
fix_modify d1 demflag 1
delete_atoms region reg3
Deleted 0 atoms, new total = 18
timestep 1e-3
run 10000 pre no post no
Step CPU Atoms biomass c_myPres c_myHeight 
  130014            0       18 1.6662585e-14 0.00038861211 5.8136707e-06 
  131000 0.0043280125       18 1.6662585e-14 1.665777e-05 5.8431253e-06 
  132000 0.0086870193       18 1.6662585e-14 1.6657422e-05 5.8431171e-06 
  133000  0.013691902       18 1.6662585e-14 1.6657376e-05 5.8431089e-06 
  134000  0.018837929       18 1.6662585e-14 1.6657331e-05 5.8431005e-06 
  135000  0.023985863       18 1.6662585e-14 1.6657285e-05 5.8430923e-06 
  136000  0.029311895       18 1.6662585e-14 1.665724e-05 5.8430841e-06 
  137000  0.036237955       18 1.6662585e-14 1.6657195e-05 5.8430758e-06 
  138000  0.041452885       18 1.6662585e-14 1.665715e-05 5.8430676e-06 
  139000  0.046617985       18 1.6662585e-14 1.6657104e-05 5.8430592e-06 
  140000  0.051767826       18 1.6662585e-14 1.6657059e-05 5.843051e-06 
  140014  0.051863909       18 1.6662585e-14 1.6657058e-05 5.8430509e-06 
Loop time of 0.0518737 on 4 procs for 10000 steps with 18 atoms

100.0% CPU use with 4 MPI tasks x no OpenMP threads
timestep 300
fix_modify k1 demflag 0
fix_modify vf1 demflag 0
fix_modify d1 demflag 0
Step CPU Atoms biomass c_myPres c_myHeight 
  140014            0       18 1.6662585e-14 1.6657058e-05 5.8430509e-06 
number of iterations: 1482 
S-sub-bulk = 2.910338e-02
S-sub-base = 2.913195e-02
S-o2-bulk = 1.000000e-02
S-o2-base = 9.996371e-03

  140015  0.070627928       18 1.6938674e-14 0.00046503402 6.8029054e-06 
Loop time of 0.0706425 on 4 procs for 1 steps with 18 atoms

100.0% CPU use with 4 MPI tasks x no OpenMP threads
fix_modify k1 demflag 1
fix_modify vf1 demflag 1
fix_modify d1 demflag 1
delete_atoms region reg3
Deleted 0 atoms, new total = 18
timestep 1e-3
run 10000 pre no post no
Step CPU Atoms biomass c_myPres c_myHeight 
  140015            0       18 1.6938674e-14 0.00046503402 5.8561778e-06 
  141000 0.0042660236       18 1.6938674e-14 1.8456332e-05 5.8793934e-06 
  142000 0.0085608959       18 1.6938674e-14 1.8456405e-05 5.8793705e-06 
  143000   0.01284194       18 1.6938674e-14 1.8456477e-05 5.8793476e-06 
  144000  0.017124891       18 1.6938674e-14 1.845655e-05 5.8793247e-06 
  145000  0.021351814       18 1.6938674e-14 1.8456623e-05 5.8793017e-06 
  146000  0.025570869       18 1.6938674e-14 1.8456696e-05 5.8792788e-06 
  147000  0.030385971       18 1.6938674e-14 1.8456769e-05 5.8792558e-06 
  148000  0.034778833       18 1.6938674e-14 1.8456842e-05 5.8792327e-06 
  149000  0.039871931       18 1.6938674e-14 1.8456915e-05 5.8792097e-06 
  150000   0.04440999       18 1.6938674e-14 1.8456988e-05 5.8791867e-06 
  150015  0.044490814       18 1.6938674e-14 2.2044665e-05 5.8793944e-06 
Loop time of 0.0445001 on 4 procs for 10000 steps with 18 atoms

100.0% CPU use with 4 MPI tasks x no OpenMP threads
timestep 300
fix_modify k1 demflag 0
fix_modify vf1 demflag 0
fix_modify d1 demflag 0
Step CPU Atoms biomass c_myPres c_myHeight 
  150015            0       18 1.6938674e-14 2.2044665e-05 5.8793944e-06 
number of iterations: 1472 
S-sub-bulk = 2.905653e-02
S-sub-base = 2.908407e-02
S-o2-bulk = 1.000000e-02
S-o2-base = 9.996358e-03

  150016  0.069908857       18 1.7219277e-14 0.0003953218 6.8501574e-06 
Loop time of 0.0699224 on 4 procs for 1 steps with 18 atoms

100.0% CPU use with 4 MPI tasks x no OpenMP threads
fix_modify k1 demflag 1
fix_modify vf1 demflag 1
fix_modify d1 demflag 1
delete_atoms region reg3
Deleted 0 atoms, new total = 18
timestep 1e-3
run 10000 pre no post no
Step CPU Atoms biomass c_myPres c_myHeight 
  150016            0       18 1.7219277e-14 0.0003953218 5.8916712e-06 
  151000 0.0044329166       18 1.7219277e-14 1.2620766e-05 5.9230352e-06 
  152000 0.0093839169       18 1.7219277e-14 1.147155e-05 5.9230059e-06 
  153000  0.013921976       18 1.7219277e-14 1.084732e-05 5.922973e-06 
  154000  0.019024849       18 1.7219277e-14 1.1420495e-05 5.9229424e-06 
  155000  0.023598909       18 1.7219277e-14 1.1019788e-05 5.9229054e-06 
  156000  0.028013945       18 1.7219277e-14 9.9215719e-06 5.9228727e-06 
  157000  0.032431841       18 1.7219277e-14 1.1849159e-05 5.922838e-06 
  158000  0.036840916       18 1.7219277e-14 9.5653125e-06 5.9228053e-06 
  159000  0.041287899       18 1.7219277e-14 6.9754031e-06 5.9227718e-06 
  160000  0.045689821       18 1.7219277e-14 1.1993028e-05 5.9227321e-06 
  160016  0.045782804       18 1.7219277e-14 1.1991885e-05 5.9227315e-06 
Loop time of 0.0457932 on 4 procs for 10000 steps with 18 atoms

100.0% CPU use with 4 MPI tasks x no OpenMP threads
timestep 300
fix_modify k1 demflag 0
fix_modify vf1 demflag 0
fix_modify d1 demflag 0
Step CPU Atoms biomass c_myPres c_myHeight 
  160016            0       18 1.7219277e-14 1.1991885e-05 5.9227315e-06 
number of iterations: 1466 
S-sub-bulk = 2.901071e-02
S-sub-base = 2.903689e-02
S-o2-bulk = 1.000000e-02
S-o2-base = 9.996327e-03

  160017  0.069835186       18 1.7504468e-14 0.00045467279 6.9080059e-06 
Loop time of 0.0698483 on 4 procs for 1 steps with 18 atoms

100.0% CPU use with 4 MPI tasks x no OpenMP threads
fix_modify k1 demflag 1
fix_modify vf1 demflag 1
fix_modify d1 demflag 1
delete_atoms region reg3
Deleted 0 atoms, new total = 18
timestep 1e-3
run 10000 pre no post no
Step CPU Atoms biomass c_myPres c_myHeight 
  160017            0       18 1.7504468e-14 0.00045467279 5.9345569e-06 
  161000 0.0041630268       18 1.7504468e-14 1.6167311e-05 5.9827105e-06 
  162000 0.0082688332       18 1.7504468e-14 1.898534e-05 5.9825906e-06 
  163000  0.012533903       18 1.7504468e-14 1.8959453e-05 5.9825629e-06 
  164000  0.016641855       18 1.7504468e-14 1.8934263e-05 5.9825351e-06 
  165000  0.020823956       18 1.7504468e-14 1.8909753e-05 5.982507e-06 
  166000  0.025005817       18 1.7504468e-14 1.8834298e-05 5.982482e-06 
  167000  0.029394865       18 1.7504468e-14 1.8757448e-05 5.9824569e-06 
  168000  0.034355879       18 1.7504468e-14 1.8681206e-05 5.9825691e-06 
  169000  0.038977861       18 1.7504468e-14 1.8605531e-05 5.9825448e-06 
  170000   0.04340601       18 1.7504468e-14 1.8529761e-05 5.9825142e-06 
  170017  0.043499947       18 1.7504468e-14 2.5114445e-05 5.9821568e-06 
Loop time of 0.0435097 on 4 procs for 10000 steps with 18 atoms

100.0% CPU use with 4 MPI tasks x no OpenMP threads
timestep 300
fix_modify k1 demflag 0
fix_modify vf1 demflag 0
fix_modify d1 demflag 0
Step CPU Atoms biomass c_myPres c_myHeight 
  170017            0       18 1.7504468e-14 2.5114445e-05 5.9821568e-06 
number of iterations: 1459 
S-sub-bulk = 2.896582e-02
S-sub-base = 2.899073e-02
S-o2-bulk = 1.000000e-02
S-o2-base = 9.996279e-03

  170018  0.069774151       18 1.7794321e-14 0.0004012817 6.9879332e-06 
Loop time of 0.0697895 on 4 procs for 1 steps with 18 atoms

100.0% CPU use with 4 MPI tasks x no OpenMP threads
fix_modify k1 demflag 1
fix_modify vf1 demflag 1
fix_modify d1 demflag 1
delete_atoms region reg3
Deleted 0 atoms, new total = 18
timestep 1e-3
run 10000 pre no post no
Step CPU Atoms biomass c_myPres c_myHeight 
  170018            0       18 1.7794321e-14 0.0004012817 5.9951307e-06 
  171000 0.0043768883       18 1.7794321e-14 2.7055204e-05 6.0335789e-06 
  172000 0.0092930794       18 1.7794321e-14 2.9107431e-05 6.033548e-06 
  173000  0.014883995       18 1.7794321e-14 2.7681768e-05 6.033518e-06 
  174000  0.020075083       18 1.7794321e-14 2.9187819e-05 6.033487e-06 
  175000  0.024580956       18 1.7794321e-14 2.5941876e-05 6.0334569e-06 
  176000  0.028976917       18 1.7794321e-14 2.7761573e-05 6.0334268e-06 
  177000  0.033324003       18 1.7794321e-14 2.730464e-05 6.0333953e-06 
  178000  0.037672997       18 1.7794321e-14 2.6973846e-05 6.0333654e-06 
  179000   0.04202795       18 1.7794321e-14 2.5661158e-05 6.0333348e-06 
  180000  0.046365023       18 1.7794321e-14 2.7096174e-05 6.0333045e-06 
  180018  0.046468019       18 1.7794321e-14 2.7192662e-05 6.0333039e-06 
Loop time of 0.0464799 on 4 procs for 10000 steps with 18 atoms

100.0% CPU use with 4 MPI tasks x no OpenMP threads
timestep 300
fix_modify k1 demflag 0
fix_modify vf1 demflag 0
fix_modify d1 demflag 0
Step CPU Atoms biomass c_myPres c_myHeight 
  180018            0       18 1.7794321e-14 2.7192662e-05 6.0333039e-06 
number of iterations: 1452 
S-sub-bulk = 2.892179e-02
S-sub-base = 2.894549e-02
S-o2-bulk = 1.000000e-02
S-o2-base = 9.996221e-03

  180019    0.0730021       18 1.8088913e-14 0.00044332176 7.0567702e-06 
Loop time of 0.0730145 on 4 procs for 1 steps with 18 atoms

100.0% CPU use with 4 MPI tasks x no OpenMP threads
fix_modify k1 demflag 1
fix_modify vf1 demflag 1
fix_modify d1 demflag 1
delete_atoms region reg3
Deleted 0 atoms, new total = 18
timestep 1e-3
run 10000 pre no post no
Step CPU Atoms biomass c_myPres c_myHeight 
  180019            0       18 1.8088913e-14 0.00044332176 6.0467781e-06 
  181000  0.004338026       18 1.8088913e-14 4.2115744e-05 6.0885119e-06 
  182000 0.0087749958       18 1.8088913e-14 4.2098878e-05 6.0885049e-06 
  183000  0.013544798       18 1.8088913e-14 4.2037257e-05 6.0885008e-06 
  184000  0.017951012       18 1.8088913e-14 4.1973806e-05 6.0884969e-06 
  185000  0.022933006       18 1.8088913e-14 4.0707227e-05 6.0884933e-06 
  186000  0.027449846       18 1.8088913e-14 4.0641371e-05 6.0884898e-06 
  187000  0.031775951       18 1.8088913e-14 4.0574326e-05 6.0884779e-06 
  188000  0.036077976       18 1.8088913e-14 4.0506067e-05 6.088466e-06 
  189000  0.040339947       18 1.8088913e-14 4.043657e-05 6.088454e-06 
  190000   0.04466486       18 1.8088913e-14 4.0365807e-05 6.088442e-06 
  190019   0.04477191       18 1.8088913e-14 3.0091157e-05 6.0889395e-06 
Loop time of 0.0447817 on 4 procs for 10000 steps with 18 atoms

100.0% CPU use with 4 MPI tasks x no OpenMP threads
timestep 300
fix_modify k1 demflag 0
fix_modify vf1 demflag 0
fix_modify d1 demflag 0
Step CPU Atoms biomass c_myPres c_myHeight 
  190019            0       18 1.8088913e-14 3.0091157e-05 6.0889395e-06 
number of iterations: 1962 
S-sub-bulk = 2.887854e-02
S-sub-base = 2.889463e-02
S-o2-bulk = 1.000000e-02
S-o2-base = 9.994961e-03

  190020   0.12549901       18 1.8388312e-14 0.00045883254 7.1284861e-06 
Loop time of 0.125513 on 4 procs for 1 steps with 18 atoms

100.0% CPU use with 4 MPI tasks x no OpenMP threads
fix_modify k1 demflag 1
fix_modify vf1 demflag 1
fix_modify d1 demflag 1
delete_atoms region reg3
Deleted 0 atoms, new total = 18
timestep 1e-3
run 10000 pre no post no
Step CPU Atoms biomass c_myPres c_myHeight 
  190020            0       18 1.8388312e-14 0.00045883254 6.1011921e-06 
  191000 0.0044400692       18 1.8388312e-14 4.7286267e-05 6.1398237e-06 
  192000 0.0088970661       18 1.8388312e-14 4.7545656e-05 6.1398019e-06 
  193000  0.013553143       18 1.8388312e-14 4.7055555e-05 6.1397388e-06 
  194000  0.017963171       18 1.8388312e-14 4.7054964e-05 6.1397225e-06 
  195000  0.022375107       18 1.8388312e-14 4.7054368e-05 6.1397061e-06 
  196000  0.026982069       18 1.8388312e-14 4.7053768e-05 6.1396897e-06 
  197000  0.031859159       18 1.8388312e-14 4.7053163e-05 6.1396752e-06 
  198000  0.036837101       18 1.8388312e-14 4.7052555e-05 6.1396615e-06 
  199000  0.041917086       18 1.8388312e-14 4.7024717e-05 6.1396444e-06 
  200000  0.046495199       18 1.8388312e-14 4.7040218e-05 6.1396267e-06 
  200020  0.046610117       18 1.8388312e-14 4.7041112e-05 6.1396263e-06 
Loop time of 0.0466192 on 4 procs for 10000 steps with 18 atoms

100.0% CPU use with 4 MPI tasks x no OpenMP threads
timestep 300
fix_modify k1 demflag 0
fix_modify vf1 demflag 0
fix_modify d1 demflag 0
Step CPU Atoms biomass c_myPres c_myHeight 
  200020            0       18 1.8388312e-14 4.7041112e-05 6.1396263e-06 
number of iterations: 1885 
S-sub-bulk = 2.883600e-02
S-sub-base = 2.885091e-02
S-o2-bulk = 1.000000e-02
S-o2-base = 9.994841e-03

  200021   0.10598993       18 1.8692606e-14 0.00048868144 7.1924682e-06 
Loop time of 0.106004 on 4 procs for 1 steps with 18 atoms

99.9% CPU use with 4 MPI tasks x no OpenMP threads
fix_modify k1 demflag 1
fix_modify vf1 demflag 1
fix_modify d1 demflag 1
delete_atoms region reg3
Deleted 0 atoms, new total = 18
timestep 1e-3
run 10000 pre no post no
Step CPU Atoms biomass c_myPres c_myHeight 
  200021            0       18 1.8692606e-14 0.00048868144  6.15212e-06 
  201000 0.0044829845       18 1.8692606e-14 4.2873212e-05 6.188524e-06 
  202000 0.0090379715       18 1.8692606e-14  4.33597e-05 6.1886685e-06 
  203000  0.013839006       18 1.8692606e-14 4.2976127e-05 6.1884656e-06 
  204000  0.018385887       18 1.8692606e-14 4.3614726e-05 6.1885801e-06 
  205000  0.022950888       18 1.8692606e-14 4.1470064e-05 6.1884802e-06 
  206000  0.027707815       18 1.8692606e-14 4.2409831e-05 6.188456e-06 
  207000  0.032275915       18 1.8692606e-14 4.1684388e-05 6.1884568e-06 
  208000  0.037436008       18 1.8692606e-14 4.2001588e-05 6.1884331e-06 
  209000   0.04250598       18 1.8692606e-14 4.379159e-05 6.188319e-06 
  210000  0.047117949       18 1.8692606e-14 4.0573337e-05 6.188627e-06 
  210021  0.047235966       18 1.8692606e-14 5.9609866e-05 6.1890998e-06 
Loop time of 0.047246 on 4 procs for 10000 steps with 18 atoms

100.0% CPU use with 4 MPI tasks x no OpenMP threads
timestep 300
fix_modify k1 demflag 0
fix_modify vf1 demflag 0
fix_modify d1 demflag 0
Step CPU Atoms biomass c_myPres c_myHeight 
  210021            0       18 1.8692606e-14 5.9609866e-05 6.1890998e-06 
number of iterations: 1877 
S-sub-bulk = 2.879411e-02
S-sub-base = 2.880790e-02
S-o2-bulk = 1.000000e-02
S-o2-base = 9.994777e-03

  210022   0.10345006       18 1.9001874e-14 0.00047404147 7.255125e-06 
Loop time of 0.103465 on 4 procs for 1 steps with 18 atoms

100.0% CPU use with 4 MPI tasks x no OpenMP threads
fix_modify k1 demflag 1
fix_modify vf1 demflag 1
fix_modify d1 demflag 1
delete_atoms region reg3
Deleted 0 atoms, new total = 18
timestep 1e-3
run 10000 pre no post no
Step CPU Atoms biomass c_myPres c_myHeight 
  210022            0       18 1.9001874e-14 0.00047404147 6.201328e-06 
  211000 0.0045280457       18 1.9001874e-14 4.6767134e-05 6.2403153e-06 
  212000 0.0090081692       18 1.9001874e-14 4.6920578e-05 6.2404913e-06 
  213000  0.013628006       18 1.9001874e-14 4.6895161e-05 6.2404752e-06 
  214000  0.018052101       18 1.9001874e-14 4.6869364e-05 6.2404592e-06 
  215000  0.022464037       18 1.9001874e-14 4.6843287e-05 6.2404431e-06 
  216000  0.028816223       18 1.9001874e-14 4.681693e-05 6.240427e-06 
  217000  0.033238173       18 1.9001874e-14 4.6790292e-05 6.2404108e-06 
  218000  0.038242102       18 1.9001874e-14 4.676337e-05 6.2403947e-06 
  219000  0.043052197       18 1.9001874e-14 4.6736165e-05 6.2403786e-06 
  220000  0.047480106       18 1.9001874e-14 4.6708675e-05 6.2403625e-06 
  220022  0.047591209       18 1.9001874e-14 4.6708067e-05 6.2403621e-06 
Loop time of 0.0475996 on 4 procs for 10000 steps with 18 atoms

100.0% CPU use with 4 MPI tasks x no OpenMP threads
timestep 300
fix_modify k1 demflag 0
fix_modify vf1 demflag 0
fix_modify d1 demflag 0
Step CPU Atoms biomass c_myPres c_myHeight 
  220022            0       18 1.9001874e-14 4.6708067e-05 6.2403621e-06 
number of iterations: 1870 
S-sub-bulk = 2.875280e-02
S-sub-base = 2.876552e-02
S-o2-bulk = 1.000000e-02
S-o2-base = 9.994692e-03

  220023   0.10366917       18 1.9316198e-14 0.0004793441 7.319225e-06 
Loop time of 0.103685 on 4 procs for 1 steps with 18 atoms

100.0% CPU use with 4 MPI tasks x no OpenMP threads
fix_modify k1 demflag 1
fix_modify vf1 demflag 1
fix_modify d1 demflag 1
delete_atoms region reg3
Deleted 0 atoms, new total = 18
timestep 1e-3
run 10000 pre no post no
Step CPU Atoms biomass c_myPres c_myHeight 
  220023            0       18 1.9316198e-14 0.0004793441 6.2539166e-06 
  221000 0.0043179989       18 1.9316198e-14 3.8866919e-05 6.2890826e-06 
  222000 0.0087051392       18 1.9316198e-14 3.8872323e-05 6.2890582e-06 
  223000  0.013354063       18 1.9316198e-14 3.8877026e-05 6.2890337e-06 
  224000  0.017748117       18 1.9316198e-14 3.8881014e-05 6.2890092e-06 
  225000  0.022261143       18 1.9316198e-14  3.63787e-05 6.2889995e-06 
  226000   0.02682519       18 1.9316198e-14 3.6372047e-05 6.2889758e-06 
  227000  0.031644106       18 1.9316198e-14 3.636466e-05 6.289005e-06 
  228000  0.036416054       18 1.9316198e-14 3.6356524e-05 6.2889811e-06 
  229000  0.041390181       18 1.9316198e-14 3.6347627e-05 6.2889572e-06 
  230000  0.046491146       18 1.9316198e-14 3.6337952e-05 6.2889332e-06 
  230023  0.046635151       18 1.9316198e-14 4.4153733e-05 6.2893357e-06 
Loop time of 0.0466449 on 4 procs for 10000 steps with 18 atoms

100.0% CPU use with 4 MPI tasks x no OpenMP threads
timestep 300
fix_modify k1 demflag 0
fix_modify vf1 demflag 0
fix_modify d1 demflag 0
Step CPU Atoms biomass c_myPres c_myHeight 
  230023            0       18 1.9316198e-14 4.4153733e-05 6.2893357e-06 
number of iterations: 1864 
S-sub-bulk = 2.871201e-02
S-sub-base = 2.872372e-02
S-o2-bulk = 1.000000e-02
S-o2-base = 9.994576e-03

  230024   0.10454702       18 1.963566e-14 0.00049852753 7.3804429e-06 
Loop time of 0.104558 on 4 procs for 1 steps with 18 atoms

100.0% CPU use with 4 MPI tasks x no OpenMP threads
fix_modify k1 demflag 1
fix_modify vf1 demflag 1
fix_modify d1 demflag 1
delete_atoms region reg3
Deleted 0 atoms, new total = 18
timestep 1e-3
run 10000 pre no post no
Step CPU Atoms biomass c_myPres c_myHeight 
  230024            0       18 1.963566e-14 0.00049852753 6.3019548e-06 
  231000 0.0042979717       18 1.963566e-14 2.7830254e-05 6.3420882e-06 
  232000 0.0086419582       18 1.963566e-14 2.6752298e-05 6.3420315e-06 
  233000  0.013477802       18 1.963566e-14 1.9104628e-05 6.3416213e-06 
  234000  0.017701864       18 1.963566e-14 2.0034632e-05 6.3416612e-06 
  235000  0.021942854       18 1.963566e-14 2.0994285e-05 6.3415253e-06 
  236000  0.026329994       18 1.963566e-14 2.1694246e-05 6.3415464e-06 
  237000  0.030525923       18 1.963566e-14 2.1554341e-05 6.3415674e-06 
  238000  0.034910917       18 1.963566e-14 2.4452628e-05 6.3419535e-06 
  239000  0.039554834       18 1.963566e-14 1.3352932e-05 6.3416077e-06 
  240000  0.043902874       18 1.963566e-14 1.3352485e-05 6.3415831e-06 
  240024  0.044028997       18 1.963566e-14 1.3352474e-05 6.3415825e-06 
Loop time of 0.0440383 on 4 procs for 10000 steps with 18 atoms

100.0% CPU use with 4 MPI tasks x no OpenMP threads
timestep 300
fix_modify k1 demflag 0
fix_modify vf1 demflag 0
fix_modify d1 demflag 0
Step CPU Atoms biomass c_myPres c_myHeight 
  240024            0       18 1.963566e-14 1.3352474e-05 6.3415825e-06 
number of iterations: 1859 
S-sub-bulk = 2.867169e-02
S-sub-base = 2.868242e-02
S-o2-bulk = 1.000000e-02
S-o2-base = 9.994471e-03

  240025   0.10452604       18 1.9960343e-14 0.00044093548 7.4488773e-06 
Loop time of 0.104538 on 4 procs for 1 steps with 18 atoms

100.0% CPU use with 4 MPI tasks x no OpenMP threads
fix_modify k1 demflag 1
fix_modify vf1 demflag 1
fix_modify d1 demflag 1
delete_atoms region reg3
Deleted 0 atoms, new total = 18
timestep 1e-3
run 10000 pre no post no
Step CPU Atoms biomass c_myPres c_myHeight 
  240025            0       18 1.9960343e-14 0.00044093548 6.3545928e-06 
  241000 0.0044460297       18 1.9960343e-14 3.4563237e-05 6.388158e-06 
  242000 0.0089490414       18 1.9960343e-14 3.9067056e-05 6.3884596e-06 
  243000  0.014009953       18 1.9960343e-14 4.1076096e-05 6.3884349e-06 
  244000  0.018505096       18 1.9960343e-14 4.2796132e-05 6.3884095e-06 
  245000  0.023036957       18 1.9960343e-14 4.0305974e-05 6.388385e-06 
  246000  0.028170109       18 1.9960343e-14 3.8530819e-05 6.3883603e-06 
  247000  0.032659054       18 1.9960343e-14 4.0416446e-05 6.3883355e-06 
  248000  0.037369967       18 1.9960343e-14 4.2036478e-05 6.3883101e-06 
  249000  0.042181015       18 1.9960343e-14 3.9352885e-05 6.3882867e-06 
  250000  0.046698093       18 1.9960343e-14 4.0514618e-05 6.3885077e-06 
  250025  0.046823978       18 1.9960343e-14 2.3953374e-05 6.3892117e-06 
Loop time of 0.0468328 on 4 procs for 10000 steps with 18 atoms

100.0% CPU use with 4 MPI tasks x no OpenMP threads
timestep 300
fix_modify k1 demflag 0
fix_modify vf1 demflag 0
fix_modify d1 demflag 0
Step CPU Atoms biomass c_myPres c_myHeight 
  250025            0       18 1.9960343e-14 2.3953374e-05 6.3892117e-06 
number of iterations: 1854 
S-sub-bulk = 2.863177e-02
S-sub-base = 2.864159e-02
S-o2-bulk = 1.000000e-02
S-o2-base = 9.994372e-03

  250026   0.10377884       18 2.0290332e-14 0.00047792573 7.5071232e-06 
Loop time of 0.103793 on 4 procs for 1 steps with 18 atoms

99.0% CPU use with 4 MPI tasks x no OpenMP threads
fix_modify k1 demflag 1
fix_modify vf1 demflag 1
fix_modify d1 demflag 1
delete_atoms region reg3
Deleted 0 atoms, new total = 18
timestep 1e-3
run 10000 pre no post no
Step CPU Atoms biomass c_myPres c_myHeight 
  250026            0       18 2.0290332e-14 0.00047792573 6.4016676e-06 
  251000 0.0041599274       18 2.0290332e-14 3.721966e-05 6.4371942e-06 
  252000 0.0083498955       18 2.0290332e-14 3.841514e-05 6.4371529e-06 
  253000  0.012711048       18 2.0290332e-14 3.7351904e-05 6.4371292e-06 
  254000  0.016902924       18 2.0290332e-14 3.8242615e-05 6.4370909e-06 
  255000  0.021115065       18 2.0290332e-14 3.7303442e-05 6.4370537e-06 
  256000  0.025326014       18 2.0290332e-14 3.8479004e-05 6.4370012e-06 
  257000  0.029592991       18 2.0290332e-14 3.8597453e-05 6.4369822e-06 
  258000   0.03371501       18 2.0290332e-14 3.9034519e-05 6.4369211e-06 
  259000   0.03845191       18 2.0290332e-14 3.7074829e-05 6.4369114e-06 
  260000  0.042937994       18 2.0290332e-14 3.6458527e-05 6.4368699e-06 
  260026  0.043070078       18 2.0290332e-14 3.7588648e-05 6.4368563e-06 
Loop time of 0.0430793 on 4 procs for 10000 steps with 18 atoms

100.0% CPU use with 4 MPI tasks x no OpenMP threads
timestep 300
fix_modify k1 demflag 0
fix_modify vf1 demflag 0
fix_modify d1 demflag 0
Step CPU Atoms biomass c_myPres c_myHeight 
  260026            0       18 2.0290332e-14 3.7588648e-05 6.4368563e-06 
number of iterations: 1849 
S-sub-bulk = 2.859221e-02
S-sub-base = 2.860115e-02
S-o2-bulk = 1.000000e-02
S-o2-base = 9.994311e-03

  260027   0.10219789       18 2.0625713e-14 0.00049245383 7.5679375e-06 
Loop time of 0.102211 on 4 procs for 1 steps with 18 atoms

100.0% CPU use with 4 MPI tasks x no OpenMP threads
fix_modify k1 demflag 1
fix_modify vf1 demflag 1
fix_modify d1 demflag 1
delete_atoms region reg3
Deleted 0 atoms, new total = 18
timestep 1e-3
run 10000 pre no post no
Step CPU Atoms biomass c_myPres c_myHeight 
  260027            0       18 2.0625713e-14 0.00049245383 6.4506499e-06 
  261000 0.0046458244       18 2.0625713e-14 7.5090845e-05 6.4814853e-06 
  262000 0.0089759827       18 2.0625713e-14 5.5289741e-05 6.4827371e-06 
  263000  0.013799906       18 2.0625713e-14 2.9614632e-05 6.4839894e-06 
  264000  0.018136024       18 2.0625713e-14 4.0638262e-05 6.4839957e-06 
  265000  0.022487879       18 2.0625713e-14 4.0559009e-05 6.4839625e-06 
  266000  0.027482986       18 2.0625713e-14 4.0479297e-05 6.4839293e-06 
  267000  0.031863928       18 2.0625713e-14 4.0399134e-05 6.483896e-06 
  268000  0.036245823       18 2.0625713e-14 4.0318525e-05 6.4838627e-06 
  269000  0.040796041       18 2.0625713e-14 4.0237477e-05 6.4838294e-06 
  270000  0.045265913       18 2.0625713e-14 4.0215577e-05 6.4837963e-06 
  270027  0.045416832       18 2.0625713e-14 1.8557732e-05 6.4832157e-06 
Loop time of 0.0454269 on 4 procs for 10000 steps with 18 atoms

100.0% CPU use with 4 MPI tasks x no OpenMP threads
timestep 300
fix_modify k1 demflag 0
fix_modify vf1 demflag 0
fix_modify d1 demflag 0
Step CPU Atoms biomass c_myPres c_myHeight 
  270027            0       18 2.0625713e-14 1.8557732e-05 6.4832157e-06 
number of iterations: 1842 
S-sub-bulk = 2.855295e-02
S-sub-base = 2.856154e-02
S-o2-bulk = 1.000000e-02
S-o2-base = 9.994265e-03

  270028   0.10142112       18 2.0966575e-14 0.00051222275 7.6243348e-06 
Loop time of 0.101433 on 4 procs for 1 steps with 18 atoms

100.0% CPU use with 4 MPI tasks x no OpenMP threads
fix_modify k1 demflag 1
fix_modify vf1 demflag 1
fix_modify d1 demflag 1
delete_atoms region reg3
Deleted 0 atoms, new total = 18
timestep 1e-3
run 10000 pre no post no
Step CPU Atoms biomass c_myPres c_myHeight 
  270028            0       18 2.0966575e-14 0.00051222275 6.4970955e-06 
  271000 0.0045080185       18 2.0966575e-14 2.0146678e-05 6.5288669e-06 
  272000 0.0088908672       18 2.0966575e-14 1.9305937e-05 6.5287121e-06 
  273000  0.013673067       18 2.0966575e-14 1.9253473e-05 6.5286826e-06 
  274000   0.01855588       18 2.0966575e-14 1.9200859e-05 6.5286535e-06 
  275000  0.022959948       18 2.0966575e-14 1.9148361e-05 6.5286246e-06 
  276000  0.027368069       18 2.0966575e-14 1.9096217e-05 6.528596e-06 
  277000   0.03174901       18 2.0966575e-14 1.9044635e-05 6.5285677e-06 
  278000  0.036195993       18 2.0966575e-14 1.8993796e-05 6.5285397e-06 
  279000  0.040616035       18 2.0966575e-14 1.8943856e-05 6.5285119e-06 
  280000  0.045020103       18 2.0966575e-14 1.8894946e-05 6.5284843e-06 
  280028  0.045167923       18 2.0966575e-14 1.8893592e-05 6.5284835e-06 
Loop time of 0.0451787 on 4 procs for 10000 steps with 18 atoms

100.0% CPU use with 4 MPI tasks x no OpenMP threads
timestep 300
fix_modify k1 demflag 0
fix_modify vf1 demflag 0
fix_modify d1 demflag 0
Step CPU Atoms biomass c_myPres c_myHeight 
  280028            0       18 2.0966575e-14 1.8893592e-05 6.5284835e-06 
number of iterations: 1843 
S-sub-bulk = 2.851395e-02
S-sub-base = 2.852175e-02
S-o2-bulk = 1.000000e-02
S-o2-base = 9.994202e-03

  280029   0.10110307       18 2.1313006e-14 0.0004688724 7.6854287e-06 
Loop time of 0.101118 on 4 procs for 1 steps with 18 atoms

100.0% CPU use with 4 MPI tasks x no OpenMP threads
fix_modify k1 demflag 1
fix_modify vf1 demflag 1
fix_modify d1 demflag 1
delete_atoms region reg3
Deleted 0 atoms, new total = 18
timestep 1e-3
run 10000 pre no post no
Step CPU Atoms biomass c_myPres c_myHeight 
  280029            0       18 2.1313006e-14 0.0004688724 6.5428594e-06 
  281000 0.0045218468       18 2.1313006e-14 4.1105363e-05 6.5735543e-06 
  282000 0.0090708733       18 2.1313006e-14 4.076743e-05 6.5735338e-06 
  283000  0.013744831       18 2.1313006e-14 3.9596575e-05 6.5735326e-06 
  284000  0.018200874       18 2.1313006e-14 3.7494869e-05 6.5734779e-06 
  285000  0.022688866       18 2.1313006e-14 3.9606813e-05 6.5734468e-06 
  286000  0.027302027       18 2.1313006e-14  3.84601e-05 6.5735928e-06 
  287000  0.031839848       18 2.1313006e-14 3.8571318e-05 6.5735058e-06 
  288000  0.036535025       18 2.1313006e-14 3.8906778e-05 6.5740284e-06 
  289000  0.041742802       18 2.1313006e-14 3.9745565e-05 6.5736714e-06 
  290000  0.046291828       18 2.1313006e-14 4.011678e-05 6.5736831e-06 
  290029  0.046438932       18 2.1313006e-14 5.6896974e-05 6.5727763e-06 
Loop time of 0.0464477 on 4 procs for 10000 steps with 18 atoms

100.0% CPU use with 4 MPI tasks x no OpenMP threads
timestep 300
fix_modify k1 demflag 0
fix_modify vf1 demflag 0
fix_modify d1 demflag 0
Step CPU Atoms biomass c_myPres c_myHeight 
  290029            0       18 2.1313006e-14 5.6896974e-05 6.5727763e-06 
number of iterations: 1840 
S-sub-bulk = 2.847517e-02
S-sub-base = 2.848222e-02
S-o2-bulk = 1.000000e-02
S-o2-base = 9.994113e-03

  290030   0.10240102       18 2.1665095e-14 0.00059752051 7.7395305e-06 
Loop time of 0.102414 on 4 procs for 1 steps with 18 atoms

100.0% CPU use with 4 MPI tasks x no OpenMP threads
fix_modify k1 demflag 1
fix_modify vf1 demflag 1
fix_modify d1 demflag 1
delete_atoms region reg3
Deleted 0 atoms, new total = 18
timestep 1e-3
run 10000 pre no post no
Step CPU Atoms biomass c_myPres c_myHeight 
  290030            0       18 2.1665095e-14 0.00059752051 6.5871435e-06 
  291000 0.0046629906       18 2.1665095e-14 3.5468291e-05 6.6220694e-06 
  292000 0.0093729496       18 2.1665095e-14 3.5463186e-05 6.622063e-06 
  293000  0.014596939       18 2.1665095e-14 3.5457806e-05 6.6220627e-06 
  294000  0.019292831       18 2.1665095e-14 3.5452181e-05 6.6220615e-06 
  295000   0.02402091       18 2.1665095e-14 3.5446348e-05 6.6220594e-06 
  296000  0.029356003       18 2.1665095e-14 3.5440344e-05 6.6220566e-06 
  297000  0.034062862       18 2.1665095e-14 3.5434206e-05 6.6220529e-06 
  298000  0.039247036       18 2.1665095e-14 3.5427967e-05 6.6220485e-06 
  299000  0.044216871       18 2.1665095e-14 3.5421661e-05 6.6220434e-06 
  300000   0.04894495       18 2.1665095e-14 3.5415321e-05 6.6220375e-06 
  300030  0.049099922       18 2.1665095e-14 3.5415131e-05 6.6220374e-06 
Loop time of 0.0491092 on 4 procs for 10000 steps with 18 atoms

100.0% CPU use with 4 MPI tasks x no OpenMP threads
timestep 300
fix_modify k1 demflag 0
fix_modify vf1 demflag 0
fix_modify d1 demflag 0
Step CPU Atoms biomass c_myPres c_myHeight 
  300030            0       18 2.1665095e-14 3.5415131e-05 6.6220374e-06 
number of iterations: 1838 
S-sub-bulk = 2.843655e-02
S-sub-base = 2.844289e-02
S-o2-bulk = 1.000000e-02
S-o2-base = 9.994015e-03

  300031   0.10243702       18 2.2022935e-14 0.00062648648 7.8009734e-06 
Loop time of 0.10245 on 4 procs for 1 steps with 18 atoms

100.0% CPU use with 4 MPI tasks x no OpenMP threads
fix_modify k1 demflag 1
fix_modify vf1 demflag 1
fix_modify d1 demflag 1
delete_atoms region reg3
Deleted 0 atoms, new total = 18
timestep 1e-3
run 10000 pre no post no
Step CPU Atoms biomass c_myPres c_myHeight 
  300031            0       18 2.2022935e-14 0.00062648648 6.6343645e-06 
  301000  0.004832983       18 2.2022935e-14 4.3101587e-05 6.6708441e-06 
  302000 0.0095319748       18 2.2022935e-14 4.7179399e-05 6.6718341e-06 
  303000  0.014381886       18 2.2022935e-14 4.8126712e-05 6.6719741e-06 
  304000  0.019074917       18 2.2022935e-14 4.9784737e-05 6.6717711e-06 
  305000  0.023758888       18 2.2022935e-14 4.8372622e-05 6.6719085e-06 
  306000  0.029104948       18 2.2022935e-14 4.8476015e-05 6.6716897e-06 
  307000  0.035345078       18 2.2022935e-14  4.72345e-05 6.6718363e-06 
  308000  0.040684938       18 2.2022935e-14 4.7878801e-05 6.6719877e-06 
  309000  0.045410872       18 2.2022935e-14 4.7576303e-05 6.6717871e-06 
  310000  0.050035954       18 2.2022935e-14 4.8281048e-05 6.6719484e-06 
  310031  0.050194979       18 2.2022935e-14 4.2916868e-05 6.6722179e-06 
Loop time of 0.0502045 on 4 procs for 10000 steps with 18 atoms

100.0% CPU use with 4 MPI tasks x no OpenMP threads
timestep 300
fix_modify k1 demflag 0
fix_modify vf1 demflag 0
fix_modify d1 demflag 0
Step CPU Atoms biomass c_myPres c_myHeight 
  310031            0       18 2.2022935e-14 4.2916868e-05 6.6722179e-06 
number of iterations: 1837 
S-sub-bulk = 2.839806e-02
S-sub-base = 2.840372e-02
S-o2-bulk = 1.000000e-02
S-o2-base = 9.993878e-03

  310032   0.10578299       18 2.2386618e-14 0.00054889805 7.8742248e-06 
Loop time of 0.105798 on 4 procs for 1 steps with 18 atoms

100.0% CPU use with 4 MPI tasks x no OpenMP threads
fix_modify k1 demflag 1
fix_modify vf1 demflag 1
fix_modify d1 demflag 1
delete_atoms region reg3
Deleted 0 atoms, new total = 18
timestep 1e-3
run 10000 pre no post no
Step CPU Atoms biomass c_myPres c_myHeight 
  310032            0       18 2.2386618e-14 0.00054889805 6.6855409e-06 
  311000 0.0054140091       18 2.2386618e-14 9.0500994e-05 6.7358438e-06 
  312000  0.010385036       18 2.2386618e-14 5.0915671e-05 6.7444542e-06 
  313000  0.015053034       18 2.2386618e-14 1.6918202e-05 6.7439221e-06 
  314000  0.019273996       18 2.2386618e-14 1.6917954e-05 6.7439046e-06 
  315000  0.023530006       18 2.2386618e-14 1.6917707e-05 6.7438867e-06 
  316000  0.029579163       18 2.2386618e-14 1.6917029e-05 6.7438686e-06 
  317000  0.034075975       18 2.2386618e-14 1.6916782e-05 6.7438502e-06 
  318000  0.038749933       18 2.2386618e-14 1.6916536e-05 6.7438314e-06 
  319000  0.043381929       18 2.2386618e-14 1.691629e-05 6.7438123e-06 
  320000  0.047668934       18 2.2386618e-14 3.826415e-05 6.7445786e-06 
  320032  0.047826052       18 2.2386618e-14 3.411324e-05 6.7442379e-06 
Loop time of 0.0478349 on 4 procs for 10000 steps with 18 atoms

100.0% CPU use with 4 MPI tasks x no OpenMP threads
timestep 300
fix_modify k1 demflag 0
fix_modify vf1 demflag 0
fix_modify d1 demflag 0
Step CPU Atoms biomass c_myPres c_myHeight 
  320032            0       18 2.2386618e-14 3.411324e-05 6.7442379e-06 
number of iterations: 1836 
S-sub-bulk = 2.835966e-02
S-sub-base = 2.836467e-02
S-o2-bulk = 1.000000e-02
S-o2-base = 9.993775e-03

  320033   0.10319805       18 2.2756238e-14 0.00050419773 7.9744756e-06 
Loop time of 0.103214 on 4 procs for 1 steps with 18 atoms

100.0% CPU use with 4 MPI tasks x no OpenMP threads
fix_modify k1 demflag 1
fix_modify vf1 demflag 1
fix_modify d1 demflag 1
delete_atoms region reg3
Deleted 0 atoms, new total = 18
timestep 1e-3
run 10000 pre no post no
Step CPU Atoms biomass c_myPres c_myHeight 
  320033            0       18 2.2756238e-14 0.00050419773 7.1002206e-06 
  321000 0.0047290325       18 2.2756238e-14 4.9213565e-05 7.1540243e-06 
  322000 0.0093390942       18 2.2756238e-14 4.5397383e-05 7.1542122e-06 
  323000  0.014255047       18 2.2756238e-14 5.3038609e-05  7.15402e-06 
  324000  0.018883944       18 2.2756238e-14 4.8263034e-05 7.1542519e-06 
  325000  0.023523092       18 2.2756238e-14 4.4895953e-05 7.1541243e-06 
  326000  0.028694153       18 2.2756238e-14 4.6870796e-05 7.1539356e-06 
  327000   0.03342104       18 2.2756238e-14 4.164154e-05 7.1541748e-06 
  328000  0.038692951       18 2.2756238e-14 4.5619111e-05 7.1539944e-06 
  329000  0.043404102       18 2.2756238e-14 4.5658435e-05 7.1538279e-06 
  330000  0.047938108       18 2.2756238e-14 4.493052e-05 7.154049e-06 
  330033  0.048109055       18 2.2756238e-14 3.8517554e-05 7.1544613e-06 
Loop time of 0.0481186 on 4 procs for 10000 steps with 18 atoms

100.0% CPU use with 4 MPI tasks x no OpenMP threads
timestep 300
fix_modify k1 demflag 0
fix_modify vf1 demflag 0
fix_modify d1 demflag 0
Step CPU Atoms biomass c_myPres c_myHeight 
  330033            0       18 2.2756238e-14 3.8517554e-05 7.1544613e-06 
number of iterations: 1831 
S-sub-bulk = 2.832131e-02
S-sub-base = 2.832612e-02
S-o2-bulk = 1.000000e-02
S-o2-base = 9.993699e-03

  330034   0.10242915       19 2.3131893e-14 0.0015302205 8.2832263e-06 
Loop time of 0.102443 on 4 procs for 1 steps with 19 atoms

100.0% CPU use with 4 MPI tasks x no OpenMP threads
fix_modify k1 demflag 1
fix_modify vf1 demflag 1
fix_modify d1 demflag 1
delete_atoms region reg3
Deleted 0 atoms, new total = 19
timestep 1e-3
run 10000 pre no post no
Step CPU Atoms biomass c_myPres c_myHeight 
  330034            0       19 2.3131893e-14 0.0015302205 7.2787999e-06 
  331000 0.0051760674       19 2.3131893e-14 5.4218399e-05 8.448956e-06 
  332000  0.009704113       19 2.3131893e-14 2.042884e-05 8.4535578e-06 
  333000  0.014212132       19 2.3131893e-14 2.0394696e-05 8.4535326e-06 
  334000  0.018520117       19 2.3131893e-14 2.0360734e-05 8.4535079e-06 
  335000  0.022881031       19 2.3131893e-14 2.0327055e-05 8.4534836e-06 
  336000  0.027348995       19 2.3131893e-14 1.2311483e-05 8.4544035e-06 
  337000  0.031615973       19 2.3131893e-14 1.2311651e-05 8.4543698e-06 
  338000  0.036173105       19 2.3131893e-14 1.2311818e-05 8.4543361e-06 
  339000  0.041002035       19 2.3131893e-14 1.2311986e-05 8.4543071e-06 
  340000  0.045477152       19 2.3131893e-14 1.2312154e-05 8.4542897e-06 
  340034  0.045648098       19 2.3131893e-14 1.2312159e-05 8.454289e-06 
Loop time of 0.0456583 on 4 procs for 10000 steps with 19 atoms

100.0% CPU use with 4 MPI tasks x no OpenMP threads
timestep 300
fix_modify k1 demflag 0
fix_modify vf1 demflag 0
fix_modify d1 demflag 0
Step CPU Atoms biomass c_myPres c_myHeight 
  340034            0       19 2.3131893e-14 1.2312159e-05 8.454289e-06 
number of iterations: 1830 
S-sub-bulk = 2.828297e-02
S-sub-base = 2.828779e-02
S-o2-bulk = 1.000000e-02
S-o2-base = 9.993671e-03

  340035   0.10517979       21 2.3513683e-14 0.0040894402 8.6285462e-06 
Loop time of 0.105194 on 4 procs for 1 steps with 21 atoms

99.9% CPU use with 4 MPI tasks x no OpenMP threads
fix_modify k1 demflag 1
fix_modify vf1 demflag 1
fix_modify d1 demflag 1
delete_atoms region reg3
Deleted 0 atoms, new total = 21
timestep 1e-3
run 10000 pre no post no
Step CPU Atoms biomass c_myPres c_myHeight 
  340035            0       21 2.3513683e-14 0.0040894402 7.9664395e-06 
  341000 0.0051250458       21 2.3513683e-14 3.9983225e-05 9.0500402e-06 
  342000 0.0098161697       21 2.3513683e-14 3.9947855e-05 9.0500249e-06 
  343000  0.014748096       21 2.3513683e-14 3.9912131e-05 9.0500091e-06 
  344000  0.019378185       21 2.3513683e-14 3.987619e-05 9.0499937e-06 
  345000  0.024028063       21 2.3513683e-14 3.9840162e-05 9.049978e-06 
  346000  0.029227018       21 2.3513683e-14 3.9804168e-05 9.049962e-06 
  347000  0.034000158       21 2.3513683e-14 3.9768315e-05 9.049945e-06 
  348000  0.039499998       21 2.3513683e-14 3.9412188e-05 9.0505191e-06 
  349000   0.04421401       21 2.3513683e-14 3.937721e-05 9.0505042e-06 
  350000  0.048877954       21 2.3513683e-14 3.9342641e-05 9.0504892e-06 
  350035   0.04906106       21 2.3513683e-14 2.6521207e-05 9.0533464e-06 
Loop time of 0.0490716 on 4 procs for 10000 steps with 21 atoms

100.0% CPU use with 4 MPI tasks x no OpenMP threads
timestep 300
fix_modify k1 demflag 0
fix_modify vf1 demflag 0
fix_modify d1 demflag 0
Step CPU Atoms biomass c_myPres c_myHeight 
  350035            0       21 2.3513683e-14 2.6521207e-05 9.0533464e-06 
number of iterations: 2409 
S-sub-bulk = 2.824462e-02
S-sub-base = 2.824175e-02
S-o2-bulk = 1.000000e-02
S-o2-base = 9.992362e-03

  350036   0.18169594       21 2.3901689e-14 0.00042891021 9.0627302e-06 
Loop time of 0.181709 on 4 procs for 1 steps with 21 atoms

100.0% CPU use with 4 MPI tasks x no OpenMP threads
fix_modify k1 demflag 1
fix_modify vf1 demflag 1
fix_modify d1 demflag 1
delete_atoms region reg3
Deleted 0 atoms, new total = 21
timestep 1e-3
run 10000 pre no post no
Step CPU Atoms biomass c_myPres c_myHeight 
  350036            0       21 2.3901689e-14 0.00042891021 8.0386602e-06 
  351000 0.0045630932       21 2.3901689e-14 2.0732485e-05 8.093143e-06 
  352000 0.0090479851       21 2.3901689e-14 2.0758762e-05 8.0931258e-06 
  353000  0.014080048       21 2.3901689e-14 2.0781056e-05 8.0931084e-06 
  354000  0.018556118       21 2.3901689e-14 2.0805783e-05 8.0930913e-06 
  355000   0.02305007       21 2.3901689e-14 2.0839976e-05 8.0930766e-06 
  356000  0.027739048       21 2.3901689e-14 2.0870236e-05 8.0930661e-06 
  357000  0.032246113       21 2.3901689e-14 2.0906782e-05 8.0930525e-06 
  358000  0.037250996       21 2.3901689e-14 2.0931965e-05 8.0930414e-06 
  359000  0.041771173       21 2.3901689e-14 2.0958199e-05 8.0930276e-06 
  360000   0.04626298       21 2.3901689e-14 2.0992284e-05 8.0930161e-06 
  360036  0.046446085       21 2.3901689e-14 2.1002022e-05 8.0930164e-06 
Loop time of 0.0464553 on 4 procs for 10000 steps with 21 atoms

100.0% CPU use with 4 MPI tasks x no OpenMP threads
timestep 300
fix_modify k1 demflag 0
fix_modify vf1 demflag 0
fix_modify d1 demflag 0
Step CPU Atoms biomass c_myPres c_myHeight 
  360036            0       21 2.3901689e-14 2.1002022e-05 8.0930164e-06 
number of iterations: 2925 
S-sub-bulk = 2.820622e-02
S-sub-base = 2.819442e-02
S-o2-bulk = 1.000000e-02
S-o2-base = 9.990699e-03

  360037    0.2412641       21 2.4296007e-14 0.00048015572 9.1293522e-06 
Loop time of 0.241277 on 4 procs for 1 steps with 21 atoms

100.0% CPU use with 4 MPI tasks x no OpenMP threads
fix_modify k1 demflag 1
fix_modify vf1 demflag 1
fix_modify d1 demflag 1
delete_atoms region reg3
Deleted 0 atoms, new total = 21
timestep 1e-3
run 10000 pre no post no
Step CPU Atoms biomass c_myPres c_myHeight 
  360037            0       21 2.4296007e-14 0.00048015572 8.1083226e-06 
  361000 0.0045888424       21 2.4296007e-14 3.7269583e-05 9.173205e-06 
  362000 0.0092008114       21 2.4296007e-14 3.7266102e-05 9.1731835e-06 
  363000  0.014125824       21 2.4296007e-14 3.7262615e-05 9.1731618e-06 
  364000  0.018710852       21 2.4296007e-14 3.7259154e-05 9.1731403e-06 
  365000  0.023330927       21 2.4296007e-14 3.7255681e-05 9.1731189e-06 
  366000  0.028452873       21 2.4296007e-14 3.7252199e-05 9.1730973e-06 
  367000  0.033067942       21 2.4296007e-14 3.724872e-05 9.1730757e-06 
  368000  0.037833929       21 2.4296007e-14 3.7245264e-05 9.1730541e-06 
  369000  0.042883873       21 2.4296007e-14 3.7241812e-05 9.1730327e-06 
  370000   0.04752183       21 2.4296007e-14 3.7238359e-05 9.1730108e-06 
  370037  0.047709942       21 2.4296007e-14 2.5163583e-05 9.1716538e-06 
Loop time of 0.0477184 on 4 procs for 10000 steps with 21 atoms

100.0% CPU use with 4 MPI tasks x no OpenMP threads
timestep 300
fix_modify k1 demflag 0
fix_modify vf1 demflag 0
fix_modify d1 demflag 0
Step CPU Atoms biomass c_myPres c_myHeight 
  370037            0       21 2.4296007e-14 2.5163583e-05 9.1716538e-06 
number of iterations: 2740 
S-sub-bulk = 2.816773e-02
S-sub-base = 2.815653e-02
S-o2-bulk = 1.000000e-02
S-o2-base = 9.990680e-03

  370038   0.19348001       23 2.469676e-14 0.0025152232 9.3179455e-06 
Loop time of 0.193494 on 4 procs for 1 steps with 23 atoms

100.0% CPU use with 4 MPI tasks x no OpenMP threads
fix_modify k1 demflag 1
fix_modify vf1 demflag 1
fix_modify d1 demflag 1
delete_atoms region reg3
Deleted 0 atoms, new total = 23
timestep 1e-3
run 10000 pre no post no
Step CPU Atoms biomass c_myPres c_myHeight 
  370038            0       23 2.469676e-14 0.0025152232 8.4405582e-06 
  371000 0.0046141148       23 2.469676e-14 2.9288899e-05 9.4509422e-06 
  372000 0.0092070103       23 2.469676e-14 2.8456527e-05 9.450864e-06 
  373000  0.014127016       23 2.469676e-14 2.845783e-05 9.4508324e-06 
  374000  0.018684149       23 2.469676e-14 2.8456566e-05 9.450804e-06 
  375000  0.023280144       23 2.469676e-14 2.8461024e-05 9.4507755e-06 
  376000     0.029284       23 2.469676e-14 2.8459775e-05 9.450747e-06 
  377000   0.03395009       23 2.469676e-14 2.8458506e-05 9.4507185e-06 
  378000  0.039373159       23 2.469676e-14 2.8457217e-05  9.45069e-06 
  379000  0.044076204       23 2.469676e-14 2.8455908e-05 9.4506615e-06 
  380000  0.048670053       23 2.469676e-14 2.8454767e-05 9.450633e-06 
  380038  0.048875093       23 2.469676e-14 2.8457375e-05 9.4506319e-06 
Loop time of 0.0488833 on 4 procs for 10000 steps with 23 atoms

100.0% CPU use with 4 MPI tasks x no OpenMP threads
timestep 300
fix_modify k1 demflag 0
fix_modify vf1 demflag 0
fix_modify d1 demflag 0
Step CPU Atoms biomass c_myPres c_myHeight 
  380038            0       23 2.469676e-14 2.8457375e-05 9.4506319e-06 
number of iterations: 2760 
S-sub-bulk = 2.812912e-02
S-sub-base = 2.811719e-02
S-o2-bulk = 1.000000e-02
S-o2-base = 9.990600e-03

  380039    0.1951499       23 2.5104047e-14 0.00045924871 9.4611494e-06 
Loop time of 0.195163 on 4 procs for 1 steps with 23 atoms

100.0% CPU use with 4 MPI tasks x no OpenMP threads
fix_modify k1 demflag 1
fix_modify vf1 demflag 1
fix_modify d1 demflag 1
delete_atoms region reg3
Deleted 0 atoms, new total = 23
timestep 1e-3
run 10000 pre no post no
Step CPU Atoms biomass c_myPres c_myHeight 
  380039            0       23 2.5104047e-14 0.00045924871 8.5137111e-06 
  381000 0.0045769215       23 2.5104047e-14 3.7904247e-05 8.5341193e-06 
  382000 0.0093290806       23 2.5104047e-14 3.7904124e-05 8.5341052e-06 
  383000  0.014335871       23 2.5104047e-14 3.7903488e-05 8.5340912e-06 
  384000  0.019064903       23 2.5104047e-14 3.7903365e-05 8.5340771e-06 
  385000  0.023823977       23 2.5104047e-14 3.7902728e-05 8.5340631e-06 
  386000  0.029070854       23 2.5104047e-14 3.7902092e-05 8.534049e-06 
  387000  0.033861876       23 2.5104047e-14 3.7901969e-05 8.5340349e-06 
  388000  0.039416075       23 2.5104047e-14 3.7901333e-05 8.5340208e-06 
  389000  0.044275045       23 2.5104047e-14 3.7900697e-05 8.5340068e-06 
  390000   0.04902792       23 2.5104047e-14 3.7900575e-05 8.5339927e-06 
  390039  0.049234867       23 2.5104047e-14 5.6839884e-05 8.5339215e-06 
Loop time of 0.0492449 on 4 procs for 10000 steps with 23 atoms

100.0% CPU use with 4 MPI tasks x no OpenMP threads
timestep 300
fix_modify k1 demflag 0
fix_modify vf1 demflag 0
fix_modify d1 demflag 0
Step CPU Atoms biomass c_myPres c_myHeight 
  390039            0       23 2.5104047e-14 5.6839884e-05 8.5339215e-06 
number of iterations: 2768 
S-sub-bulk = 2.809037e-02
S-sub-base = 2.807742e-02
S-o2-bulk = 1.000000e-02
S-o2-base = 9.990405e-03

  390040   0.19960713       24 2.5517971e-14 0.0009446029 1.0070392e-05 
Loop time of 0.199619 on 4 procs for 1 steps with 24 atoms

100.0% CPU use with 4 MPI tasks x no OpenMP threads
fix_modify k1 demflag 1
fix_modify vf1 demflag 1
fix_modify d1 demflag 1
delete_atoms region reg3
Deleted 0 atoms, new total = 24
timestep 1e-3
run 10000 pre no post no
Step CPU Atoms biomass c_myPres c_myHeight 
  390040            0       24 2.5517971e-14 0.0009446029 8.8335924e-06 
  391000 0.0047929287       24 2.5517971e-14 7.140455e-05 1.0125653e-05 
  392000 0.0097429752       24 2.5517971e-14 7.1408684e-05 1.0125634e-05 
  393000  0.015221119       24 2.5517971e-14 7.1412802e-05 1.0125615e-05 
  394000  0.020191908       24 2.5517971e-14 7.1416905e-05 1.0125596e-05 
  395000   0.02512908       24 2.5517971e-14 7.1420994e-05 1.0125577e-05 
  396000  0.030205965       24 2.5517971e-14 7.1425068e-05 1.0125558e-05 
  397000  0.035360098       24 2.5517971e-14 7.1429128e-05 1.0125539e-05 
  398000  0.040810108       24 2.5517971e-14 7.1433173e-05 1.012552e-05 
  399000   0.04600811       24 2.5517971e-14 7.1437204e-05 1.0125501e-05 
  400000  0.050964117       24 2.5517971e-14 7.1441221e-05 1.0125482e-05 
  400040  0.051195145       24 2.5517971e-14 7.1441382e-05 1.0125481e-05 
Loop time of 0.0512053 on 4 procs for 10000 steps with 24 atoms

100.0% CPU use with 4 MPI tasks x no OpenMP threads
timestep 300
fix_modify k1 demflag 0
fix_modify vf1 demflag 0
fix_modify d1 demflag 0
Step CPU Atoms biomass c_myPres c_myHeight 
  400040            0       24 2.5517971e-14 7.1441382e-05 1.0125481e-05 
number of iterations: 2760 
S-sub-bulk = 2.805144e-02
S-sub-base = 2.803828e-02
S-o2-bulk = 1.000000e-02
S-o2-base = 9.990276e-03

  400041   0.19707608       26 2.5938643e-14 0.0055552236 1.0223493e-05 
Loop time of 0.197089 on 4 procs for 1 steps with 26 atoms

100.0% CPU use with 4 MPI tasks x no OpenMP threads
fix_modify k1 demflag 1
fix_modify vf1 demflag 1
fix_modify d1 demflag 1
delete_atoms region reg3
Deleted 0 atoms, new total = 26
timestep 1e-3
run 10000 pre no post no
Step CPU Atoms biomass c_myPres c_myHeight 
  400041            0       26 2.5938643e-14 0.0055552236 8.934128e-06 
  401000 0.0058197975       26 2.5938643e-14 4.8593934e-05 1.0369598e-05 
  402000  0.011551857       26 2.5938643e-14 2.8174009e-05 1.0372708e-05 
  403000  0.016698837       26 2.5938643e-14 2.9840542e-05 1.0373114e-05 
  404000  0.021853924       26 2.5938643e-14 2.9906144e-05 1.0373114e-05 
  405000  0.027543783       26 2.5938643e-14 2.9078534e-05 1.0373107e-05 
  406000  0.032691956       26 2.5938643e-14 3.0773726e-05 1.0373106e-05 
  407000  0.038145781       26 2.5938643e-14 3.0200138e-05 1.0373106e-05 
  408000  0.043655872       26 2.5938643e-14 2.9855296e-05 1.0373098e-05 
  409000  0.048757792       26 2.5938643e-14 3.2039937e-05 1.0373098e-05 
  410000  0.053824902       26 2.5938643e-14 2.9411237e-05 1.0373098e-05 
  410041  0.054046869       26 2.5938643e-14 3.7820772e-05 1.0371463e-05 
Loop time of 0.0540565 on 4 procs for 10000 steps with 26 atoms

98.2% CPU use with 4 MPI tasks x no OpenMP threads
timestep 300
fix_modify k1 demflag 0
fix_modify vf1 demflag 0
fix_modify d1 demflag 0
Step CPU Atoms biomass c_myPres c_myHeight 
  410041            0       26 2.5938643e-14 3.7820772e-05 1.0371463e-05 
number of iterations: 2755 
S-sub-bulk = 2.801231e-02
S-sub-base = 2.799976e-02
S-o2-bulk = 1.000000e-02
S-o2-base = 9.990244e-03

  410042   0.19507313       26 2.6366171e-14 0.00050321162 1.0383864e-05 
Loop time of 0.195084 on 4 procs for 1 steps with 26 atoms

100.0% CPU use with 4 MPI tasks x no OpenMP threads
fix_modify k1 demflag 1
fix_modify vf1 demflag 1
fix_modify d1 demflag 1
delete_atoms region reg3
Deleted 0 atoms, new total = 26
timestep 1e-3
run 10000 pre no post no
Step CPU Atoms biomass c_myPres c_myHeight 
  410042            0       26 2.6366171e-14 0.00050321162 9.3198032e-06 
  411000 0.0052959919       26 2.6366171e-14 1.9559127e-05 9.3565062e-06 
  412000   0.01050806       26 2.6366171e-14 1.9559043e-05 9.3564951e-06 
  413000  0.015861034       26 2.6366171e-14 1.9559032e-05 9.3564839e-06 
  414000  0.021068096       26 2.6366171e-14 1.9559022e-05 9.3564727e-06 
  415000  0.026904106       26 2.6366171e-14 1.9559011e-05 9.3564616e-06 
  416000  0.032102108       26 2.6366171e-14 1.9588563e-05 9.3564642e-06 
  417000  0.037862062       26 2.6366171e-14 1.9588552e-05 9.3564543e-06 
  418000  0.043342113       26 2.6366171e-14 1.9588541e-05 9.3564444e-06 
  419000  0.048496962       26 2.6366171e-14 1.958853e-05 9.3564344e-06 
  420000  0.053616047       26 2.6366171e-14 1.9588519e-05 9.3564245e-06 
  420042  0.053843975       26 2.6366171e-14 1.9588519e-05 9.3564241e-06 
Loop time of 0.053853 on 4 procs for 10000 steps with 26 atoms

100.0% CPU use with 4 MPI tasks x no OpenMP threads
timestep 300
fix_modify k1 demflag 0
fix_modify vf1 demflag 0
fix_modify d1 demflag 0
Step CPU Atoms biomass c_myPres c_myHeight 
  420042            0       26 2.6366171e-14 1.9588519e-05 9.3564241e-06 
number of iterations: 2773 
S-sub-bulk = 2.797295e-02
S-sub-base = 2.796010e-02
S-o2-bulk = 1.000000e-02
S-o2-base = 9.990207e-03

  420043   0.19439793       27 2.6800664e-14 0.0011467855 1.0993799e-05 
Loop time of 0.194414 on 4 procs for 1 steps with 27 atoms

100.0% CPU use with 4 MPI tasks x no OpenMP threads
fix_modify k1 demflag 1
fix_modify vf1 demflag 1
fix_modify d1 demflag 1
delete_atoms region reg3
Deleted 0 atoms, new total = 27
timestep 1e-3
run 10000 pre no post no
Step CPU Atoms biomass c_myPres c_myHeight 
  420043            0       27 2.6800664e-14 0.0011467855  9.64821e-06 
  421000 0.0052289963       27 2.6800664e-14 3.5132445e-05 1.1073254e-05 
  422000  0.010489941       27 2.6800664e-14 3.4820606e-05 1.1073166e-05 
  423000   0.01594305       27 2.6800664e-14 3.3127563e-05 1.1073125e-05 
  424000  0.021199942       27 2.6800664e-14 3.0604867e-05 1.1073092e-05 
  425000  0.026477098       27 2.6800664e-14 3.0799794e-05 1.1073087e-05 
  426000  0.032088041       27 2.6800664e-14 3.2094507e-05 1.1073082e-05 
  427000   0.03779006       27 2.6800664e-14 3.360109e-05 1.1073077e-05 
  428000  0.043308973       27 2.6800664e-14 3.1700248e-05 1.1073073e-05 
  429000  0.048490047       27 2.6800664e-14 3.3652257e-05 1.1073068e-05 
  430000  0.053723097       27 2.6800664e-14 3.2131408e-05 1.1073063e-05 
  430043   0.05397892       27 2.6800664e-14 4.5623194e-05 1.1073377e-05 
Loop time of 0.0539892 on 4 procs for 10000 steps with 27 atoms

100.0% CPU use with 4 MPI tasks x no OpenMP threads
timestep 300
fix_modify k1 demflag 0
fix_modify vf1 demflag 0
fix_modify d1 demflag 0
Step CPU Atoms biomass c_myPres c_myHeight 
  430043            0       27 2.6800664e-14 4.5623194e-05 1.1073377e-05 
number of iterations: 2786 
S-sub-bulk = 2.793333e-02
S-sub-base = 2.791984e-02
S-o2-bulk = 1.000000e-02
S-o2-base = 9.990095e-03

  430044   0.19829822       27 2.724223e-14 0.00061942169 1.108377e-05 
Loop time of 0.198312 on 4 procs for 1 steps with 27 atoms

100.0% CPU use with 4 MPI tasks x no OpenMP threads
fix_modify k1 demflag 1
fix_modify vf1 demflag 1
fix_modify d1 demflag 1
delete_atoms region reg3
Deleted 0 atoms, new total = 27
timestep 1e-3
run 10000 pre no post no
Step CPU Atoms biomass c_myPres c_myHeight 
  430044            0       27 2.724223e-14 0.00061942169 9.7162672e-06 
  431000 0.0054829121       27 2.724223e-14 3.8130869e-05 1.1126094e-05 
  432000  0.010836124       27 2.724223e-14 3.810011e-05 1.112609e-05 
  433000  0.016245127       27 2.724223e-14 3.8100185e-05 1.1126086e-05 
  434000  0.021474123       27 2.724223e-14 3.8100259e-05 1.1126082e-05 
  435000  0.029242992       27 2.724223e-14 3.8100334e-05 1.1126078e-05 
  436000  0.034472942       27 2.724223e-14 3.8100408e-05 1.1126073e-05 
  437000  0.040472031       27 2.724223e-14 3.8100483e-05 1.1126069e-05 
  438000  0.045813084       27 2.724223e-14 3.8100558e-05 1.1126065e-05 
  439000  0.051034927       27 2.724223e-14 3.8100633e-05 1.1126061e-05 
  440000  0.056260109       27 2.724223e-14 3.8100707e-05 1.1126057e-05 
  440044  0.056520939       27 2.724223e-14 3.8100711e-05 1.1126056e-05 
Loop time of 0.0565295 on 4 procs for 10000 steps with 27 atoms

100.0% CPU use with 4 MPI tasks x no OpenMP threads
timestep 300
fix_modify k1 demflag 0
fix_modify vf1 demflag 0
fix_modify d1 demflag 0
Step CPU Atoms biomass c_myPres c_myHeight 
  440044            0       27 2.724223e-14 3.8100711e-05 1.1126056e-05 
number of iterations: 2793 
S-sub-bulk = 2.789343e-02
S-sub-base = 2.787931e-02
S-o2-bulk = 1.000000e-02
S-o2-base = 9.989954e-03

  440045   0.19992709       28 2.7690983e-14 0.0023854194 1.1134531e-05 
Loop time of 0.19994 on 4 procs for 1 steps with 28 atoms

100.0% CPU use with 4 MPI tasks x no OpenMP threads
fix_modify k1 demflag 1
fix_modify vf1 demflag 1
fix_modify d1 demflag 1
delete_atoms region reg3
Deleted 0 atoms, new total = 28
timestep 1e-3
run 10000 pre no post no
Step CPU Atoms biomass c_myPres c_myHeight 
  440045            0       28 2.7690983e-14 0.0023854194 1.0078912e-05 
  441000 0.0055761337       28 2.7690983e-14 2.861774e-05 1.1330939e-05 
  442000  0.011205196       28 2.7690983e-14 2.9053689e-05 1.1330936e-05 
  443000  0.018946171       28 2.7690983e-14 3.0291906e-05 1.1330933e-05 
  444000  0.025395155       28 2.7690983e-14 3.0387655e-05 1.1330931e-05 
[...]
  891000  0.011375189       57 5.7520721e-14 6.7694631e-05 2.0887677e-05 
  892000  0.021584034       57 5.7520721e-14 4.2475397e-05 2.0889171e-05 
  893000  0.031719208       57 5.7520721e-14 4.3089467e-05 2.0888008e-05 
  894000  0.041431189       57 5.7520721e-14 4.3089434e-05 2.0888008e-05 
  895000  0.051111221       57 5.7520721e-14 4.3089401e-05 2.0888008e-05 
  896000   0.06075716       57 5.7520721e-14 4.3089369e-05 2.0888008e-05 
  897000  0.071766138       57 5.7520721e-14 4.3089336e-05 2.0888008e-05 
  898000  0.082916021       57 5.7520721e-14 4.3089303e-05 2.0888008e-05 
  899000  0.093346119       57 5.7520721e-14 4.308927e-05 2.0888008e-05 
  900000   0.10380101       57 5.7520721e-14 4.3089237e-05 2.0888008e-05 
  900090     0.104774       57 5.7520721e-14 4.3089234e-05 2.0888008e-05 
Loop time of 0.104784 on 4 procs for 10000 steps with 57 atoms

100.0% CPU use with 4 MPI tasks x no OpenMP threads
timestep 300
fix_modify k1 demflag 0
fix_modify vf1 demflag 0
fix_modify d1 demflag 0
Step CPU Atoms biomass c_myPres c_myHeight 
  900090            0       57 5.7520721e-14 4.3089234e-05 2.0888008e-05 
number of iterations: 5963 
S-sub-bulk = 2.542472e-02
S-sub-base = 2.534813e-02
S-o2-bulk = 1.000000e-02
S-o2-base = 9.972206e-03

  900091   0.60970712       58 5.845565e-14 0.0043945042 2.0898512e-05 
Loop time of 0.609722 on 4 procs for 1 steps with 58 atoms

100.0% CPU use with 4 MPI tasks x no OpenMP threads
fix_modify k1 demflag 1
fix_modify vf1 demflag 1
fix_modify d1 demflag 1
delete_atoms region reg3
Deleted 0 atoms, new total = 58
timestep 1e-3
run 10000 pre no post no
Step CPU Atoms biomass c_myPres c_myHeight 
  900091            0       58 5.845565e-14 0.0043945042 1.9481177e-05 
  901000  0.011628151       58 5.845565e-14 6.2540263e-05 2.1294594e-05 
  902000  0.020946026       58 5.845565e-14 4.4635723e-05 2.1292522e-05 
  903000  0.030616999       58 5.845565e-14 4.4634521e-05 2.1292522e-05 
  904000   0.04036808       58 5.845565e-14 4.4633319e-05 2.1292522e-05 
  905000     0.049649       58 5.845565e-14 4.4632117e-05 2.1292522e-05 
  906000  0.058881998       58 5.845565e-14 4.4630916e-05 2.1292522e-05 
  907000  0.068509102       58 5.845565e-14 4.4629714e-05 2.1292522e-05 
  908000  0.079120159       58 5.845565e-14 4.4628514e-05 2.1292522e-05 
  909000  0.090211153       58 5.845565e-14 4.4627314e-05 2.1292522e-05 
  910000   0.10025716       58 5.845565e-14 4.4626114e-05 2.1292522e-05 
  910091   0.10121393       58 5.845565e-14 4.3840644e-05 2.1293956e-05 
Loop time of 0.101225 on 4 procs for 10000 steps with 58 atoms

100.0% CPU use with 4 MPI tasks x no OpenMP threads
timestep 300
fix_modify k1 demflag 0
fix_modify vf1 demflag 0
fix_modify d1 demflag 0
Step CPU Atoms biomass c_myPres c_myHeight 
  910091            0       58 5.845565e-14 4.3840644e-05 2.1293956e-05 
number of iterations: 5948 
S-sub-bulk = 2.535109e-02
S-sub-base = 2.527913e-02
S-o2-bulk = 1.000000e-02
S-o2-base = 9.972225e-03

  910092   0.60317707       59 5.9405408e-14 0.0030452815 2.1302294e-05 
Loop time of 0.603192 on 4 procs for 1 steps with 59 atoms

100.0% CPU use with 4 MPI tasks x no OpenMP threads
fix_modify k1 demflag 1
fix_modify vf1 demflag 1
fix_modify d1 demflag 1
delete_atoms region reg3
Deleted 0 atoms, new total = 59
timestep 1e-3
run 10000 pre no post no
Step CPU Atoms biomass c_myPres c_myHeight 
  910092            0       59 5.9405408e-14 0.0030452815 2.0002093e-05 
  911000  0.011981964       59 5.9405408e-14 0.00013058077 2.1535737e-05 
  912000  0.023808002       59 5.9405408e-14 0.00013050247 2.1535656e-05 
  913000  0.036072969       59 5.9405408e-14 0.00013451604 2.1535418e-05 
  914000  0.047938824       59 5.9405408e-14 0.00013381115 2.1535416e-05 
  915000  0.059548855       59 5.9405408e-14 0.00013579215 2.1535338e-05 
  916000  0.071460962       59 5.9405408e-14 0.00013661383 2.1535253e-05 
  917000  0.083386898       59 5.9405408e-14 0.00013677123 2.1535258e-05 
  918000  0.095270872       59 5.9405408e-14 0.0001365881 2.1535264e-05 
  919000   0.10691094       59 5.9405408e-14 0.00013720461 2.1535269e-05 
  920000   0.11914802       59 5.9405408e-14 0.00013643497 2.1535276e-05 
  920092   0.12025285       59 5.9405408e-14 0.00013650528 2.1535277e-05 
Loop time of 0.120263 on 4 procs for 10000 steps with 59 atoms

100.0% CPU use with 4 MPI tasks x no OpenMP threads
timestep 300
fix_modify k1 demflag 0
fix_modify vf1 demflag 0
fix_modify d1 demflag 0
Step CPU Atoms biomass c_myPres c_myHeight 
  920092            0       59 5.9405408e-14 0.00013650528 2.1535277e-05 
number of iterations: 6060 
S-sub-bulk = 2.527635e-02
S-sub-base = 2.520546e-02
S-o2-bulk = 1.000000e-02
S-o2-base = 9.972254e-03

  920093   0.61293697       59 6.0370186e-14 0.0017210194 2.1546356e-05 
Loop time of 0.612952 on 4 procs for 1 steps with 59 atoms

100.0% CPU use with 4 MPI tasks x no OpenMP threads
fix_modify k1 demflag 1
fix_modify vf1 demflag 1
fix_modify d1 demflag 1
delete_atoms region reg3
Deleted 0 atoms, new total = 59
timestep 1e-3
run 10000 pre no post no
Step CPU Atoms biomass c_myPres c_myHeight 
  920093            0       59 6.0370186e-14 0.0017210194 2.024135e-05 
  921000  0.010732174       59 6.0370186e-14 9.6981098e-05 2.1676963e-05 
  922000  0.021595001       59 6.0370186e-14 0.0001063652 2.1676963e-05 
  923000   0.03311801       59 6.0370186e-14 0.00010884225 2.1676963e-05 
  924000  0.044007063       59 6.0370186e-14 6.6897991e-05 2.1680147e-05 
  925000  0.053789139       59 6.0370186e-14 2.4314826e-05 2.167987e-05 
  926000  0.063585997       59 6.0370186e-14 2.4312338e-05 2.167987e-05 
  927000  0.073446035       59 6.0370186e-14 2.4309846e-05 2.167987e-05 
  928000  0.083182096       59 6.0370186e-14 2.4307349e-05 2.167987e-05 
  929000   0.09317708       59 6.0370186e-14 2.4304849e-05 2.167987e-05 
  930000   0.10290098       59 6.0370186e-14 2.4302345e-05 2.167987e-05 
  930093    0.1038301       59 6.0370186e-14 8.5547496e-05 2.1678215e-05 
Loop time of 0.103842 on 4 procs for 10000 steps with 59 atoms

100.0% CPU use with 4 MPI tasks x no OpenMP threads
timestep 300
fix_modify k1 demflag 0
fix_modify vf1 demflag 0
fix_modify d1 demflag 0
Step CPU Atoms biomass c_myPres c_myHeight 
  930093            0       59 6.0370186e-14 8.5547496e-05 2.1678215e-05 
number of iterations: 6132 
S-sub-bulk = 2.520050e-02
S-sub-base = 2.512915e-02
S-o2-bulk = 1.000000e-02
S-o2-base = 9.972302e-03

  930094   0.61828589       60 6.1350193e-14  0.003085945 2.1689739e-05 
Loop time of 0.618302 on 4 procs for 1 steps with 60 atoms

100.0% CPU use with 4 MPI tasks x no OpenMP threads
fix_modify k1 demflag 1
fix_modify vf1 demflag 1
fix_modify d1 demflag 1
delete_atoms region reg3
Deleted 0 atoms, new total = 60
timestep 1e-3
run 10000 pre no post no
Step CPU Atoms biomass c_myPres c_myHeight 
  930094            0       60 6.1350193e-14  0.003085945 2.0187554e-05 
  931000  0.010900021       60 6.1350193e-14 4.922659e-05 2.171913e-05 
  932000  0.020848989       60 6.1350193e-14 4.922659e-05 2.171913e-05 
  933000  0.031111002       60 6.1350193e-14 4.922659e-05 2.171913e-05 
  934000  0.041006088       60 6.1350193e-14 4.922659e-05 2.171913e-05 
  935000  0.050867081       60 6.1350193e-14 4.922659e-05 2.171913e-05 
  936000  0.060719013       60 6.1350193e-14 4.922659e-05 2.171913e-05 
  937000  0.070566177       60 6.1350193e-14 4.922659e-05 2.171913e-05 
  938000  0.080551147       60 6.1350193e-14 4.922659e-05 2.171913e-05 
  939000  0.090430021       60 6.1350193e-14 4.922659e-05 2.171913e-05 
  940000   0.10026717       60 6.1350193e-14 4.922659e-05 2.171913e-05 
  940094   0.10121918       60 6.1350193e-14 4.922659e-05 2.171913e-05 
Loop time of 0.101229 on 4 procs for 10000 steps with 60 atoms

100.0% CPU use with 4 MPI tasks x no OpenMP threads
timestep 300
fix_modify k1 demflag 0
fix_modify vf1 demflag 0
fix_modify d1 demflag 0
Step CPU Atoms biomass c_myPres c_myHeight 
  940094            0       60 6.1350193e-14 4.922659e-05 2.171913e-05 
number of iterations: 6161 
S-sub-bulk = 2.512351e-02
S-sub-base = 2.505157e-02
S-o2-bulk = 1.000000e-02
S-o2-base = 9.972276e-03

  940095   0.64136004       61 6.2345654e-14 0.0039683547 2.172826e-05 
Loop time of 0.641375 on 4 procs for 1 steps with 61 atoms

100.0% CPU use with 4 MPI tasks x no OpenMP threads
fix_modify k1 demflag 1
fix_modify vf1 demflag 1
fix_modify d1 demflag 1
delete_atoms region reg3
Deleted 0 atoms, new total = 61
timestep 1e-3
run 10000 pre no post no
Step CPU Atoms biomass c_myPres c_myHeight 
  940095            0       61 6.2345654e-14 0.0039683547 2.028359e-05 
  941000  0.010987997       61 6.2345654e-14 4.3170369e-05 2.1885393e-05 
  942000   0.02093482       61 6.2345654e-14 4.3169346e-05 2.1885393e-05 
  943000  0.031370878       61 6.2345654e-14 4.3168324e-05 2.1885393e-05 
  944000  0.041589022       61 6.2345654e-14  4.31673e-05 2.1885393e-05 
  945000   0.05153203       61 6.2345654e-14 4.3166277e-05 2.1885393e-05 
  946000  0.061456919       61 6.2345654e-14 4.3165254e-05 2.1885393e-05 
  947000  0.071455956       61 6.2345654e-14 4.316423e-05 2.1885393e-05 
  948000  0.081488848       61 6.2345654e-14 4.3163206e-05 2.1885393e-05 
  949000  0.091751814       61 6.2345654e-14 4.3162182e-05 2.1885393e-05 
  950000   0.10173488       61 6.2345654e-14 4.3161158e-05 2.1885393e-05 
  950095   0.10270882       61 6.2345654e-14 3.6881473e-05 2.2264846e-05 
Loop time of 0.102719 on 4 procs for 10000 steps with 61 atoms

100.0% CPU use with 4 MPI tasks x no OpenMP threads
timestep 300
fix_modify k1 demflag 0
fix_modify vf1 demflag 0
fix_modify d1 demflag 0
Step CPU Atoms biomass c_myPres c_myHeight 
  950095            0       61 6.2345654e-14 3.6881473e-05 2.2264846e-05 
number of iterations: 7497 
S-sub-bulk = 2.504542e-02
S-sub-base = 2.494987e-02
S-o2-bulk = 1.000000e-02
S-o2-base = 9.967975e-03

  950096   0.97375607       65 6.3356654e-14  0.011031747 2.1894425e-05 
Loop time of 0.973773 on 4 procs for 1 steps with 65 atoms

100.0% CPU use with 4 MPI tasks x no OpenMP threads
fix_modify k1 demflag 1
fix_modify vf1 demflag 1
fix_modify d1 demflag 1
delete_atoms region reg3
Deleted 0 atoms, new total = 65
timestep 1e-3
run 10000 pre no post no
Step CPU Atoms biomass c_myPres c_myHeight 
  950096            0       65 6.3356654e-14  0.011031747 2.0449987e-05 
  951000  0.012698889       65 6.3356654e-14 0.00010212742 2.3052237e-05 
  952000  0.025398016       65 6.3356654e-14 8.1521069e-05 2.3051639e-05 
  953000  0.036859989       65 6.3356654e-14 6.7262844e-05 2.3053422e-05 
  954000  0.047219992       65 6.3356654e-14 6.7260266e-05 2.3053422e-05 
  955000  0.057565928       65 6.3356654e-14 6.7257685e-05 2.3053422e-05 
  956000   0.06792593       65 6.3356654e-14  6.72551e-05 2.3053422e-05 
  957000  0.078339815       65 6.3356654e-14 6.7252513e-05 2.3053422e-05 
  958000  0.088698864       65 6.3356654e-14 6.7249922e-05 2.3053422e-05 
  959000  0.099097967       65 6.3356654e-14 6.7247329e-05 2.3053422e-05 
  960000   0.10947299       65 6.3356654e-14 6.7244733e-05 2.3053422e-05 
  960096     0.110502       65 6.3356654e-14 6.7244484e-05 2.3053422e-05 
Loop time of 0.110512 on 4 procs for 10000 steps with 65 atoms

100.0% CPU use with 4 MPI tasks x no OpenMP threads
timestep 300
fix_modify k1 demflag 0
fix_modify vf1 demflag 0
fix_modify d1 demflag 0
Step CPU Atoms biomass c_myPres c_myHeight 
  960096            0       65 6.3356654e-14 6.7244484e-05 2.3053422e-05 
number of iterations: 6881 
S-sub-bulk = 2.496615e-02
S-sub-base = 2.487301e-02
S-o2-bulk = 1.000000e-02
S-o2-base = 9.967892e-03

  960097   0.75191998       66 6.4383583e-14 0.0042228306 2.293616e-05 
Loop time of 0.751937 on 4 procs for 1 steps with 66 atoms

99.9% CPU use with 4 MPI tasks x no OpenMP threads
fix_modify k1 demflag 1
fix_modify vf1 demflag 1
fix_modify d1 demflag 1
delete_atoms region reg3
Deleted 0 atoms, new total = 66
timestep 1e-3
run 10000 pre no post no
Step CPU Atoms biomass c_myPres c_myHeight 
  960097            0       66 6.4383583e-14 0.0042228306 2.1397549e-05 
  961000  0.011225939       66 6.4383583e-14 5.4459044e-05 2.2977268e-05 
  962000  0.021680832       66 6.4383583e-14 4.7397869e-05 2.2977268e-05 
  963000  0.032530785       66 6.4383583e-14 4.7393446e-05 2.2977268e-05 
  964000  0.042947769       66 6.4383583e-14 4.7389033e-05 2.2977268e-05 
  965000  0.053245783       66 6.4383583e-14 4.7384632e-05 2.2977268e-05 
  966000  0.063519955       66 6.4383583e-14 4.7380243e-05 2.2977268e-05 
  967000  0.073954821       66 6.4383583e-14 4.7375865e-05 2.2977268e-05 
  968000  0.084256887       66 6.4383583e-14 4.7371498e-05 2.2977268e-05 
  969000  0.095542908       66 6.4383583e-14 4.7367143e-05 2.2977268e-05 
  970000   0.10591078       66 6.4383583e-14 4.7362799e-05 2.2977268e-05 
  970097   0.10693693       66 6.4383583e-14 7.077468e-05 2.2980043e-05 
Loop time of 0.106948 on 4 procs for 10000 steps with 66 atoms

99.9% CPU use with 4 MPI tasks x no OpenMP threads
timestep 300
fix_modify k1 demflag 0
fix_modify vf1 demflag 0
fix_modify d1 demflag 0
Step CPU Atoms biomass c_myPres c_myHeight 
  970097            0       66 6.4383583e-14 7.077468e-05 2.2980043e-05 
number of iterations: 6935 
S-sub-bulk = 2.488570e-02
S-sub-base = 2.479366e-02
S-o2-bulk = 1.000000e-02
S-o2-base = 9.967829e-03

  970098    0.7585299       68 6.5426677e-14 0.0067212046 2.3371679e-05 
Loop time of 0.758544 on 4 procs for 1 steps with 68 atoms

100.0% CPU use with 4 MPI tasks x no OpenMP threads
fix_modify k1 demflag 1
fix_modify vf1 demflag 1
fix_modify d1 demflag 1
delete_atoms region reg3
Deleted 0 atoms, new total = 68
timestep 1e-3
run 10000 pre no post no
Step CPU Atoms biomass c_myPres c_myHeight 
  970098            0       68 6.5426677e-14 0.0067212046 2.1812633e-05 
  971000  0.012594938       68 6.5426677e-14 4.6387009e-05 2.3638908e-05 
  972000  0.022794962       68 6.5426677e-14 4.7562339e-05 2.3638908e-05 
  973000   0.03377986       68 6.5426677e-14 4.7562293e-05 2.3638908e-05 
  974000  0.045109034       68 6.5426677e-14 4.7562293e-05 2.3638908e-05 
  975000   0.05677104       68 6.5426677e-14 4.7562293e-05 2.3638908e-05 
  976000  0.068485022       68 6.5426677e-14 4.7562293e-05 2.3638908e-05 
  977000  0.080741882       68 6.5426677e-14 4.7562293e-05 2.3638908e-05 
  978000   0.09248209       68 6.5426677e-14 4.7562293e-05 2.3638908e-05 
  979000   0.10420799       68 6.5426677e-14 4.7562293e-05 2.3638908e-05 
  980000   0.11591601       68 6.5426677e-14 4.7562293e-05 2.3638908e-05 
  980098   0.11709189       68 6.5426677e-14 4.7562293e-05 2.3638908e-05 
Loop time of 0.117104 on 4 procs for 10000 steps with 68 atoms

100.0% CPU use with 4 MPI tasks x no OpenMP threads
timestep 300
fix_modify k1 demflag 0
fix_modify vf1 demflag 0
fix_modify d1 demflag 0
Step CPU Atoms biomass c_myPres c_myHeight 
  980098            0       68 6.5426677e-14 4.7562293e-05 2.3638908e-05 
number of iterations: 7042 
S-sub-bulk = 2.480405e-02
S-sub-base = 2.470961e-02
S-o2-bulk = 1.000000e-02
S-o2-base = 9.967356e-03

  980099   0.78578115       69 6.6486144e-14 0.0035320827 2.4087894e-05 
Loop time of 0.785797 on 4 procs for 1 steps with 69 atoms

100.0% CPU use with 4 MPI tasks x no OpenMP threads
fix_modify k1 demflag 1
fix_modify vf1 demflag 1
fix_modify d1 demflag 1
delete_atoms region reg3
Deleted 0 atoms, new total = 69
timestep 1e-3
run 10000 pre no post no
Step CPU Atoms biomass c_myPres c_myHeight 
  980099            0       69 6.6486144e-14 0.0035320827 2.2457157e-05 
  981000  0.012084007       69 6.6486144e-14 9.3141882e-05 2.4235616e-05 
  982000  0.023674011       69 6.6486144e-14 9.0929802e-05 2.4235705e-05 
  983000  0.035317898       69 6.6486144e-14 9.0929802e-05 2.4235705e-05 
  984000  0.046826839       69 6.6486144e-14 9.0929802e-05 2.4235705e-05 
  985000  0.058348894       69 6.6486144e-14 9.0929802e-05 2.4235705e-05 
  986000  0.069843054       69 6.6486144e-14 9.0929802e-05 2.4235705e-05 
  987000  0.081452847       69 6.6486144e-14 9.0929802e-05 2.4235705e-05 
  988000  0.092946053       69 6.6486144e-14 9.0929802e-05 2.4235705e-05 
  989000    0.1044929       69 6.6486144e-14 9.0929802e-05 2.4235705e-05 
  990000   0.11601591       69 6.6486144e-14 9.0929802e-05 2.4235705e-05 
  990099   0.11717701       69 6.6486144e-14 0.00011104955 2.4231482e-05 
Loop time of 0.11719 on 4 procs for 10000 steps with 69 atoms

100.0% CPU use with 4 MPI tasks x no OpenMP threads
timestep 300
fix_modify k1 demflag 0
fix_modify vf1 demflag 0
fix_modify d1 demflag 0
Step CPU Atoms biomass c_myPres c_myHeight 
  990099            0       69 6.6486144e-14 0.00011104955 2.4231482e-05 
number of iterations: 7051 
S-sub-bulk = 2.472118e-02
S-sub-base = 2.462693e-02
S-o2-bulk = 1.000000e-02
S-o2-base = 9.967257e-03

  990100   0.79098296       69 6.7562231e-14 0.0017777505 2.4244397e-05 
Loop time of 0.790999 on 4 procs for 1 steps with 69 atoms

99.9% CPU use with 4 MPI tasks x no OpenMP threads
fix_modify k1 demflag 1
fix_modify vf1 demflag 1
fix_modify d1 demflag 1
delete_atoms region reg3
Deleted 0 atoms, new total = 69
timestep 1e-3
run 10000 pre no post no
Step CPU Atoms biomass c_myPres c_myHeight 
  990100            0       69 6.7562231e-14 0.0017777505 2.2594112e-05 
  991000  0.014337063       69 6.7562231e-14 0.00043131851 2.4311035e-05 
  992000  0.030314922       69 6.7562231e-14 0.00042641042 2.4311019e-05 
  993000  0.045731068       69 6.7562231e-14 0.00042330252 2.4311032e-05 
  994000  0.061105967       69 6.7562231e-14 0.00042554383 2.4311037e-05 
  995000  0.076972961       69 6.7562231e-14 0.00042580426 2.4311042e-05 
  996000  0.092222929       69 6.7562231e-14 0.00038461046 2.431104e-05 
  997000   0.10718489       69 6.7562231e-14 0.00034664982 2.4310806e-05 
  998000   0.12242889       69 6.7562231e-14 0.00034610503 2.4310806e-05 
  999000   0.13755488       69 6.7562231e-14 0.00034673673 2.4310802e-05 
 1000000      0.15309       69 6.7562231e-14 0.00012561377 2.4310404e-05 
 1000100   0.15440989       69 6.7562231e-14 0.00013541071 2.431027e-05 
Loop time of 0.154423 on 4 procs for 10000 steps with 69 atoms

100.0% CPU use with 4 MPI tasks x no OpenMP threads
timestep 300
fix_modify k1 demflag 0
fix_modify vf1 demflag 0
fix_modify d1 demflag 0
Step CPU Atoms biomass c_myPres c_myHeight 
 1000100            0       69 6.7562231e-14 0.00013541071 2.431027e-05 
number of iterations: 8574 
S-sub-bulk = 2.463714e-02
S-sub-base = 2.451568e-02
S-o2-bulk = 1.000000e-02
S-o2-base = 9.962116e-03

 1000101     1.197329       69 6.8654977e-14  0.001939277 2.4322632e-05 
Loop time of 1.19734 on 4 procs for 1 steps with 69 atoms

100.0% CPU use with 4 MPI tasks x no OpenMP threads
fix_modify k1 demflag 1
fix_modify vf1 demflag 1
fix_modify d1 demflag 1
delete_atoms region reg3
Deleted 0 atoms, new total = 69
timestep 1e-3
run 10000 pre no post no
Step CPU Atoms biomass c_myPres c_myHeight 
 1000101            0       69 6.8654977e-14  0.001939277 2.2677415e-05 
 1001000  0.014979124       69 6.8654977e-14 0.00024658871 2.4394895e-05 
 1002000  0.029408932       69 6.8654977e-14 7.9405775e-05 2.439224e-05 
 1003000  0.040030956       69 6.8654977e-14 5.8338509e-05 2.4390697e-05 
 1004000  0.050383091       69 6.8654977e-14 5.8337078e-05 2.4390697e-05 
 1005000  0.060693979       69 6.8654977e-14 5.833565e-05 2.4390697e-05 
 1006000  0.071135044       69 6.8654977e-14 5.8334227e-05 2.4390697e-05 
 1007000  0.081908941       69 6.8654977e-14 5.8332808e-05 2.4390697e-05 
 1008000  0.092370033       69 6.8654977e-14 5.8331393e-05 2.4390697e-05 
 1009000   0.10274291       69 6.8654977e-14 5.8329982e-05 2.4390697e-05 
 1010000   0.11306691       69 6.8654977e-14 5.8328575e-05 2.4390697e-05 
 1010101   0.11413312       69 6.8654977e-14 3.8713042e-05 2.4392314e-05 
Loop time of 0.114145 on 4 procs for 10000 steps with 69 atoms

100.0% CPU use with 4 MPI tasks x no OpenMP threads
