  Granular Flow Simulation 

       3  atoms 
       3 atom types 
       4 nutrients

   0.000000e-04   1.000000e-04  xlo xhi 
   0.000000e-04   1.000000e-04  ylo yhi 
   0.000000e-04   1.000000e-04  zlo zhi 

 Atoms

     1 1 7.6e-7 2.9e5 5e-05 5.1e-05 2.2e-05 7.6e-7 hety
     2 2 7.6e-7 2.9e5 5e-05 5.2e-05 2.2e-05 7.6e-7 hetr
     3 3 5e-7 2.9e5 5e-05 5.2e-05 2.1e-05 5e-7 eps

 Nutrients

     1 o2 l 3.13e-2 3.13e-5 3.13e-5 3.13e-5 3.13e-5 3.13e-5 3.13e-5
     2 go2 g 2.4e-2 2.4e-2 2.4e-2 2.4e-2 2.4e-2 2.4e-2 2.4e-2
     3 h2o g 0.1 0.1 0.1 0.1 0.1 0.1 0.1
     4 h g 0.1 0.1 0.1 0.1 0.1 0.1 0.1

 Diffusion Coeffs
     
     o2 2.0e-9
     go2 0
     h2o 0
     h 0

 Ks
     
     hety 9.37e-6
     hetr 1.88e-5
     eps 0

 Growth

     hety 0.000000949
     hetr 0.000001898
     eps 0

 Yield
    
     hety 0.05983
     hetr 0.02991
     eps 0.1
  
 Catabolism Coeffs
         
    hety -2 0 2 0
    hetr -2 0 2 0
    eps 0 0 0 0

 Anabolism Coeffs
          
    hety 0 0 0 0 
    hetr 0 0 0 0
    eps 0 0 0 0
 
 Nutrient Energy

    o2 inf 1.64e1 inf inf inf 2
    go2 inf 0 inf inf inf 2
    h2o inf -2.3718e2 -1.57e2 inf inf 2
    h inf 0 inf inf inf 2

 Type Energy

    hety inf -67 inf inf inf 2
    hetr inf -67 inf inf inf 2
    eps  inf -67 inf inf inf 2

 Dissipation

    hety 115
    hetr 230
    eps  115
