ITEM: TIMESTEP
0
ITEM: NUMBER OF ATOMS
3
ITEM: BOX BOUNDS ff ff ff
0.0000000000000000e+00 1.0000000000000000e-04
0.0000000000000000e+00 1.0000000000000000e-04
0.0000000000000000e+00 1.0000000000000000e-04
ITEM: ATOMS id type diameter x y z vx vy vz fx fy fz 
3 3 5e-07 5e-05 5.2e-05 2.1e-05 0 0 0 0 0 0 
1 1 7.6e-07 5e-05 5.1e-05 2.2e-05 0 0 0 0 0 0 
2 2 7.6e-07 5e-05 5.2e-05 2.2e-05 0 0 0 0 0 0 
