  Granular Flow Simulation 

       150  atoms 
          4  atom types 

   0  1.000000e-03  xlo xhi 
   0  1.000000e-03  ylo yhi 
   0  1.000000e-03  zlo zhi 

 Atoms

     1   2 7.636580e-05  1100   5.262380e-05   1.122050e-05   5.277750e-04
     2   1 7.190140e-05  1100   1.422410e-04   1.829980e-05   1.177710e-04
     3   4 7.628240e-05  1100   1.577250e-04   5.270490e-05   8.494430e-04
     4   4 8.629490e-05  1100   6.521580e-04   5.111280e-05   1.703420e-04
     5   2 8.335430e-05  1100   6.723490e-04   7.643620e-06   9.456070e-04
     6   2 6.462590e-05  1100   6.928190e-04   9.450390e-06   6.916640e-05
     7   2 6.734900e-05  1100   6.927800e-04   4.486480e-05   2.436210e-04
     8   4 7.803610e-05  1100   7.395870e-04   3.746450e-05   5.106910e-04
     9   2 5.982970e-05  1100   7.737320e-04   5.826220e-05   3.513740e-04
     10   1 9.357250e-05  1100   8.316360e-04   4.335430e-05   1.004100e-04
     11   4 5.957270e-05  1100   9.247630e-04   1.287690e-05   8.599240e-04
     12   2 8.101920e-05  1100   9.357530e-04   2.483020e-05   9.400250e-04
     13   1 9.396420e-05  1100   9.472710e-04   3.791780e-05   2.617960e-04
     14   2 9.694920e-05  1100   9.489380e-04   2.661690e-05   5.358810e-04
     15   1 9.778820e-05  1100   9.499710e-04   3.709500e-05   6.534760e-04
     16   1 7.941410e-05  1100   5.652480e-05   9.255570e-05   7.870580e-04
     17   4 8.927470e-05  1100   7.999710e-05   1.153940e-04   1.884100e-04
     18   4 8.491920e-05  1100   1.374840e-04   7.214660e-05   7.675100e-04
     19   3 5.434400e-05  1100   2.090180e-04   6.592090e-05   5.678960e-04
     20   1 6.157150e-05  1100   5.488350e-04   6.333380e-05   3.213940e-04
     21   1 8.751920e-05  1100   8.981180e-04   7.974410e-05   7.787150e-04
     22   2 7.532900e-05  1100   4.336790e-05   1.434830e-04   2.873760e-04
     23   4 7.475330e-05  1100   8.474120e-05   1.528870e-04   3.769290e-04
     24   1 8.333690e-05  1100   1.269610e-04   1.256200e-04   5.310810e-04
     25   1 5.053430e-05  1100   1.917740e-04   1.589390e-04   5.340920e-04
     26   1 6.563930e-05  1100   2.856530e-04   1.672870e-04   5.678770e-04
     27   3 7.040450e-05  1100   3.878190e-04   1.296780e-04   6.081990e-04
     28   3 6.007480e-05  1100   4.723040e-04   1.726200e-04   6.984860e-05
     29   3 9.022520e-05  1100   6.023540e-04   1.572370e-04   4.784590e-04
     30   2 6.453690e-05  1100   5.711450e-04   1.282790e-04   8.812480e-04
     31   3 7.452530e-05  1100   6.467610e-04   1.289590e-04   8.614040e-04
     32   2 5.772320e-05  1100   8.326320e-04   1.481710e-04   2.175750e-04
     33   3 7.638910e-05  1100   8.498870e-04   1.561130e-04   8.440550e-04
     34   1 7.505120e-05  1100   9.192540e-04   1.368440e-04   2.379690e-04
     35   3 9.732310e-05  1100   9.236680e-04   1.501110e-04   5.810220e-04
     36   1 9.055890e-05  1100   9.538820e-04   1.256970e-04   7.944500e-05
     37   2 6.551180e-05  1100   8.445680e-05   2.066840e-04   2.770030e-04
     38   3 8.215690e-05  1100   1.227180e-04   1.928430e-04   6.111950e-04
     39   4 7.697600e-05  1100   6.415880e-05   2.254050e-04   6.994920e-04
     40   1 5.498400e-05  1100   2.027310e-04   2.227210e-04   1.770200e-04
     41   4 9.387170e-05  1100   3.020800e-04   2.491000e-04   7.954100e-04
     42   4 5.937770e-05  1100   4.526050e-04   2.363690e-04   5.074430e-04
     43   2 7.826950e-05  1100   5.666270e-04   1.925050e-04   9.131170e-04
     44   2 9.774700e-05  1100   6.705850e-04   2.364410e-04   8.063750e-04
     45   2 7.315300e-05  1100   7.760750e-04   2.120350e-04   4.286840e-04
     46   2 7.848180e-05  1100   9.513580e-04   2.473890e-04   8.975080e-04
     47   3 7.667680e-05  1100   9.763310e-05   3.102410e-04   3.092520e-04
     48   3 5.098010e-05  1100   1.686060e-04   2.707190e-04   4.266610e-04
     49   4 5.876670e-05  1100   2.008190e-04   2.740810e-04   5.829020e-04
     50   4 7.214590e-05  1100   4.304800e-04   3.039380e-04   3.857990e-04
     51   3 5.646130e-05  1100   4.410890e-04   2.634820e-04   9.062710e-04
     52   2 6.937040e-05  1100   7.373150e-04   2.711350e-04   2.318770e-04
     53   4 7.852430e-05  1100   7.176860e-04   2.926850e-04   3.518830e-04
     54   3 6.186990e-05  1100   8.095170e-04   2.897770e-04   3.318630e-05
     55   2 8.178650e-05  1100   9.083470e-04   2.905150e-04   7.807460e-04
     56   4 6.407220e-05  1100   9.630920e-04   2.538090e-04   4.601080e-05
     57   4 5.181370e-05  1100   5.279420e-05   3.186640e-04   6.401580e-04
     58   3 6.357920e-05  1100   2.231360e-04   3.586250e-04   2.867720e-04
     59   3 6.504180e-05  1100   2.515990e-04   3.611730e-04   1.195060e-04
     60   3 7.088090e-05  1100   4.503230e-04   3.603240e-04   1.482810e-04
     61   1 9.532330e-05  1100   7.475470e-04   3.640080e-04   1.397670e-04
     62   2 9.600490e-05  1100   7.714150e-04   3.490950e-04   9.315340e-04
     63   2 7.389510e-05  1100   7.068310e-05   4.374730e-04   8.650240e-04
     64   1 6.099490e-05  1100   2.771100e-04   3.802570e-04   6.053500e-04
     65   4 7.320000e-05  1100   6.679070e-04   4.285160e-04   7.879770e-04
     66   1 6.954590e-05  1100   1.366660e-04   4.726470e-04   8.276120e-04
     67   1 8.550550e-05  1100   1.398180e-04   4.856990e-04   9.215150e-04
     68   1 5.130170e-05  1100   4.454280e-04   4.829140e-04   1.435860e-04
     69   1 6.520330e-05  1100   6.873910e-04   4.897140e-04   4.497270e-04
     70   2 9.017190e-05  1100   7.217560e-04   4.565350e-04   9.524190e-04
     71   2 7.718210e-05  1100   8.446460e-04   4.911900e-04   9.290790e-05
     72   4 9.954300e-05  1100   9.337170e-04   4.718010e-04   1.378990e-04
     73   2 8.141930e-05  1100   9.287900e-04   4.865030e-04   7.465170e-04
     74   1 5.959470e-05  1100   2.831090e-04   5.539590e-04   1.053390e-04
     75   4 8.396740e-05  1100   2.986400e-04   5.176130e-04   5.680530e-04
     76   4 6.052820e-05  1100   5.120670e-04   5.573120e-04   8.349840e-04
     77   2 8.032630e-05  1100   6.434620e-04   5.131200e-04   7.088840e-05
     78   1 5.123400e-05  1100   7.829700e-04   5.252370e-04   2.927300e-04
     79   2 5.507690e-05  1100   8.747040e-04   5.583100e-04   4.086860e-04
     80   2 9.596050e-05  1100   9.308740e-04   5.045160e-04   5.987410e-04
     81   3 7.254350e-05  1100   9.959240e-05   5.840410e-04   9.516700e-04
     82   2 6.437790e-05  1100   2.019430e-04   6.056580e-04   4.752000e-05
     83   3 5.359830e-05  1100   2.426120e-04   5.966890e-04   8.608810e-04
     84   3 6.671850e-05  1100   1.954980e-04   6.092990e-04   9.633250e-04
     85   1 6.394160e-05  1100   3.788110e-04   5.721360e-04   5.898860e-04
     86   1 6.639170e-05  1100   5.561050e-04   5.759120e-04   1.319670e-04
     87   2 5.546860e-05  1100   5.589340e-04   6.132900e-04   3.696320e-04
     88   2 7.368360e-05  1100   9.317490e-04   5.806440e-04   8.127560e-04
     89   2 7.405490e-05  1100   9.350790e-04   5.763040e-04   9.059010e-04
     90   3 9.213050e-05  1100   9.536010e-04   6.000600e-04   6.258620e-05
     91   1 9.744880e-05  1100   5.258520e-05   6.522390e-04   5.509080e-04
     92   2 7.179930e-05  1100   1.973950e-04   6.531900e-04   3.204440e-04
     93   4 6.001100e-05  1100   3.509660e-04   6.481750e-04   7.379050e-04
     94   1 8.007050e-05  1100   4.612710e-04   6.696490e-04   3.849770e-04
     95   4 7.504110e-05  1100   4.795100e-04   6.476470e-04   9.315010e-04
     96   3 8.429450e-05  1100   6.349190e-04   6.788710e-04   7.561900e-04
     97   2 7.900140e-05  1100   7.069810e-04   6.579930e-04   4.424330e-04
     98   3 5.396870e-05  1100   7.566740e-04   6.803530e-04   3.498090e-04
     99   1 5.658470e-05  1100   9.218950e-04   6.846010e-04   5.479160e-05
     100   2 7.113790e-05  1100   8.952310e-04   6.680780e-04   6.605250e-04
     101   4 8.016440e-05  1100   8.786300e-04   6.298760e-04   9.192380e-04
     102   3 6.913260e-05  1100   1.798160e-04   7.331120e-04   4.752550e-04
     103   3 9.406020e-05  1100   2.362540e-04   7.224210e-04   2.056100e-04
     104   1 6.830520e-05  1100   2.491300e-04   7.176720e-04   2.932610e-04
     105   2 9.466290e-05  1100   2.534860e-04   7.301930e-04   4.972580e-05
     106   3 9.077940e-05  1100   8.511220e-04   7.278560e-04   7.864960e-05
     107   3 5.621000e-05  1100   8.740340e-04   6.891360e-04   9.579930e-04
     108   2 8.032220e-05  1100   9.242620e-04   7.309900e-04   2.540250e-04
     109   2 5.527080e-05  1100   4.425930e-05   7.649140e-04   1.573540e-04
     110   4 6.241060e-05  1100   5.255770e-05   7.502230e-04   5.257520e-04
     111   1 7.111790e-05  1100   1.079540e-04   8.064220e-04   2.066050e-04
     112   4 6.929160e-05  1100   1.107680e-04   7.623160e-04   8.021890e-04
     113   4 7.362270e-05  1100   1.685650e-04   7.719150e-04   6.320590e-04
     114   4 7.737590e-05  1100   3.891760e-04   7.583880e-04   3.894850e-04
     115   1 7.131920e-05  1100   5.212790e-04   7.980450e-04   7.870280e-04
     116   2 5.261130e-05  1100   6.902170e-04   7.901480e-04   9.384630e-04
     117   2 5.586050e-05  1100   8.228350e-04   8.037660e-04   9.611820e-04
     118   3 7.830810e-05  1100   5.479490e-05   8.277070e-04   1.004910e-04
     119   1 6.916590e-05  1100   3.844520e-05   8.555200e-04   6.611360e-04
     120   3 6.168690e-05  1100   1.183880e-04   8.416270e-04   6.981210e-05
     121   1 7.082580e-05  1100   2.684980e-04   8.691010e-04   1.529520e-04
     122   3 9.646010e-05  1100   3.483540e-04   8.175470e-04   7.861450e-05
     123   2 9.782220e-05  1100   4.455390e-04   8.436760e-04   5.584280e-04
     124   4 6.878270e-05  1100   4.816400e-04   8.596570e-04   7.213020e-04
     125   3 9.948090e-05  1100   5.715460e-04   8.694200e-04   8.317610e-04
     126   4 5.134250e-05  1100   6.392310e-04   8.292580e-04   8.772050e-04
     127   4 7.144670e-05  1100   7.196570e-04   8.342840e-04   7.730200e-04
     128   2 8.420170e-05  1100   7.931080e-04   8.281700e-04   2.870610e-04
     129   3 5.396830e-05  1100   8.116650e-04   8.717560e-04   8.019340e-04
     130   1 9.560560e-05  1100   9.336720e-04   8.204140e-04   4.175470e-04
     131   1 6.541240e-05  1100   8.902800e-04   8.200030e-04   6.521170e-04
     132   3 7.755860e-05  1100   9.554880e-04   8.578840e-04   2.904030e-04
     133   3 9.941170e-05  1100   8.311160e-05   9.318340e-04   1.449770e-04
     134   2 5.024620e-05  1100   1.269570e-04   8.894540e-04   4.980790e-04
     135   4 7.745570e-05  1100   2.004910e-04   8.756920e-04   5.984910e-04
     136   3 6.545130e-05  1100   3.346530e-04   9.339390e-04   8.851090e-04
     137   3 8.661370e-05  1100   4.401080e-04   9.173190e-04   1.816950e-04
     138   4 9.543300e-05  1100   5.891280e-04   8.774970e-04   2.714750e-04
     139   4 9.781630e-05  1100   7.551320e-04   8.980350e-04   9.353650e-04
     140   3 8.686510e-05  1100   8.620730e-04   9.029200e-04   1.799220e-04
     141   1 9.279230e-05  1100   8.333460e-04   8.772250e-04   4.875660e-04
     142   1 9.963440e-05  1100   9.332770e-04   8.834980e-04   8.572030e-05
     143   4 9.618110e-05  1100   9.492810e-04   9.107870e-04   4.537840e-04
     144   1 6.290370e-05  1100   3.537630e-05   9.810930e-04   8.127910e-04
     145   2 9.564870e-05  1100   6.576450e-05   9.521290e-04   4.065290e-04
     146   1 7.242930e-05  1100   3.030550e-04   9.720640e-04   2.622650e-04
     147   4 6.189930e-05  1100   6.934580e-04   9.573910e-04   5.911690e-04
     148   3 5.114470e-05  1100   7.617570e-04   9.446070e-04   3.162160e-04
     149   3 9.544990e-05  1100   8.647470e-04   9.720880e-04   4.797630e-05
     150   2 8.831800e-05  1100   9.302060e-04   9.967130e-04   1.231260e-04
