  Granular Flow Simulation 

       1  atoms 
          1  atom types 

   0  1.000000e-02  xlo xhi 
   0  1.000000e-02  ylo yhi 
   0  1.000000e-02  zlo zhi 

 Atoms

     1 1 1e-5 1100 5e-04 5e-04 5e-04
