  Granular Flow Simulation 

       5  atoms 
          5 atom types 

   1.000000e-05   3.000000e-05  xlo xhi 
   1.000000e-05   3.000000e-05  ylo yhi 
   0.000000e-05   4.000000e-05  zlo zhi 

 Atoms

     1 1 1.0839e-6 150 2e-05 1.5e-05 2e-05 1.4307e-6 8.00e-02 10.00e-03 9.00e-02 8.000e-03 1.0000e-05 
     2 2 1.2839e-6 150 2e-05 2e-05 2e-05 1.2839e-6 4.00e-02 9.00e-03 4.00e-01 2.000e-03 1.0000e-03
     3 3 1.0283e-6 150 2e-05 2.5e-05 2e-05 1.0283e-6 1.00e-02 2.00e-03 2.00e-02 1.000e-03 1.0000e-03 
     4 4 1.0539e-6 150 1.5e-05 2e-05 2e-05 1.0539e-6 4.00e-02 5.00e-03 4.00e-02 1.000e-03 1.0000e-04 
     5 5 1.4839e-6 150 2.5e-05 2e-05 2e-05 1.4839e-6 4.00e-02 5.00e-03 4.00e-02 1.000e-03 1.0000e-04 


