LAMMPS (5 Nov 2016)
# NUFEB simulation



atom_style	bio

atom_modify	map array sort 1000 5e-7

boundary	pp pp ff

newton		off

processors  * * 1



units si



comm_modify	vel yes

read_data_bio atom.in

  orthogonal box = (0 0 0) to (0.0016 0.0001 0.0004)
  1 by 1 by 1 MPI processor grid
  reading atoms ...
  0 atoms
  5 nutrients


variable  x equal 319

variable  y equal 19

variable  z equal 28



lattice sc 6.051e-6

Lattice spacing in x,y,z = 6.051e-06 6.051e-06 6.051e-06


region reg block 1 $x 1 $y 1 $z

region reg block 1 319 1 $y 1 $z

region reg block 1 319 1 19 1 $z

region reg block 1 319 1 19 1 28



variable  xx internal 0.0

variable  zz internal 0.0

variable  v equal "(0.29*v_z*zlat * cos(v_xx/xlat * 4.7*PI*4.0/v_x) + 0.90*v_z*zlat - v_zz) > 0.0"



create_atoms 1 region reg var v set x xx set z zz

Created 99040 atoms
#create_atoms 1 region reg



neighbor	5e-7 bin



set type 1 diameter 1.051e-6

  99040 settings made for diameter
set type 1 density 10

  99040 settings made for density
set type 1 mass 2.069871e-15

  99040 settings made for mass




##############Define DEM Variables&Commands##############



pair_style  gran/hooke/history 1.e-4 NULL 1.e-5 NULL 0.0 1

pair_coeff  * *



reset_timestep 0



timestep 1e-6



#fix 1 all nve/limit 1e-7

#fix fv all viscous 1e-5



fix zw all wall/gran hooke/history 5000 NULL 500.0 NULL 1.5 0 zplane 0.000000e-04   4e-4



variable kanc equal 50



fix zwa all walladh v_kanc zplane  0.000000e-04   4e-4



variable ke equal 5e+10

fix  fd all fdrag



##############Define IBm Variables##############



#variables used in fix monod

variable EPSdens equal 30

variable EPSratio equal 1.25



#variables used in fix kinetics 

variable diffT equal 1e-4

variable tol equal 1e-6

variable etaHET equal 0

variable layer equal -1



#Defining nufebFoam variables

variable demSteps equal -1

variable bioSteps equal 1

variable bioDt equal 60

variable nloops equal 20





##############Define IBm Commands##############



fix k1 all kinetics 1 160 10 40 v_diffT v_layer niter -1

fix kgm all kinetics/growth/monod v_EPSdens v_etaHET gflag 0

fix g1 all kinetics/diffusion v_tol dn nn nn kg



fix cfd1 all nufebFoam v_demSteps v_bioSteps v_bioDt v_nloops

fix vf1 all verify 100 bm2 1 demflag 0



##############Simulation Output##############



#dump		id all custom 100 snapshot.bubblemd id type diameter x y z

#dump		du2 all grid 1000 grid_%_*.vti con 

thermo_style    custom step cpu atoms biomass 

thermo		10

thermo_modify	lost warn



#run 1



run 0 pre no post no
WARNING: EPS is not defined in fix_kinetics/kinetics/monod (../fix_bio_kinetics_monod.cpp:253)
WARNING: Negative input value for DEM steps, steps will be calculated and adjusted in nufebFoam (../fix_bio_fluid.cpp:73)
ae = 1.659091e+00, top = 1.694280e-04, base = 1.028670e-04, ave_h = 1.419581e-04 
Neighbor list info ...
  2 neighbor list requests
  update every 1 steps, delay 10 steps, check yes
  max neighbors/atom: 2000, page size: 100000
  master list distance cutoff = 1.551e-06
  ghost atom cutoff = 1.551e-06
  binsize = 7.755e-07 -> bins = 2064 129 516
Memory usage per processor = 590.453 Mbytes
Step CPU Atoms biomass 
       0            0    99040 2.0500002e-10 
Loop time of 0.000554085 on 1 procs for 0 steps with 99040 atoms

0.0% CPU use with 1 MPI tasks x no OpenMP threads
run 1 pre no post no
Step CPU Atoms biomass 
       0            0    99040 2.0500002e-10 
number of iterations: 526542 
       1    4641.2599    99040 2.0500002e-10 
Loop time of 4641.26 on 1 procs for 1 steps with 99040 atoms

99.9% CPU use with 1 MPI tasks x no OpenMP threads
run 100 pre no post no
Step CPU Atoms biomass 
       1            0    99040 2.0500002e-10 
      10   0.10343814    99040 2.0500002e-10 
      20   0.19097996    99040 2.0500002e-10 
      30   0.26506805    99040 2.0500002e-10 
      40   0.33697605    99040 2.0500002e-10 
      50   0.40941095    99040 2.0500002e-10 
      60   0.48136902    99040 2.0500002e-10 
      70   0.55826211    99040 2.0500002e-10 
      80   0.62975311    99040 2.0500002e-10 
      90   0.70092106    99040 2.0500002e-10 
ssurf = 9.516944e-04 
     100   0.77275801    99040 2.0500002e-10 
     101   0.77884507    99040 2.0500002e-10 
Loop time of 0.778973 on 1 procs for 100 steps with 99040 atoms

96.5% CPU use with 1 MPI tasks x no OpenMP threads
run 100 pre no post no
Step CPU Atoms biomass 
     101            0    99040 2.0500002e-10 
     110  0.065272093    99040 2.0500002e-10 
     120   0.13850713    99040 2.0500002e-10 
     130   0.21039891    99040 2.0500002e-10 
     140   0.28221202    99040 2.0500002e-10 
     150   0.35445094    99040 2.0500002e-10 
     160   0.42601514    99040 2.0500002e-10 
     170   0.49751806    99040 2.0500002e-10 
     180   0.56863809    99040 2.0500002e-10 
     190   0.64002395    99040 2.0500002e-10 
ssurf = 9.516944e-04 
     200   0.71169496    99040 2.0500002e-10 
     201   0.71773505    99040 2.0500002e-10 
Loop time of 0.717869 on 1 procs for 100 steps with 99040 atoms

99.7% CPU use with 1 MPI tasks x no OpenMP threads
run 100 pre no post no
Step CPU Atoms biomass 
     201            0    99040 2.0500002e-10 
     210  0.065618038    99040 2.0500002e-10 
     220   0.13709092    99040 2.0500002e-10 
     230   0.20847297    99040 2.0500002e-10 
     240    0.2798779    99040 2.0500002e-10 
     250   0.35139084    99040 2.0500002e-10 
     260     0.423877    99040 2.0500002e-10 
     270   0.49511003    99040 2.0500002e-10 
     280   0.56620097    99040 2.0500002e-10 
     290   0.63761401    99040 2.0500002e-10 
ssurf = 9.516944e-04 
     300   0.71244502    99040 2.0500002e-10 
     301   0.71861482    99040 2.0500002e-10 
Loop time of 0.718754 on 1 procs for 100 steps with 99040 atoms

100.2% CPU use with 1 MPI tasks x no OpenMP threads
run 100 pre no post no
Step CPU Atoms biomass 
     301            0    99040 2.0500002e-10 
     310  0.069757938    99040 2.0500002e-10 
     320   0.14151001    99040 2.0500002e-10 
     330   0.21302199    99040 2.0500002e-10 
     340   0.28444791    99040 2.0500002e-10 
     350     0.356076    99040 2.0500002e-10 
     360   0.43364787    99040 2.0500002e-10 
     370    0.5049789    99040 2.0500002e-10 
     380   0.57620096    99040 2.0500002e-10 
     390   0.64807296    99040 2.0500002e-10 
ssurf = 9.516944e-04 
     400   0.71970391    99040 2.0500002e-10 
     401    0.7258389    99040 2.0500002e-10 
Loop time of 0.725983 on 1 procs for 100 steps with 99040 atoms

100.3% CPU use with 1 MPI tasks x no OpenMP threads
run 100 pre no post no
Step CPU Atoms biomass 
     401            0    99040 2.0500002e-10 
     410  0.065459967    99040 2.0500002e-10 
     420   0.13689494    99040 2.0500002e-10 
     430   0.20867109    99040 2.0500002e-10 
     440   0.28123093    99040 2.0500002e-10 
     450   0.35296392    99040 2.0500002e-10 
     460   0.42540598    99040 2.0500002e-10 
     470   0.49702001    99040 2.0500002e-10 
     480   0.56889105    99040 2.0500002e-10 
     490   0.64024806    99040 2.0500002e-10 
ssurf = 9.516944e-04 
     500   0.71164203    99040 2.0500002e-10 
     501   0.71971703    99040 2.0500002e-10 
Loop time of 0.720008 on 1 procs for 100 steps with 99040 atoms

100.0% CPU use with 1 MPI tasks x no OpenMP threads
run 100 pre no post no
Step CPU Atoms biomass 
     501            0    99040 2.0500002e-10 
     510  0.065191031    99040 2.0500002e-10 
     520   0.13611603    99040 2.0500002e-10 
     530   0.20701504    99040 2.0500002e-10 
     540   0.27804589    99040 2.0500002e-10 
     550   0.35581088    99040 2.0500002e-10 
     560   0.42829394    99040 2.0500002e-10 
     570   0.50025201    99040 2.0500002e-10 
     580   0.57174897    99040 2.0500002e-10 
     590   0.64320803    99040 2.0500002e-10 
ssurf = 9.516944e-04 
     600   0.71435308    99040 2.0500002e-10 
     601   0.72039199    99040 2.0500002e-10 
Loop time of 0.720533 on 1 procs for 100 steps with 99040 atoms

99.9% CPU use with 1 MPI tasks x no OpenMP threads
run 100 pre no post no
Step CPU Atoms biomass 
     601            0    99040 2.0500002e-10 
     610  0.065745831    99040 2.0500002e-10 
     620   0.13748789    99040 2.0500002e-10 
     630   0.21510983    99040 2.0500002e-10 
     640    0.2881639    99040 2.0500002e-10 
     650   0.36161399    99040 2.0500002e-10 
     660   0.43487382    99040 2.0500002e-10 
     670   0.50631499    99040 2.0500002e-10 
     680   0.57764387    99040 2.0500002e-10 
     690   0.64945292    99040 2.0500002e-10 
ssurf = 9.516944e-04 
     700   0.72662091    99040 2.0500002e-10 
     701    0.7326858    99040 2.0500002e-10 
Loop time of 0.732815 on 1 procs for 100 steps with 99040 atoms

99.9% CPU use with 1 MPI tasks x no OpenMP threads
run 100 pre no post no
Step CPU Atoms biomass 
     701            0    99040 2.0500002e-10 
     710  0.065392017    99040 2.0500002e-10 
     720   0.13684702    99040 2.0500002e-10 
     730   0.20816302    99040 2.0500002e-10 
     740   0.27973413    99040 2.0500002e-10 
     750   0.35084414    99040 2.0500002e-10 
     760   0.42756915    99040 2.0500002e-10 
     770   0.49992704    99040 2.0500002e-10 
     780   0.57210708    99040 2.0500002e-10 
     790     0.644104    99040 2.0500002e-10 
ssurf = 9.516944e-04 
     800   0.71606994    99040 2.0500002e-10 
     801   0.72216702    99040 2.0500002e-10 
Loop time of 0.722307 on 1 procs for 100 steps with 99040 atoms

100.2% CPU use with 1 MPI tasks x no OpenMP threads
run 100 pre no post no
Step CPU Atoms biomass 
     801            0    99040 2.0500002e-10 
     810  0.064962149    99040 2.0500002e-10 
     820   0.13574409    99040 2.0500002e-10 
     830    0.2071352    99040 2.0500002e-10 
     840     0.277946    99040 2.0500002e-10 
     850   0.35380507    99040 2.0500002e-10 
     860   0.42477918    99040 2.0500002e-10 
     870   0.49619603    99040 2.0500002e-10 
     880   0.56752205    99040 2.0500002e-10 
     890   0.63843203    99040 2.0500002e-10 
ssurf = 9.516944e-04 
     900   0.70963502    99040 2.0500002e-10 
     901   0.71570706    99040 2.0500002e-10 
Loop time of 0.715838 on 1 procs for 100 steps with 99040 atoms

100.0% CPU use with 1 MPI tasks x no OpenMP threads
run 100 pre no post no
Step CPU Atoms biomass 
     901            0    99040 2.0500002e-10 
     910  0.065713882    99040 2.0500002e-10 
     920   0.13807106    99040 2.0500002e-10 
     930   0.20943785    99040 2.0500002e-10 
     940   0.28113103    99040 2.0500002e-10 
     950   0.35837483    99040 2.0500002e-10 
     960   0.42934084    99040 2.0500002e-10 
     970   0.50086403    99040 2.0500002e-10 
     980   0.57216287    99040 2.0500002e-10 
     990   0.64355993    99040 2.0500002e-10 
ssurf = 9.516944e-04 
    1000   0.71500802    99040 2.0500002e-10 
    1001   0.72107196    99040 2.0500002e-10 
Loop time of 0.721202 on 1 procs for 100 steps with 99040 atoms

99.8% CPU use with 1 MPI tasks x no OpenMP threads
run 100 pre no post no
Step CPU Atoms biomass 
    1001            0    99040 2.0500002e-10 
    1010   0.06583786    99040 2.0500002e-10 
    1020   0.13727498    99040 2.0500002e-10 
    1030      0.20892    99040 2.0500002e-10 
    1040   0.28096604    99040 2.0500002e-10 
    1050   0.35229993    99040 2.0500002e-10 
    1060   0.42369294    99040 2.0500002e-10 
    1070   0.50876689    99040 2.0500002e-10 
    1080   0.58723593    99040 2.0500002e-10 
    1090   0.66553807    99040 2.0500002e-10 
ssurf = 9.516944e-04 
    1100      0.73841    99040 2.0500002e-10 
    1101   0.74447703    99040 2.0500002e-10 
Loop time of 0.744603 on 1 procs for 100 steps with 99040 atoms

99.9% CPU use with 1 MPI tasks x no OpenMP threads
run 100 pre no post no
Step CPU Atoms biomass 
    1101            0    99040 2.0500002e-10 
    1110  0.065675974    99040 2.0500002e-10 
    1120    0.1368928    99040 2.0500002e-10 
    1130   0.20814586    99040 2.0500002e-10 
    1140   0.28010082    99040 2.0500002e-10 
    1150   0.35116482    99040 2.0500002e-10 
    1160   0.42294288    99040 2.0500002e-10 
    1170   0.49434686    99040 2.0500002e-10 
    1180   0.56541491    99040 2.0500002e-10 
    1190   0.63692498    99040 2.0500002e-10 
ssurf = 9.516944e-04 
    1200   0.70846391    99040 2.0500002e-10 
    1201    0.7145009    99040 2.0500002e-10 
Loop time of 0.714631 on 1 procs for 100 steps with 99040 atoms

100.2% CPU use with 1 MPI tasks x no OpenMP threads
run 100 pre no post no
Step CPU Atoms biomass 
    1201            0    99040 2.0500002e-10 
    1210  0.066036224    99040 2.0500002e-10 
    1220   0.13767505    99040 2.0500002e-10 
    1230   0.20927906    99040 2.0500002e-10 
    1240   0.28650904    99040 2.0500002e-10 
    1250   0.35849118    99040 2.0500002e-10 
    1260   0.42994308    99040 2.0500002e-10 
    1270   0.50137019    99040 2.0500002e-10 
    1280   0.57318711    99040 2.0500002e-10 
    1290   0.64481711    99040 2.0500002e-10 
ssurf = 9.516944e-04 
    1300    0.7169342    99040 2.0500002e-10 
    1301   0.72304416    99040 2.0500002e-10 
Loop time of 0.723204 on 1 procs for 100 steps with 99040 atoms

99.6% CPU use with 1 MPI tasks x no OpenMP threads
run 100 pre no post no
Step CPU Atoms biomass 
    1301            0    99040 2.0500002e-10 
    1310  0.065098047    99040 2.0500002e-10 
    1320    0.1361661    99040 2.0500002e-10 
    1330   0.20744014    99040 2.0500002e-10 
    1340   0.27852011    99040 2.0500002e-10 
    1350   0.34962797    99040 2.0500002e-10 
    1360   0.42078805    99040 2.0500002e-10 
    1370   0.49224305    99040 2.0500002e-10 
    1380   0.56381702    99040 2.0500002e-10 
    1390   0.63485503    99040 2.0500002e-10 
ssurf = 9.516944e-04 
    1400   0.70658207    99040 2.0500002e-10 
    1401   0.71265912    99040 2.0500002e-10 
Loop time of 0.712805 on 1 procs for 100 steps with 99040 atoms

99.9% CPU use with 1 MPI tasks x no OpenMP threads
run 100 pre no post no
Step CPU Atoms biomass 
    1401            0    99040 2.0500002e-10 
    1410  0.065729141    99040 2.0500002e-10 
    1420     0.137187    99040 2.0500002e-10 
    1430   0.20870614    99040 2.0500002e-10 
    1440   0.28041506    99040 2.0500002e-10 
    1450   0.35190797    99040 2.0500002e-10 
    1460   0.42374301    99040 2.0500002e-10 
    1470   0.49507904    99040 2.0500002e-10 
    1480   0.56657791    99040 2.0500002e-10 
    1490   0.63846898    99040 2.0500002e-10 
ssurf = 9.516944e-04 
    1500   0.71007895    99040 2.0500002e-10 
    1501   0.71610498    99040 2.0500002e-10 
Loop time of 0.71624 on 1 procs for 100 steps with 99040 atoms

100.0% CPU use with 1 MPI tasks x no OpenMP threads
run 100 pre no post no
Step CPU Atoms biomass 
    1501            0    99040 2.0500002e-10 
    1510  0.065444946    99040 2.0500002e-10 
    1520   0.13683009    99040 2.0500002e-10 
    1530   0.20850015    99040 2.0500002e-10 
    1540   0.27965212    99040 2.0500002e-10 
    1550   0.35111308    99040 2.0500002e-10 
    1560   0.42294598    99040 2.0500002e-10 
    1570   0.49444795    99040 2.0500002e-10 
    1580   0.56665397    99040 2.0500002e-10 
    1590   0.63796711    99040 2.0500002e-10 
ssurf = 9.516944e-04 
    1600   0.70962906    99040 2.0500002e-10 
    1601   0.71567106    99040 2.0500002e-10 
Loop time of 0.715803 on 1 procs for 100 steps with 99040 atoms

100.0% CPU use with 1 MPI tasks x no OpenMP threads
run 100 pre no post no
Step CPU Atoms biomass 
    1601            0    99040 2.0500002e-10 
    1610   0.06539011    99040 2.0500002e-10 
    1620   0.13631296    99040 2.0500002e-10 
    1630   0.20830488    99040 2.0500002e-10 
    1640   0.27886391    99040 2.0500002e-10 
    1650   0.35025406    99040 2.0500002e-10 
    1660   0.42140198    99040 2.0500002e-10 
    1670   0.49249601    99040 2.0500002e-10 
    1680   0.56385303    99040 2.0500002e-10 
    1690   0.63519597    99040 2.0500002e-10 
ssurf = 9.516944e-04 
    1700   0.70708489    99040 2.0500002e-10 
    1701    0.7131691    99040 2.0500002e-10 
Loop time of 0.713301 on 1 procs for 100 steps with 99040 atoms

100.4% CPU use with 1 MPI tasks x no OpenMP threads
run 100 pre no post no
Step CPU Atoms biomass 
    1701            0    99040 2.0500002e-10 
    1710  0.070462942    99040 2.0500002e-10 
    1720   0.14177179    99040 2.0500002e-10 
    1730   0.21279883    99040 2.0500002e-10 
    1740   0.28372598    99040 2.0500002e-10 
    1750   0.35472989    99040 2.0500002e-10 
    1760   0.42567086    99040 2.0500002e-10 
    1770   0.49681282    99040 2.0500002e-10 
    1780   0.56821799    99040 2.0500002e-10 
    1790   0.63929892    99040 2.0500002e-10 
ssurf = 9.516944e-04 
    1800   0.71059585    99040 2.0500002e-10 
    1801   0.71662998    99040 2.0500002e-10 
Loop time of 0.716763 on 1 procs for 100 steps with 99040 atoms

99.9% CPU use with 1 MPI tasks x no OpenMP threads
run 100 pre no post no
Step CPU Atoms biomass 
    1801            0    99040 2.0500002e-10 
    1810  0.065719128    99040 2.0500002e-10 
    1820   0.13744211    99040 2.0500002e-10 
    1830   0.20908499    99040 2.0500002e-10 
    1840   0.28041005    99040 2.0500002e-10 
    1850   0.35207105    99040 2.0500002e-10 
    1860   0.42361212    99040 2.0500002e-10 
    1870   0.50097418    99040 2.0500002e-10 
    1880     0.573421    99040 2.0500002e-10 
    1890   0.64519596    99040 2.0500002e-10 
ssurf = 9.516944e-04 
    1900   0.71694016    99040 2.0500002e-10 
    1901   0.72298408    99040 2.0500002e-10 
Loop time of 0.723113 on 1 procs for 100 steps with 99040 atoms

100.1% CPU use with 1 MPI tasks x no OpenMP threads
run 100 pre no post no
Step CPU Atoms biomass 
    1901            0    99040 2.0500002e-10 
    1910   0.06557107    99040 2.0500002e-10 
    1920    0.1367929    99040 2.0500002e-10 
    1930   0.20835304    99040 2.0500002e-10 
    1940   0.27976704    99040 2.0500002e-10 
    1950   0.35125184    99040 2.0500002e-10 
    1960   0.42299795    99040 2.0500002e-10 
    1970   0.49462605    99040 2.0500002e-10 
    1980   0.56590295    99040 2.0500002e-10 
    1990     0.645612    99040 2.0500002e-10 
ssurf = 9.516944e-04 
    2000   0.71911883    99040 2.0500002e-10 
    2001   0.72529888    99040 2.0500002e-10 
Loop time of 0.725429 on 1 procs for 100 steps with 99040 atoms

100.4% CPU use with 1 MPI tasks x no OpenMP threads
run 100 pre no post no
Step CPU Atoms biomass 
    2001            0    99040 2.0500002e-10 
    2010  0.065338135    99040 2.0500002e-10 
    2020   0.14363194    99040 2.0500002e-10 
    2030   0.21488094    99040 2.0500002e-10 
    2040   0.28631902    99040 2.0500002e-10 
    2050   0.35820508    99040 2.0500002e-10 
    2060    0.4304769    99040 2.0500002e-10 
    2070   0.50145102    99040 2.0500002e-10 
    2080   0.57803297    99040 2.0500002e-10 
    2090   0.64913702    99040 2.0500002e-10 
ssurf = 9.516944e-04 
    2100   0.72008109    99040 2.0500002e-10 
    2101   0.72615504    99040 2.0500002e-10 
Loop time of 0.72631 on 1 procs for 100 steps with 99040 atoms

99.7% CPU use with 1 MPI tasks x no OpenMP threads
run 100 pre no post no
Step CPU Atoms biomass 
    2101            0    99040 2.0500002e-10 
    2110  0.065557003    99040 2.0500002e-10 
    2120   0.13703895    99040 2.0500002e-10 
    2130    0.2081449    99040 2.0500002e-10 
    2140   0.27982998    99040 2.0500002e-10 
    2150    0.3511529    99040 2.0500002e-10 
    2160   0.42268491    99040 2.0500002e-10 
    2170   0.49419904    99040 2.0500002e-10 
    2180    0.5657711    99040 2.0500002e-10 
    2190   0.64636993    99040 2.0500002e-10 
ssurf = 9.516944e-04 
    2200   0.71771002    99040 2.0500002e-10 
    2201   0.72376299    99040 2.0500002e-10 
Loop time of 0.723909 on 1 procs for 100 steps with 99040 atoms

100.0% CPU use with 1 MPI tasks x no OpenMP threads
run 100 pre no post no
Step CPU Atoms biomass 
    2201            0    99040 2.0500002e-10 
    2210  0.064917088    99040 2.0500002e-10 
    2220   0.13594294    99040 2.0500002e-10 
    2230   0.21242809    99040 2.0500002e-10 
    2240   0.28313994    99040 2.0500002e-10 
    2250     0.354249    99040 2.0500002e-10 
    2260   0.42531705    99040 2.0500002e-10 
    2270   0.49655104    99040 2.0500002e-10 
    2280   0.56765103    99040 2.0500002e-10 
    2290   0.63857508    99040 2.0500002e-10 
ssurf = 9.516944e-04 
    2300   0.70985413    99040 2.0500002e-10 
    2301   0.71592307    99040 2.0500002e-10 
Loop time of 0.716057 on 1 procs for 100 steps with 99040 atoms

100.0% CPU use with 1 MPI tasks x no OpenMP threads
run 100 pre no post no
Step CPU Atoms biomass 
    2301            0    99040 2.0500002e-10 
    2310  0.065039158    99040 2.0500002e-10 
    2320   0.13606811    99040 2.0500002e-10 
    2330   0.20700908    99040 2.0500002e-10 
    2340   0.28344297    99040 2.0500002e-10 
    2350   0.35505509    99040 2.0500002e-10 
    2360   0.42663002    99040 2.0500002e-10 
    2370   0.49802208    99040 2.0500002e-10 
    2380   0.56908107    99040 2.0500002e-10 
    2390   0.64011908    99040 2.0500002e-10 
ssurf = 9.516944e-04 
    2400   0.71165609    99040 2.0500002e-10 
    2401   0.71761894    99040 2.0500002e-10 
Loop time of 0.717751 on 1 procs for 100 steps with 99040 atoms

99.8% CPU use with 1 MPI tasks x no OpenMP threads
run 100 pre no post no
Step CPU Atoms biomass 
    2401            0    99040 2.0500002e-10 
    2410  0.065418005    99040 2.0500002e-10 
    2420   0.13643289    99040 2.0500002e-10 
    2430   0.20782089    99040 2.0500002e-10 
    2440   0.27841187    99040 2.0500002e-10 
    2450   0.34940982    99040 2.0500002e-10 
    2460   0.42052889    99040 2.0500002e-10 
    2470   0.49170303    99040 2.0500002e-10 
    2480   0.56277704    99040 2.0500002e-10 
    2490   0.63369894    99040 2.0500002e-10 
ssurf = 9.516944e-04 
    2500   0.70486188    99040 2.0500002e-10 
    2501     0.713557    99040 2.0500002e-10 
Loop time of 0.713816 on 1 procs for 100 steps with 99040 atoms

100.3% CPU use with 1 MPI tasks x no OpenMP threads
run 100 pre no post no
Step CPU Atoms biomass 
    2501            0    99040 2.0500002e-10 
    2510  0.070112228    99040 2.0500002e-10 
    2520   0.14129305    99040 2.0500002e-10 
    2530   0.21270323    99040 2.0500002e-10 
    2540   0.28353715    99040 2.0500002e-10 
    2550   0.35475421    99040 2.0500002e-10 
    2560   0.43069911    99040 2.0500002e-10 
    2570   0.50154209    99040 2.0500002e-10 
    2580   0.57247305    99040 2.0500002e-10 
    2590   0.64328122    99040 2.0500002e-10 
ssurf = 9.516944e-04 
    2600   0.71473718    99040 2.0500002e-10 
    2601   0.72079206    99040 2.0500002e-10 
Loop time of 0.720919 on 1 procs for 100 steps with 99040 atoms

100.4% CPU use with 1 MPI tasks x no OpenMP threads
run 100 pre no post no
Step CPU Atoms biomass 
    2601            0    99040 2.0500002e-10 
    2610  0.070825815    99040 2.0500002e-10 
    2620   0.14363289    99040 2.0500002e-10 
    2630   0.21553683    99040 2.0500002e-10 
    2640   0.28815794    99040 2.0500002e-10 
    2650   0.36094999    99040 2.0500002e-10 
    2660   0.43307281    99040 2.0500002e-10 
    2670   0.51578784    99040 2.0500002e-10 
    2680   0.58912778    99040 2.0500002e-10 
    2690    0.6608448    99040 2.0500002e-10 
ssurf = 9.516944e-04 
    2700     0.732512    99040 2.0500002e-10 
    2701   0.73847795    99040 2.0500002e-10 
Loop time of 0.738624 on 1 procs for 100 steps with 99040 atoms

100.2% CPU use with 1 MPI tasks x no OpenMP threads
run 100 pre no post no
Step CPU Atoms biomass 
    2701            0    99040 2.0500002e-10 
    2710   0.06577611    99040 2.0500002e-10 
    2720   0.14245009    99040 2.0500002e-10 
    2730   0.21400809    99040 2.0500002e-10 
    2740   0.28573608    99040 2.0500002e-10 
    2750   0.35736895    99040 2.0500002e-10 
    2760   0.42871094    99040 2.0500002e-10 
    2770   0.50005007    99040 2.0500002e-10 
    2780   0.57122588    99040 2.0500002e-10 
    2790   0.64235997    99040 2.0500002e-10 
ssurf = 9.516944e-04 
    2800     0.713727    99040 2.0500002e-10 
    2801   0.71976399    99040 2.0500002e-10 
Loop time of 0.719895 on 1 procs for 100 steps with 99040 atoms

100.0% CPU use with 1 MPI tasks x no OpenMP threads
run 100 pre no post no
Step CPU Atoms biomass 
    2801            0    99040 2.0500002e-10 
    2810  0.065371037    99040 2.0500002e-10 
    2820   0.14240289    99040 2.0500002e-10 
    2830   0.21413994    99040 2.0500002e-10 
    2840   0.28568387    99040 2.0500002e-10 
    2850   0.35716796    99040 2.0500002e-10 
    2860   0.42870784    99040 2.0500002e-10 
    2870   0.50027299    99040 2.0500002e-10 
    2880   0.57747388    99040 2.0500002e-10 
    2890   0.64877987    99040 2.0500002e-10 
ssurf = 9.516944e-04 
    2900   0.72043586    99040 2.0500002e-10 
    2901   0.72651982    99040 2.0500002e-10 
Loop time of 0.726652 on 1 procs for 100 steps with 99040 atoms

99.6% CPU use with 1 MPI tasks x no OpenMP threads
run 100 pre no post no
Step CPU Atoms biomass 
    2901            0    99040 2.0500002e-10 
    2910  0.065193892    99040 2.0500002e-10 
    2920     0.137182    99040 2.0500002e-10 
    2930   0.20848489    99040 2.0500002e-10 
    2940     0.279773    99040 2.0500002e-10 
    2950   0.35152292    99040 2.0500002e-10 
    2960   0.42292404    99040 2.0500002e-10 
    2970   0.49441385    99040 2.0500002e-10 
    2980   0.56608486    99040 2.0500002e-10 
    2990   0.64368701    99040 2.0500002e-10 
ssurf = 9.516944e-04 
    3000   0.71560502    99040 2.0500002e-10 
    3001   0.72157693    99040 2.0500002e-10 
Loop time of 0.721724 on 1 procs for 100 steps with 99040 atoms

99.2% CPU use with 1 MPI tasks x no OpenMP threads
run 100 pre no post no
Step CPU Atoms biomass 
    3001            0    99040 2.0500002e-10 
    3010  0.066614866    99040 2.0500002e-10 
    3020   0.14391804    99040 2.0500002e-10 
    3030   0.21563101    99040 2.0500002e-10 
    3040   0.28730202    99040 2.0500002e-10 
    3050   0.35911202    99040 2.0500002e-10 
    3060   0.43040586    99040 2.0500002e-10 
    3070   0.50186491    99040 2.0500002e-10 
    3080   0.57339001    99040 2.0500002e-10 
    3090   0.64527202    99040 2.0500002e-10 
ssurf = 9.516944e-04 
    3100   0.71708798    99040 2.0500002e-10 
    3101     0.723104    99040 2.0500002e-10 
Loop time of 0.723244 on 1 procs for 100 steps with 99040 atoms

100.1% CPU use with 1 MPI tasks x no OpenMP threads
run 100 pre no post no
Step CPU Atoms biomass 
    3101            0    99040 2.0500002e-10 
    3110  0.065654993    99040 2.0500002e-10 
    3120   0.13730717    99040 2.0500002e-10 
    3130   0.21430898    99040 2.0500002e-10 
    3140   0.28638601    99040 2.0500002e-10 
    3150    0.3580451    99040 2.0500002e-10 
    3160   0.43001914    99040 2.0500002e-10 
    3170   0.50233507    99040 2.0500002e-10 
    3180   0.57940602    99040 2.0500002e-10 
    3190   0.65099001    99040 2.0500002e-10 
ssurf = 9.516944e-04 
    3200   0.72295213    99040 2.0500002e-10 
    3201   0.72901297    99040 2.0500002e-10 
Loop time of 0.72914 on 1 procs for 100 steps with 99040 atoms

99.8% CPU use with 1 MPI tasks x no OpenMP threads
run 100 pre no post no
Step CPU Atoms biomass 
    3201            0    99040 2.0500002e-10 
    3210  0.065393925    99040 2.0500002e-10 
    3220   0.13673711    99040 2.0500002e-10 
    3230   0.20823503    99040 2.0500002e-10 
    3240   0.27975011    99040 2.0500002e-10 
    3250   0.35141611    99040 2.0500002e-10 
    3260   0.42255712    99040 2.0500002e-10 
    3270   0.49403906    99040 2.0500002e-10 
    3280   0.56920505    99040 2.0500002e-10 
    3290   0.64264393    99040 2.0500002e-10 
ssurf = 9.516944e-04 
    3300   0.71462893    99040 2.0500002e-10 
    3301   0.72054791    99040 2.0500002e-10 
Loop time of 0.720676 on 1 procs for 100 steps with 99040 atoms

99.9% CPU use with 1 MPI tasks x no OpenMP threads
run 100 pre no post no
Step CPU Atoms biomass 
    3301            0    99040 2.0500002e-10 
    3310  0.064951897    99040 2.0500002e-10 
    3320    0.1359508    99040 2.0500002e-10 
    3330   0.21199989    99040 2.0500002e-10 
    3340   0.28295898    99040 2.0500002e-10 
    3350   0.35383296    99040 2.0500002e-10 
    3360   0.42491889    99040 2.0500002e-10 
    3370   0.49589896    99040 2.0500002e-10 
    3380    0.5668509    99040 2.0500002e-10 
    3390   0.63784599    99040 2.0500002e-10 
ssurf = 9.516944e-04 
    3400   0.70905685    99040 2.0500002e-10 
    3401   0.71505594    99040 2.0500002e-10 
Loop time of 0.715186 on 1 procs for 100 steps with 99040 atoms

100.1% CPU use with 1 MPI tasks x no OpenMP threads
run 100 pre no post no
Step CPU Atoms biomass 
    3401            0    99040 2.0500002e-10 
    3410  0.065032959    99040 2.0500002e-10 
    3420   0.13637614    99040 2.0500002e-10 
    3430   0.20722914    99040 2.0500002e-10 
    3440   0.28377604    99040 2.0500002e-10 
    3450   0.35478592    99040 2.0500002e-10 
    3460   0.42549992    99040 2.0500002e-10 
    3470     0.496562    99040 2.0500002e-10 
    3480   0.56753302    99040 2.0500002e-10 
    3490   0.63871193    99040 2.0500002e-10 
ssurf = 9.516944e-04 
    3500   0.70976114    99040 2.0500002e-10 
    3501   0.71602011    99040 2.0500002e-10 
Loop time of 0.716156 on 1 procs for 100 steps with 99040 atoms

100.0% CPU use with 1 MPI tasks x no OpenMP threads
run 100 pre no post no
Step CPU Atoms biomass 
    3501            0    99040 2.0500002e-10 
    3510  0.065232038    99040 2.0500002e-10 
    3520   0.13642406    99040 2.0500002e-10 
    3530   0.20741701    99040 2.0500002e-10 
    3540   0.27851796    99040 2.0500002e-10 
    3550   0.34971094    99040 2.0500002e-10 
    3560   0.42106986    99040 2.0500002e-10 
    3570   0.49972892    99040 2.0500002e-10 
    3580    0.5709269    99040 2.0500002e-10 
    3590   0.64196205    99040 2.0500002e-10 
ssurf = 9.516944e-04 
    3600   0.71818805    99040 2.0500002e-10 
    3601   0.72422385    99040 2.0500002e-10 
Loop time of 0.724356 on 1 procs for 100 steps with 99040 atoms

100.0% CPU use with 1 MPI tasks x no OpenMP threads
run 100 pre no post no
Step CPU Atoms biomass 
    3601            0    99040 2.0500002e-10 
    3610  0.065329075    99040 2.0500002e-10 
    3620   0.13617802    99040 2.0500002e-10 
    3630   0.20714903    99040 2.0500002e-10 
    3640    0.2781601    99040 2.0500002e-10 
    3650   0.35444212    99040 2.0500002e-10 
    3660   0.42625713    99040 2.0500002e-10 
    3670   0.49764204    99040 2.0500002e-10 
    3680   0.56867313    99040 2.0500002e-10 
    3690   0.64011908    99040 2.0500002e-10 
ssurf = 9.516944e-04 
    3700   0.71130514    99040 2.0500002e-10 
    3701   0.71723294    99040 2.0500002e-10 
Loop time of 0.717366 on 1 procs for 100 steps with 99040 atoms

100.4% CPU use with 1 MPI tasks x no OpenMP threads
run 100 pre no post no
Step CPU Atoms biomass 
    3701            0    99040 2.0500002e-10 
    3710   0.06555295    99040 2.0500002e-10 
    3720   0.13710999    99040 2.0500002e-10 
    3730   0.20893502    99040 2.0500002e-10 
    3740   0.28045797    99040 2.0500002e-10 
    3750   0.35734701    99040 2.0500002e-10 
    3760   0.42892814    99040 2.0500002e-10 
    3770   0.50058317    99040 2.0500002e-10 
    3780   0.57200813    99040 2.0500002e-10 
    3790   0.64325809    99040 2.0500002e-10 
ssurf = 9.516944e-04 
    3800   0.71451712    99040 2.0500002e-10 
    3801   0.72063208    99040 2.0500002e-10 
Loop time of 0.720762 on 1 procs for 100 steps with 99040 atoms

99.9% CPU use with 1 MPI tasks x no OpenMP threads
run 100 pre no post no
Step CPU Atoms biomass 
    3801            0    99040 2.0500002e-10 
    3810  0.065633059    99040 2.0500002e-10 
    3820   0.13709617    99040 2.0500002e-10 
    3830   0.20890617    99040 2.0500002e-10 
    3840   0.28053212    99040 2.0500002e-10 
    3850   0.35195017    99040 2.0500002e-10 
    3860   0.42375803    99040 2.0500002e-10 
    3870   0.49537611    99040 2.0500002e-10 
    3880   0.56694603    99040 2.0500002e-10 
    3890   0.63863015    99040 2.0500002e-10 
ssurf = 9.516944e-04 
    3900   0.71012402    99040 2.0500002e-10 
    3901   0.71617317    99040 2.0500002e-10 
Loop time of 0.716321 on 1 procs for 100 steps with 99040 atoms

100.0% CPU use with 1 MPI tasks x no OpenMP threads
run 100 pre no post no
Step CPU Atoms biomass 
    3901            0    99040 2.0500002e-10 
    3910  0.065789938    99040 2.0500002e-10 
    3920   0.13778996    99040 2.0500002e-10 
    3930   0.20939398    99040 2.0500002e-10 
    3940   0.28109789    99040 2.0500002e-10 
    3950   0.35812402    99040 2.0500002e-10 
    3960   0.42957997    99040 2.0500002e-10 
    3970   0.50136089    99040 2.0500002e-10 
    3980   0.57317781    99040 2.0500002e-10 
    3990   0.64456987    99040 2.0500002e-10 
ssurf = 9.516944e-04 
    4000   0.71631098    99040 2.0500002e-10 
    4001   0.72228193    99040 2.0500002e-10 
Loop time of 0.722414 on 1 procs for 100 steps with 99040 atoms

99.7% CPU use with 1 MPI tasks x no OpenMP threads
run 100 pre no post no
Step CPU Atoms biomass 
    4001            0    99040 2.0500002e-10 
    4010  0.065613031    99040 2.0500002e-10 
    4020     0.137187    99040 2.0500002e-10 
    4030   0.20842505    99040 2.0500002e-10 
    4040   0.28062391    99040 2.0500002e-10 
    4050   0.35217905    99040 2.0500002e-10 
    4060   0.42404294    99040 2.0500002e-10 
    4070   0.49571991    99040 2.0500002e-10 
    4080   0.56748104    99040 2.0500002e-10 
    4090   0.64408302    99040 2.0500002e-10 
ssurf = 9.516944e-04 
    4100   0.71560693    99040 2.0500002e-10 
    4101   0.72165895    99040 2.0500002e-10 
Loop time of 0.721785 on 1 procs for 100 steps with 99040 atoms

100.3% CPU use with 1 MPI tasks x no OpenMP threads
run 100 pre no post no
Step CPU Atoms biomass 
    4101            0    99040 2.0500002e-10 
    4110  0.065446138    99040 2.0500002e-10 
    4120   0.13713717    99040 2.0500002e-10 
    4130   0.20887709    99040 2.0500002e-10 
    4140   0.28053522    99040 2.0500002e-10 
    4150   0.35215116    99040 2.0500002e-10 
    4160   0.42382002    99040 2.0500002e-10 
    4170   0.49543715    99040 2.0500002e-10 
    4180   0.56715918    99040 2.0500002e-10 
    4190   0.63874316    99040 2.0500002e-10 
ssurf = 9.516944e-04 
    4200   0.71059704    99040 2.0500002e-10 
    4201   0.71659708    99040 2.0500002e-10 
Loop time of 0.716725 on 1 procs for 100 steps with 99040 atoms

99.9% CPU use with 1 MPI tasks x no OpenMP threads
run 100 pre no post no
Step CPU Atoms biomass 
    4201            0    99040 2.0500002e-10 
    4210  0.065789938    99040 2.0500002e-10 
    4220   0.13702297    99040 2.0500002e-10 
    4230   0.20858884    99040 2.0500002e-10 
    4240   0.28012586    99040 2.0500002e-10 
    4250     0.351717    99040 2.0500002e-10 
    4260   0.42307997    99040 2.0500002e-10 
    4270   0.49485397    99040 2.0500002e-10 
    4280   0.56594992    99040 2.0500002e-10 
    4290   0.63756585    99040 2.0500002e-10 
ssurf = 9.516944e-04 
    4300   0.70908093    99040 2.0500002e-10 
    4301   0.71513605    99040 2.0500002e-10 
Loop time of 0.715264 on 1 procs for 100 steps with 99040 atoms

100.1% CPU use with 1 MPI tasks x no OpenMP threads
run 100 pre no post no
Step CPU Atoms biomass 
    4301            0    99040 2.0500002e-10 
    4310  0.065253973    99040 2.0500002e-10 
    4320   0.13676786    99040 2.0500002e-10 
    4330   0.20834589    99040 2.0500002e-10 
    4340    0.2800529    99040 2.0500002e-10 
    4350   0.35669494    99040 2.0500002e-10 
    4360   0.42843699    99040 2.0500002e-10 
    4370   0.50012398    99040 2.0500002e-10 
    4380   0.57163882    99040 2.0500002e-10 
    4390   0.64332199    99040 2.0500002e-10 
ssurf = 9.516944e-04 
    4400   0.71468282    99040 2.0500002e-10 
    4401   0.72073483    99040 2.0500002e-10 
Loop time of 0.720911 on 1 procs for 100 steps with 99040 atoms

99.9% CPU use with 1 MPI tasks x no OpenMP threads
run 100 pre no post no
Step CPU Atoms biomass 
    4401            0    99040 2.0500002e-10 
    4410  0.065180063    99040 2.0500002e-10 
    4420   0.13719296    99040 2.0500002e-10 
    4430   0.21384192    99040 2.0500002e-10 
    4440   0.28537107    99040 2.0500002e-10 
    4450   0.35714793    99040 2.0500002e-10 
    4460     0.429039    99040 2.0500002e-10 
    4470   0.50023293    99040 2.0500002e-10 
    4480   0.57143903    99040 2.0500002e-10 
    4490   0.64220691    99040 2.0500002e-10 
ssurf = 9.516944e-04 
    4500   0.71318102    99040 2.0500002e-10 
    4501   0.71916389    99040 2.0500002e-10 
Loop time of 0.7193 on 1 procs for 100 steps with 99040 atoms

100.1% CPU use with 1 MPI tasks x no OpenMP threads
run 100 pre no post no
Step CPU Atoms biomass 
    4501            0    99040 2.0500002e-10 
    4510  0.065499067    99040 2.0500002e-10 
    4520   0.13685703    99040 2.0500002e-10 
    4530     0.208606    99040 2.0500002e-10 
    4540   0.27998519    99040 2.0500002e-10 
    4550   0.35182714    99040 2.0500002e-10 
    4560   0.42342401    99040 2.0500002e-10 
    4570   0.49519801    99040 2.0500002e-10 
    4580   0.56712222    99040 2.0500002e-10 
    4590   0.64012814    99040 2.0500002e-10 
ssurf = 9.516944e-04 
    4600   0.71179414    99040 2.0500002e-10 
    4601   0.71784806    99040 2.0500002e-10 
Loop time of 0.717988 on 1 procs for 100 steps with 99040 atoms

100.3% CPU use with 1 MPI tasks x no OpenMP threads
run 100 pre no post no
Step CPU Atoms biomass 
    4601            0    99040 2.0500002e-10 
    4610  0.065727949    99040 2.0500002e-10 
    4620    0.1374681    99040 2.0500002e-10 
    4630   0.20899916    99040 2.0500002e-10 
    4640   0.28070498    99040 2.0500002e-10 
    4650   0.35227203    99040 2.0500002e-10 
    4660   0.42952418    99040 2.0500002e-10 
    4670   0.50086999    99040 2.0500002e-10 
    4680   0.57219911    99040 2.0500002e-10 
    4690   0.64349914    99040 2.0500002e-10 
ssurf = 9.516944e-04 
    4700   0.71550608    99040 2.0500002e-10 
    4701   0.72153115    99040 2.0500002e-10 
Loop time of 0.721663 on 1 procs for 100 steps with 99040 atoms

100.3% CPU use with 1 MPI tasks x no OpenMP threads
run 100 pre no post no
Step CPU Atoms biomass 
    4701            0    99040 2.0500002e-10 
    4710  0.065897942    99040 2.0500002e-10 
    4720   0.13745499    99040 2.0500002e-10 
    4730   0.20900011    99040 2.0500002e-10 
    4740    0.2802031    99040 2.0500002e-10 
    4750   0.35700202    99040 2.0500002e-10 
    4760   0.43076205    99040 2.0500002e-10 
    4770     0.503479    99040 2.0500002e-10 
    4780   0.57546115    99040 2.0500002e-10 
    4790   0.64750409    99040 2.0500002e-10 
ssurf = 9.516944e-04 
    4800   0.71933007    99040 2.0500002e-10 
    4801   0.72541308    99040 2.0500002e-10 
Loop time of 0.725541 on 1 procs for 100 steps with 99040 atoms

99.8% CPU use with 1 MPI tasks x no OpenMP threads
run 100 pre no post no
Step CPU Atoms biomass 
    4801            0    99040 2.0500002e-10 
    4810  0.071362019    99040 2.0500002e-10 
    4820   0.14249921    99040 2.0500002e-10 
    4830   0.21369505    99040 2.0500002e-10 
    4840   0.28502512    99040 2.0500002e-10 
    4850   0.35633802    99040 2.0500002e-10 
    4860   0.42797709    99040 2.0500002e-10 
    4870   0.50559521    99040 2.0500002e-10 
    4880   0.57744122    99040 2.0500002e-10 
    4890   0.64884615    99040 2.0500002e-10 
ssurf = 9.516944e-04 
    4900   0.72060108    99040 2.0500002e-10 
    4901   0.72663522    99040 2.0500002e-10 
Loop time of 0.726761 on 1 procs for 100 steps with 99040 atoms

100.2% CPU use with 1 MPI tasks x no OpenMP threads
run 100 pre no post no
Step CPU Atoms biomass 
    4901            0    99040 2.0500002e-10 
    4910  0.065403938    99040 2.0500002e-10 
    4920   0.13702083    99040 2.0500002e-10 
    4930   0.20819783    99040 2.0500002e-10 
    4940   0.27970982    99040 2.0500002e-10 
    4950   0.35121393    99040 2.0500002e-10 
    4960   0.42255282    99040 2.0500002e-10 
    4970   0.49931598    99040 2.0500002e-10 
    4980   0.57100296    99040 2.0500002e-10 
    4990   0.64285588    99040 2.0500002e-10 
ssurf = 9.516944e-04 
    5000   0.71443892    99040 2.0500002e-10 
    5001   0.72051382    99040 2.0500002e-10 
Loop time of 0.720652 on 1 procs for 100 steps with 99040 atoms

99.9% CPU use with 1 MPI tasks x no OpenMP threads
run 100 pre no post no
Step CPU Atoms biomass 
    5001            0    99040 2.0500002e-10 
    5010  0.065775156    99040 2.0500002e-10 
    5020   0.13696909    99040 2.0500002e-10 
    5030   0.20812011    99040 2.0500002e-10 
    5040   0.27959013    99040 2.0500002e-10 
    5050   0.35113215    99040 2.0500002e-10 
    5060   0.42256904    99040 2.0500002e-10 
    5070   0.49384809    99040 2.0500002e-10 
    5080   0.56489205    99040 2.0500002e-10 
    5090   0.63626003    99040 2.0500002e-10 
ssurf = 9.516944e-04 
    5100   0.71522713    99040 2.0500002e-10 
    5101   0.72171998    99040 2.0500002e-10 
Loop time of 0.721869 on 1 procs for 100 steps with 99040 atoms

99.7% CPU use with 1 MPI tasks x no OpenMP threads
run 100 pre no post no
Step CPU Atoms biomass 
    5101            0    99040 2.0500002e-10 
    5110  0.065709829    99040 2.0500002e-10 
    5120   0.13684583    99040 2.0500002e-10 
    5130   0.20830894    99040 2.0500002e-10 
    5140   0.27960181    99040 2.0500002e-10 
    5150   0.35111785    99040 2.0500002e-10 
    5160   0.42845893    99040 2.0500002e-10 
    5170   0.49965286    99040 2.0500002e-10 
    5180   0.57132101    99040 2.0500002e-10 
    5190   0.64274597    99040 2.0500002e-10 
ssurf = 9.516944e-04 
    5200   0.71441698    99040 2.0500002e-10 
    5201   0.72044992    99040 2.0500002e-10 
Loop time of 0.720579 on 1 procs for 100 steps with 99040 atoms

99.9% CPU use with 1 MPI tasks x no OpenMP threads
run 100 pre no post no
Step CPU Atoms biomass 
    5201            0    99040 2.0500002e-10 
    5210  0.066186905    99040 2.0500002e-10 
    5220   0.13783789    99040 2.0500002e-10 
    5230   0.20885682    99040 2.0500002e-10 
    5240    0.2800808    99040 2.0500002e-10 
    5250   0.35147595    99040 2.0500002e-10 
    5260     0.428123    99040 2.0500002e-10 
    5270    0.4994278    99040 2.0500002e-10 
    5280   0.57077789    99040 2.0500002e-10 
    5290   0.64162683    99040 2.0500002e-10 
ssurf = 9.516944e-04 
    5300   0.71323085    99040 2.0500002e-10 
    5301   0.71921992    99040 2.0500002e-10 
Loop time of 0.719349 on 1 procs for 100 steps with 99040 atoms

100.1% CPU use with 1 MPI tasks x no OpenMP threads
run 100 pre no post no
Step CPU Atoms biomass 
    5301            0    99040 2.0500002e-10 
    5310  0.065310001    99040 2.0500002e-10 
    5320   0.13751197    99040 2.0500002e-10 
    5330   0.20868301    99040 2.0500002e-10 
    5340    0.2795248    99040 2.0500002e-10 
    5350   0.35096383    99040 2.0500002e-10 
    5360   0.42274094    99040 2.0500002e-10 
    5370   0.49401999    99040 2.0500002e-10 
    5380   0.56552982    99040 2.0500002e-10 
    5390   0.63722086    99040 2.0500002e-10 
ssurf = 9.516944e-04 
    5400   0.70945692    99040 2.0500002e-10 
    5401   0.71554089    99040 2.0500002e-10 
Loop time of 0.715668 on 1 procs for 100 steps with 99040 atoms

100.0% CPU use with 1 MPI tasks x no OpenMP threads
run 100 pre no post no
Step CPU Atoms biomass 
    5401            0    99040 2.0500002e-10 
    5410   0.06505394    99040 2.0500002e-10 
    5420    0.1363771    99040 2.0500002e-10 
    5430     0.207932    99040 2.0500002e-10 
    5440   0.27958107    99040 2.0500002e-10 
    5450   0.35129189    99040 2.0500002e-10 
    5460   0.42287302    99040 2.0500002e-10 
    5470   0.49473095    99040 2.0500002e-10 
    5480   0.56599092    99040 2.0500002e-10 
    5490   0.64297891    99040 2.0500002e-10 
ssurf = 9.516944e-04 
    5500   0.71452999    99040 2.0500002e-10 
    5501   0.72048712    99040 2.0500002e-10 
Loop time of 0.72062 on 1 procs for 100 steps with 99040 atoms

99.9% CPU use with 1 MPI tasks x no OpenMP threads
run 100 pre no post no
Step CPU Atoms biomass 
    5501            0    99040 2.0500002e-10 
    5510  0.065869093    99040 2.0500002e-10 
    5520   0.13769317    99040 2.0500002e-10 
    5530   0.20924115    99040 2.0500002e-10 
    5540   0.28074002    99040 2.0500002e-10 
    5550   0.35232806    99040 2.0500002e-10 
    5560   0.42385316    99040 2.0500002e-10 
    5570   0.49536514    99040 2.0500002e-10 
    5580   0.56684113    99040 2.0500002e-10 
    5590   0.63829112    99040 2.0500002e-10 
ssurf = 9.516944e-04 
    5600   0.71570611    99040 2.0500002e-10 
    5601   0.72181106    99040 2.0500002e-10 
Loop time of 0.721938 on 1 procs for 100 steps with 99040 atoms

100.3% CPU use with 1 MPI tasks x no OpenMP threads
run 100 pre no post no
Step CPU Atoms biomass 
    5601            0    99040 2.0500002e-10 
    5610  0.065796852    99040 2.0500002e-10 
    5620   0.13713288    99040 2.0500002e-10 
    5630     0.208565    99040 2.0500002e-10 
    5640   0.28011203    99040 2.0500002e-10 
    5650   0.35132504    99040 2.0500002e-10 
    5660   0.42867398    99040 2.0500002e-10 
    5670   0.50002289    99040 2.0500002e-10 
    5680   0.57596397    99040 2.0500002e-10 
    5690   0.64900994    99040 2.0500002e-10 
ssurf = 9.516944e-04 
    5700   0.72108197    99040 2.0500002e-10 
    5701   0.72711492    99040 2.0500002e-10 
Loop time of 0.727244 on 1 procs for 100 steps with 99040 atoms

100.1% CPU use with 1 MPI tasks x no OpenMP threads
run 100 pre no post no
Step CPU Atoms biomass 
    5701            0    99040 2.0500002e-10 
    5710   0.06584096    99040 2.0500002e-10 
    5720   0.13893986    99040 2.0500002e-10 
    5730   0.21028686    99040 2.0500002e-10 
    5740   0.28173685    99040 2.0500002e-10 
    5750   0.35320401    99040 2.0500002e-10 
    5760   0.42443085    99040 2.0500002e-10 
    5770   0.50106287    99040 2.0500002e-10 
    5780   0.57256389    99040 2.0500002e-10 
    5790   0.64411402    99040 2.0500002e-10 
ssurf = 9.516944e-04 
    5800   0.71573281    99040 2.0500002e-10 
    5801   0.72175789    99040 2.0500002e-10 
Loop time of 0.721887 on 1 procs for 100 steps with 99040 atoms

99.7% CPU use with 1 MPI tasks x no OpenMP threads
run 100 pre no post no
Step CPU Atoms biomass 
    5801            0    99040 2.0500002e-10 
    5810  0.065685034    99040 2.0500002e-10 
    5820   0.13714504    99040 2.0500002e-10 
    5830   0.20903111    99040 2.0500002e-10 
    5840    0.2802701    99040 2.0500002e-10 
    5850   0.35310698    99040 2.0500002e-10 
    5860   0.42537999    99040 2.0500002e-10 
    5870   0.49644399    99040 2.0500002e-10 
    5880   0.56780505    99040 2.0500002e-10 
    5890   0.63938904    99040 2.0500002e-10 
ssurf = 9.516944e-04 
    5900   0.71191907    99040 2.0500002e-10 
    5901   0.71801805    99040 2.0500002e-10 
Loop time of 0.718153 on 1 procs for 100 steps with 99040 atoms

99.7% CPU use with 1 MPI tasks x no OpenMP threads
run 100 pre no post no
Step CPU Atoms biomass 
    5901            0    99040 2.0500002e-10 
    5910  0.066145897    99040 2.0500002e-10 
    5920   0.13810205    99040 2.0500002e-10 
    5930   0.21011305    99040 2.0500002e-10 
    5940   0.28178906    99040 2.0500002e-10 
    5950   0.35887599    99040 2.0500002e-10 
    5960   0.43039393    99040 2.0500002e-10 
    5970   0.50206089    99040 2.0500002e-10 
    5980   0.57340407    99040 2.0500002e-10 
    5990   0.64453602    99040 2.0500002e-10 
ssurf = 9.516944e-04 
    6000   0.72138596    99040 2.0500002e-10 
    6001   0.72743893    99040 2.0500002e-10 
Loop time of 0.727563 on 1 procs for 100 steps with 99040 atoms

100.1% CPU use with 1 MPI tasks x no OpenMP threads
run 100 pre no post no
Step CPU Atoms biomass 
    6001            0    99040 2.0500002e-10 
    6010  0.065752029    99040 2.0500002e-10 
    6020   0.13756704    99040 2.0500002e-10 
    6030   0.20904303    99040 2.0500002e-10 
    6040   0.28094912    99040 2.0500002e-10 
    6050   0.35262108    99040 2.0500002e-10 
    6060   0.42395902    99040 2.0500002e-10 
    6070    0.4954381    99040 2.0500002e-10 
    6080     0.567029    99040 2.0500002e-10 
    6090   0.63875794    99040 2.0500002e-10 
ssurf = 9.516944e-04 
    6100   0.71603894    99040 2.0500002e-10 
    6101   0.72207904    99040 2.0500002e-10 
Loop time of 0.722205 on 1 procs for 100 steps with 99040 atoms

100.2% CPU use with 1 MPI tasks x no OpenMP threads
run 100 pre no post no
Step CPU Atoms biomass 
    6101            0    99040 2.0500002e-10 
    6110  0.065279007    99040 2.0500002e-10 
    6120   0.13602209    99040 2.0500002e-10 
    6130   0.20678711    99040 2.0500002e-10 
    6140   0.27783918    99040 2.0500002e-10 
    6150   0.34958911    99040 2.0500002e-10 
    6160    0.4261601    99040 2.0500002e-10 
    6170   0.49699807    99040 2.0500002e-10 
    6180   0.56805301    99040 2.0500002e-10 
    6190   0.63901496    99040 2.0500002e-10 
ssurf = 9.516944e-04 
    6200   0.71024013    99040 2.0500002e-10 
    6201   0.71632218    99040 2.0500002e-10 
Loop time of 0.71646 on 1 procs for 100 steps with 99040 atoms

99.9% CPU use with 1 MPI tasks x no OpenMP threads
run 100 pre no post no
Step CPU Atoms biomass 
    6201            0    99040 2.0500002e-10 
    6210  0.065485001    99040 2.0500002e-10 
    6220   0.13661003    99040 2.0500002e-10 
    6230   0.20759201    99040 2.0500002e-10 
    6240   0.27843404    99040 2.0500002e-10 
    6250   0.34947515    99040 2.0500002e-10 
    6260   0.42069197    99040 2.0500002e-10 
    6270   0.49291015    99040 2.0500002e-10 
    6280   0.56471801    99040 2.0500002e-10 
    6290   0.63654613    99040 2.0500002e-10 
ssurf = 9.516944e-04 
    6300   0.70799804    99040 2.0500002e-10 
    6301   0.71406603    99040 2.0500002e-10 
Loop time of 0.714196 on 1 procs for 100 steps with 99040 atoms

100.3% CPU use with 1 MPI tasks x no OpenMP threads
run 100 pre no post no
Step CPU Atoms biomass 
    6301            0    99040 2.0500002e-10 
    6310  0.064770937    99040 2.0500002e-10 
    6320   0.13612485    99040 2.0500002e-10 
    6330     0.207335    99040 2.0500002e-10 
    6340    0.2782979    99040 2.0500002e-10 
    6350   0.34949088    99040 2.0500002e-10 
    6360   0.42048693    99040 2.0500002e-10 
    6370   0.49140692    99040 2.0500002e-10 
    6380   0.56286979    99040 2.0500002e-10 
    6390   0.63425994    99040 2.0500002e-10 
ssurf = 9.516944e-04 
    6400   0.70598388    99040 2.0500002e-10 
    6401     0.712147    99040 2.0500002e-10 
Loop time of 0.712294 on 1 procs for 100 steps with 99040 atoms

100.0% CPU use with 1 MPI tasks x no OpenMP threads
run 100 pre no post no
Step CPU Atoms biomass 
    6401            0    99040 2.0500002e-10 
    6410  0.065891027    99040 2.0500002e-10 
    6420   0.13705516    99040 2.0500002e-10 
    6430   0.21419096    99040 2.0500002e-10 
    6440   0.28579307    99040 2.0500002e-10 
    6450   0.35721803    99040 2.0500002e-10 
    6460     0.428442    99040 2.0500002e-10 
    6470   0.49950194    99040 2.0500002e-10 
    6480   0.57062793    99040 2.0500002e-10 
    6490   0.64217806    99040 2.0500002e-10 
ssurf = 9.516944e-04 
    6500   0.71343613    99040 2.0500002e-10 
    6501   0.71947598    99040 2.0500002e-10 
Loop time of 0.719606 on 1 procs for 100 steps with 99040 atoms

98.9% CPU use with 1 MPI tasks x no OpenMP threads
run 100 pre no post no
Step CPU Atoms biomass 
    6501            0    99040 2.0500002e-10 
    6510  0.065818071    99040 2.0500002e-10 
    6520   0.13712788    99040 2.0500002e-10 
    6530   0.20862794    99040 2.0500002e-10 
    6540   0.28036499    99040 2.0500002e-10 
    6550   0.35221195    99040 2.0500002e-10 
    6560   0.42446089    99040 2.0500002e-10 
    6570   0.49618292    99040 2.0500002e-10 
    6580   0.57280397    99040 2.0500002e-10 
    6590   0.64564586    99040 2.0500002e-10 
ssurf = 9.516944e-04 
    6600   0.71717691    99040 2.0500002e-10 
    6601   0.72566986    99040 2.0500002e-10 
Loop time of 0.725976 on 1 procs for 100 steps with 99040 atoms

99.7% CPU use with 1 MPI tasks x no OpenMP threads
run 100 pre no post no
Step CPU Atoms biomass 
    6601            0    99040 2.0500002e-10 
    6610  0.065065145    99040 2.0500002e-10 
    6620   0.14239311    99040 2.0500002e-10 
    6630   0.21331096    99040 2.0500002e-10 
    6640   0.28521013    99040 2.0500002e-10 
    6650     0.356745    99040 2.0500002e-10 
    6660   0.42818809    99040 2.0500002e-10 
    6670   0.50507498    99040 2.0500002e-10 
    6680   0.57617903    99040 2.0500002e-10 
    6690   0.64716315    99040 2.0500002e-10 
ssurf = 9.516944e-04 
    6700   0.71846294    99040 2.0500002e-10 
    6701   0.72452807    99040 2.0500002e-10 
Loop time of 0.724659 on 1 procs for 100 steps with 99040 atoms

99.9% CPU use with 1 MPI tasks x no OpenMP threads
run 100 pre no post no
Step CPU Atoms biomass 
    6701            0    99040 2.0500002e-10 
    6710  0.065886974    99040 2.0500002e-10 
    6720   0.13712502    99040 2.0500002e-10 
    6730   0.20903707    99040 2.0500002e-10 
    6740   0.28040695    99040 2.0500002e-10 
    6750   0.35208201    99040 2.0500002e-10 
    6760     0.423733    99040 2.0500002e-10 
    6770   0.49555397    99040 2.0500002e-10 
    6780   0.57010293    99040 2.0500002e-10 
    6790   0.64242911    99040 2.0500002e-10 
ssurf = 9.516944e-04 
    6800   0.71455812    99040 2.0500002e-10 
    6801     0.720608    99040 2.0500002e-10 
Loop time of 0.720752 on 1 procs for 100 steps with 99040 atoms

99.9% CPU use with 1 MPI tasks x no OpenMP threads
run 100 pre no post no
Step CPU Atoms biomass 
    6801            0    99040 2.0500002e-10 
    6810  0.065428972    99040 2.0500002e-10 
    6820   0.13614607    99040 2.0500002e-10 
    6830   0.20714808    99040 2.0500002e-10 
    6840   0.27805901    99040 2.0500002e-10 
    6850   0.35453105    99040 2.0500002e-10 
    6860   0.42513108    99040 2.0500002e-10 
    6870   0.49598002    99040 2.0500002e-10 
    6880   0.56710005    99040 2.0500002e-10 
    6890   0.63756418    99040 2.0500002e-10 
ssurf = 9.516944e-04 
    6900     0.708426    99040 2.0500002e-10 
    6901   0.71449399    99040 2.0500002e-10 
Loop time of 0.714626 on 1 procs for 100 steps with 99040 atoms

100.2% CPU use with 1 MPI tasks x no OpenMP threads
run 100 pre no post no
Step CPU Atoms biomass 
    6901            0    99040 2.0500002e-10 
    6910  0.065126896    99040 2.0500002e-10 
    6920   0.13615298    99040 2.0500002e-10 
    6930   0.20717096    99040 2.0500002e-10 
    6940   0.27827597    99040 2.0500002e-10 
    6950   0.34946489    99040 2.0500002e-10 
    6960   0.42032194    99040 2.0500002e-10 
    6970   0.49164391    99040 2.0500002e-10 
    6980   0.56276107    99040 2.0500002e-10 
    6990   0.63464904    99040 2.0500002e-10 
ssurf = 9.516944e-04 
    7000   0.70627785    99040 2.0500002e-10 
    7001   0.71224785    99040 2.0500002e-10 
Loop time of 0.71238 on 1 procs for 100 steps with 99040 atoms

99.9% CPU use with 1 MPI tasks x no OpenMP threads
run 100 pre no post no
Step CPU Atoms biomass 
    7001            0    99040 2.0500002e-10 
    7010   0.07051301    99040 2.0500002e-10 
    7020   0.14154005    99040 2.0500002e-10 
    7030   0.21277905    99040 2.0500002e-10 
    7040   0.28446412    99040 2.0500002e-10 
    7050   0.35550499    99040 2.0500002e-10 
    7060   0.42666602    99040 2.0500002e-10 
    7070   0.49761009    99040 2.0500002e-10 
    7080     0.568573    99040 2.0500002e-10 
    7090   0.63960814    99040 2.0500002e-10 
ssurf = 9.516944e-04 
    7100   0.71092105    99040 2.0500002e-10 
    7101   0.71707106    99040 2.0500002e-10 
Loop time of 0.717202 on 1 procs for 100 steps with 99040 atoms

99.8% CPU use with 1 MPI tasks x no OpenMP threads
run 100 pre no post no
Step CPU Atoms biomass 
    7101            0    99040 2.0500002e-10 
    7110  0.065799952    99040 2.0500002e-10 
    7120   0.13807678    99040 2.0500002e-10 
    7130   0.20949197    99040 2.0500002e-10 
    7140    0.2814188    99040 2.0500002e-10 
    7150   0.35308599    99040 2.0500002e-10 
    7160   0.42456079    99040 2.0500002e-10 
    7170    0.5018878    99040 2.0500002e-10 
    7180   0.57333088    99040 2.0500002e-10 
    7190   0.64457893    99040 2.0500002e-10 
ssurf = 9.516944e-04 
    7200   0.71574187    99040 2.0500002e-10 
    7201   0.72181201    99040 2.0500002e-10 
Loop time of 0.721939 on 1 procs for 100 steps with 99040 atoms

99.7% CPU use with 1 MPI tasks x no OpenMP threads
run 100 pre no post no
Step CPU Atoms biomass 
    7201            0    99040 2.0500002e-10 
    7210  0.066026926    99040 2.0500002e-10 
    7220   0.13972306    99040 2.0500002e-10 
    7230   0.21184301    99040 2.0500002e-10 
    7240   0.28339195    99040 2.0500002e-10 
    7250   0.35510802    99040 2.0500002e-10 
    7260   0.42650509    99040 2.0500002e-10 
    7270   0.49759293    99040 2.0500002e-10 
    7280   0.56909895    99040 2.0500002e-10 
    7290   0.64627194    99040 2.0500002e-10 
ssurf = 9.516944e-04 
    7300   0.71798706    99040 2.0500002e-10 
    7301   0.72403693    99040 2.0500002e-10 
Loop time of 0.724167 on 1 procs for 100 steps with 99040 atoms

100.0% CPU use with 1 MPI tasks x no OpenMP threads
run 100 pre no post no
Step CPU Atoms biomass 
    7301            0    99040 2.0500002e-10 
    7310  0.065459013    99040 2.0500002e-10 
    7320   0.13703895    99040 2.0500002e-10 
    7330     0.208251    99040 2.0500002e-10 
    7340   0.27989388    99040 2.0500002e-10 
    7350   0.35116291    99040 2.0500002e-10 
    7360   0.42215395    99040 2.0500002e-10 
    7370   0.49332309    99040 2.0500002e-10 
    7380   0.56425405    99040 2.0500002e-10 
    7390   0.63531303    99040 2.0500002e-10 
ssurf = 9.516944e-04 
    7400   0.70667505    99040 2.0500002e-10 
    7401   0.71274495    99040 2.0500002e-10 
Loop time of 0.712872 on 1 procs for 100 steps with 99040 atoms

99.9% CPU use with 1 MPI tasks x no OpenMP threads
run 100 pre no post no
Step CPU Atoms biomass 
    7401            0    99040 2.0500002e-10 
    7410  0.065495968    99040 2.0500002e-10 
    7420   0.13700318    99040 2.0500002e-10 
    7430   0.20862699    99040 2.0500002e-10 
    7440    0.2802701    99040 2.0500002e-10 
    7450   0.35110998    99040 2.0500002e-10 
    7460   0.42270112    99040 2.0500002e-10 
    7470   0.49995017    99040 2.0500002e-10 
    7480   0.57107711    99040 2.0500002e-10 
    7490   0.64250708    99040 2.0500002e-10 
ssurf = 9.516944e-04 
    7500   0.71609116    99040 2.0500002e-10 
    7501   0.72205305    99040 2.0500002e-10 
Loop time of 0.722186 on 1 procs for 100 steps with 99040 atoms

100.3% CPU use with 1 MPI tasks x no OpenMP threads
run 100 pre no post no
Step CPU Atoms biomass 
    7501            0    99040 2.0500002e-10 
    7510  0.065516949    99040 2.0500002e-10 
    7520   0.13661695    99040 2.0500002e-10 
    7530   0.20844889    99040 2.0500002e-10 
    7540   0.28536606    99040 2.0500002e-10 
    7550   0.35666108    99040 2.0500002e-10 
    7560   0.42802596    99040 2.0500002e-10 
    7570   0.49939895    99040 2.0500002e-10 
    7580   0.57126904    99040 2.0500002e-10 
    7590   0.64309788    99040 2.0500002e-10 
ssurf = 9.516944e-04 
    7600   0.71501803    99040 2.0500002e-10 
    7601   0.72107291    99040 2.0500002e-10 
Loop time of 0.721204 on 1 procs for 100 steps with 99040 atoms

100.4% CPU use with 1 MPI tasks x no OpenMP threads
run 100 pre no post no
Step CPU Atoms biomass 
    7601            0    99040 2.0500002e-10 
    7610  0.065500021    99040 2.0500002e-10 
    7620   0.13706303    99040 2.0500002e-10 
    7630   0.20858002    99040 2.0500002e-10 
    7640   0.27997613    99040 2.0500002e-10 
    7650    0.3512361    99040 2.0500002e-10 
    7660   0.42304015    99040 2.0500002e-10 
    7670   0.49461102    99040 2.0500002e-10 
    7680   0.56614113    99040 2.0500002e-10 
    7690   0.63762403    99040 2.0500002e-10 
ssurf = 9.516944e-04 
    7700   0.70943093    99040 2.0500002e-10 
    7701   0.71553397    99040 2.0500002e-10 
Loop time of 0.715663 on 1 procs for 100 steps with 99040 atoms

100.0% CPU use with 1 MPI tasks x no OpenMP threads
run 100 pre no post no
Step CPU Atoms biomass 
    7701            0    99040 2.0500002e-10 
    7710  0.065005064    99040 2.0500002e-10 
    7720   0.13642287    99040 2.0500002e-10 
    7730   0.21378803    99040 2.0500002e-10 
    7740   0.28538203    99040 2.0500002e-10 
    7750   0.35655403    99040 2.0500002e-10 
    7760   0.42802191    99040 2.0500002e-10 
    7770   0.49947286    99040 2.0500002e-10 
    7780   0.57089686    99040 2.0500002e-10 
    7790   0.64230204    99040 2.0500002e-10 
ssurf = 9.516944e-04 
    7800   0.71388602    99040 2.0500002e-10 
    7801   0.71996999    99040 2.0500002e-10 
Loop time of 0.720096 on 1 procs for 100 steps with 99040 atoms

100.0% CPU use with 1 MPI tasks x no OpenMP threads
run 100 pre no post no
Step CPU Atoms biomass 
    7801            0    99040 2.0500002e-10 
    7810  0.065346003    99040 2.0500002e-10 
    7820   0.13666606    99040 2.0500002e-10 
    7830   0.20827985    99040 2.0500002e-10 
    7840   0.28504896    99040 2.0500002e-10 
    7850   0.35636401    99040 2.0500002e-10 
    7860   0.42816806    99040 2.0500002e-10 
    7870   0.49904299    99040 2.0500002e-10 
    7880   0.57003498    99040 2.0500002e-10 
    7890   0.64108205    99040 2.0500002e-10 
ssurf = 9.516944e-04 
    7900    0.7126019    99040 2.0500002e-10 
    7901   0.71868086    99040 2.0500002e-10 
Loop time of 0.718812 on 1 procs for 100 steps with 99040 atoms

100.2% CPU use with 1 MPI tasks x no OpenMP threads
run 100 pre no post no
Step CPU Atoms biomass 
    7901            0    99040 2.0500002e-10 
    7910   0.07129693    99040 2.0500002e-10 
    7920   0.14256096    99040 2.0500002e-10 
    7930   0.21399283    99040 2.0500002e-10 
    7940   0.28560591    99040 2.0500002e-10 
    7950   0.35706997    99040 2.0500002e-10 
    7960   0.42850184    99040 2.0500002e-10 
    7970   0.49984884    99040 2.0500002e-10 
    7980   0.57125878    99040 2.0500002e-10 
    7990   0.64264989    99040 2.0500002e-10 
ssurf = 9.516944e-04 
    8000   0.71420693    99040 2.0500002e-10 
    8001   0.72021699    99040 2.0500002e-10 
Loop time of 0.720346 on 1 procs for 100 steps with 99040 atoms

100.0% CPU use with 1 MPI tasks x no OpenMP threads
run 100 pre no post no
Step CPU Atoms biomass 
    8001            0    99040 2.0500002e-10 
    8010  0.065771103    99040 2.0500002e-10 
    8020   0.13729596    99040 2.0500002e-10 
    8030   0.20897603    99040 2.0500002e-10 
    8040   0.28041101    99040 2.0500002e-10 
    8050   0.35190701    99040 2.0500002e-10 
    8060   0.42369699    99040 2.0500002e-10 
    8070   0.49497795    99040 2.0500002e-10 
    8080   0.56649208    99040 2.0500002e-10 
    8090   0.63772011    99040 2.0500002e-10 
ssurf = 9.516944e-04 
    8100   0.70898104    99040 2.0500002e-10 
    8101   0.71503997    99040 2.0500002e-10 
Loop time of 0.715184 on 1 procs for 100 steps with 99040 atoms

99.6% CPU use with 1 MPI tasks x no OpenMP threads
run 100 pre no post no
Step CPU Atoms biomass 
    8101            0    99040 2.0500002e-10 
    8110  0.065230131    99040 2.0500002e-10 
    8120   0.13622403    99040 2.0500002e-10 
    8130   0.20773411    99040 2.0500002e-10 
    8140    0.2797792    99040 2.0500002e-10 
    8150   0.35120201    99040 2.0500002e-10 
    8160   0.42274499    99040 2.0500002e-10 
    8170   0.49390221    99040 2.0500002e-10 
    8180   0.57137418    99040 2.0500002e-10 
    8190   0.64514112    99040 2.0500002e-10 
ssurf = 9.516944e-04 
    8200   0.71782398    99040 2.0500002e-10 
    8201   0.72394204    99040 2.0500002e-10 
Loop time of 0.724073 on 1 procs for 100 steps with 99040 atoms

100.0% CPU use with 1 MPI tasks x no OpenMP threads
run 100 pre no post no
Step CPU Atoms biomass 
    8201            0    99040 2.0500002e-10 
    8210  0.065736055    99040 2.0500002e-10 
    8220   0.13755298    99040 2.0500002e-10 
    8230   0.20910001    99040 2.0500002e-10 
    8240   0.28044295    99040 2.0500002e-10 
    8250   0.35763907    99040 2.0500002e-10 
    8260   0.42918396    99040 2.0500002e-10 
    8270   0.50049496    99040 2.0500002e-10 
    8280   0.57183695    99040 2.0500002e-10 
    8290   0.64362717    99040 2.0500002e-10 
ssurf = 9.516944e-04 
    8300   0.71515512    99040 2.0500002e-10 
    8301   0.72132397    99040 2.0500002e-10 
Loop time of 0.721462 on 1 procs for 100 steps with 99040 atoms

99.8% CPU use with 1 MPI tasks x no OpenMP threads
run 100 pre no post no
Step CPU Atoms biomass 
    8301            0    99040 2.0500002e-10 
    8310  0.065589905    99040 2.0500002e-10 
    8320   0.13697791    99040 2.0500002e-10 
    8330   0.20825911    99040 2.0500002e-10 
    8340   0.27973604    99040 2.0500002e-10 
    8350   0.35173798    99040 2.0500002e-10 
    8360   0.42263508    99040 2.0500002e-10 
    8370   0.49387789    99040 2.0500002e-10 
    8380   0.56475806    99040 2.0500002e-10 
    8390   0.63582206    99040 2.0500002e-10 
ssurf = 9.516944e-04 
    8400   0.70672798    99040 2.0500002e-10 
    8401   0.71268511    99040 2.0500002e-10 
Loop time of 0.712819 on 1 procs for 100 steps with 99040 atoms

99.9% CPU use with 1 MPI tasks x no OpenMP threads
run 100 pre no post no
Step CPU Atoms biomass 
    8401            0    99040 2.0500002e-10 
    8410   0.06564784    99040 2.0500002e-10 
    8420   0.13690996    99040 2.0500002e-10 
    8430   0.20866799    99040 2.0500002e-10 
    8440   0.28645301    99040 2.0500002e-10 
    8450   0.36201596    99040 2.0500002e-10 
    8460   0.43419385    99040 2.0500002e-10 
    8470   0.50521398    99040 2.0500002e-10 
    8480   0.57669091    99040 2.0500002e-10 
    8490   0.65065289    99040 2.0500002e-10 
ssurf = 9.516944e-04 
    8500   0.72261381    99040 2.0500002e-10 
    8501   0.72870994    99040 2.0500002e-10 
Loop time of 0.728842 on 1 procs for 100 steps with 99040 atoms

99.3% CPU use with 1 MPI tasks x no OpenMP threads
run 100 pre no post no
Step CPU Atoms biomass 
    8501            0    99040 2.0500002e-10 
    8510  0.064971924    99040 2.0500002e-10 
    8520   0.13589907    99040 2.0500002e-10 
    8530   0.20687103    99040 2.0500002e-10 
    8540   0.27869296    99040 2.0500002e-10 
    8550   0.35050106    99040 2.0500002e-10 
    8560   0.42643499    99040 2.0500002e-10 
    8570   0.49748588    99040 2.0500002e-10 
    8580   0.56860209    99040 2.0500002e-10 
    8590   0.63987994    99040 2.0500002e-10 
ssurf = 9.516944e-04 
    8600   0.71086287    99040 2.0500002e-10 
    8601   0.71691108    99040 2.0500002e-10 
Loop time of 0.717041 on 1 procs for 100 steps with 99040 atoms

99.3% CPU use with 1 MPI tasks x no OpenMP threads
run 100 pre no post no
Step CPU Atoms biomass 
    8601            0    99040 2.0500002e-10 
    8610  0.065796137    99040 2.0500002e-10 
    8620   0.13701415    99040 2.0500002e-10 
    8630   0.21427703    99040 2.0500002e-10 
    8640   0.28560114    99040 2.0500002e-10 
    8650   0.35726905    99040 2.0500002e-10 
    8660   0.43886304    99040 2.0500002e-10 
    8670   0.51304102    99040 2.0500002e-10 
    8680   0.58533597    99040 2.0500002e-10 
    8690   0.65707517    99040 2.0500002e-10 
ssurf = 9.516944e-04 
    8700   0.72894311    99040 2.0500002e-10 
    8701   0.73491311    99040 2.0500002e-10 
Loop time of 0.735044 on 1 procs for 100 steps with 99040 atoms

100.1% CPU use with 1 MPI tasks x no OpenMP threads
run 100 pre no post no
Step CPU Atoms biomass 
    8701            0    99040 2.0500002e-10 
    8710  0.065021992    99040 2.0500002e-10 
    8720   0.13560295    99040 2.0500002e-10 
    8730   0.20689011    99040 2.0500002e-10 
    8740   0.27813101    99040 2.0500002e-10 
    8750   0.34956503    99040 2.0500002e-10 
    8760   0.42101312    99040 2.0500002e-10 
    8770    0.4923389    99040 2.0500002e-10 
    8780   0.56401801    99040 2.0500002e-10 
    8790   0.63561606    99040 2.0500002e-10 
ssurf = 9.516944e-04 
    8800   0.70956612    99040 2.0500002e-10 
    8801   0.71851397    99040 2.0500002e-10 
Loop time of 0.718654 on 1 procs for 100 steps with 99040 atoms

100.2% CPU use with 1 MPI tasks x no OpenMP threads
run 100 pre no post no
Step CPU Atoms biomass 
    8801            0    99040 2.0500002e-10 
    8810  0.064908028    99040 2.0500002e-10 
    8820   0.14164615    99040 2.0500002e-10 
    8830   0.21248603    99040 2.0500002e-10 
    8840   0.28333116    99040 2.0500002e-10 
    8850   0.35496807    99040 2.0500002e-10 
    8860   0.42601514    99040 2.0500002e-10 
    8870   0.49715614    99040 2.0500002e-10 
    8880   0.56863213    99040 2.0500002e-10 
    8890   0.63936114    99040 2.0500002e-10 
ssurf = 9.516944e-04 
    8900    0.7106812    99040 2.0500002e-10 
    8901     0.716717    99040 2.0500002e-10 
Loop time of 0.716847 on 1 procs for 100 steps with 99040 atoms

100.4% CPU use with 1 MPI tasks x no OpenMP threads
run 100 pre no post no
Step CPU Atoms biomass 
    8901            0    99040 2.0500002e-10 
    8910   0.06517601    99040 2.0500002e-10 
    8920   0.13591599    99040 2.0500002e-10 
    8930   0.21251202    99040 2.0500002e-10 
    8940    0.2835269    99040 2.0500002e-10 
    8950    0.3544569    99040 2.0500002e-10 
    8960   0.42568707    99040 2.0500002e-10 
    8970   0.49681306    99040 2.0500002e-10 
    8980    0.5680511    99040 2.0500002e-10 
    8990   0.64481997    99040 2.0500002e-10 
ssurf = 9.516944e-04 
    9000     0.728688    99040 2.0500002e-10 
    9001   0.73463202    99040 2.0500002e-10 
Loop time of 0.734765 on 1 procs for 100 steps with 99040 atoms

99.6% CPU use with 1 MPI tasks x no OpenMP threads
run 100 pre no post no
Step CPU Atoms biomass 
    9001            0    99040 2.0500002e-10 
    9010  0.065678835    99040 2.0500002e-10 
    9020   0.13789487    99040 2.0500002e-10 
    9030   0.20970178    99040 2.0500002e-10 
    9040     0.281883    99040 2.0500002e-10 
    9050   0.35323787    99040 2.0500002e-10 
    9060   0.42460179    99040 2.0500002e-10 
    9070   0.49582481    99040 2.0500002e-10 
    9080    0.5669868    99040 2.0500002e-10 
    9090   0.64428282    99040 2.0500002e-10 
ssurf = 9.516944e-04 
    9100   0.71547294    99040 2.0500002e-10 
    9101   0.72154784    99040 2.0500002e-10 
Loop time of 0.721676 on 1 procs for 100 steps with 99040 atoms

99.8% CPU use with 1 MPI tasks x no OpenMP threads
run 100 pre no post no
Step CPU Atoms biomass 
    9101            0    99040 2.0500002e-10 
    9110  0.066052914    99040 2.0500002e-10 
    9120   0.13708901    99040 2.0500002e-10 
    9130     0.208215    99040 2.0500002e-10 
    9140   0.27956891    99040 2.0500002e-10 
    9150   0.35115695    99040 2.0500002e-10 
    9160   0.42763186    99040 2.0500002e-10 
    9170   0.49927092    99040 2.0500002e-10 
    9180   0.57046485    99040 2.0500002e-10 
    9190   0.64190507    99040 2.0500002e-10 
ssurf = 9.516944e-04 
    9200   0.71340299    99040 2.0500002e-10 
    9201   0.71952796    99040 2.0500002e-10 
Loop time of 0.71966 on 1 procs for 100 steps with 99040 atoms

100.0% CPU use with 1 MPI tasks x no OpenMP threads
run 100 pre no post no
Step CPU Atoms biomass 
    9201            0    99040 2.0500002e-10 
    9210  0.065888882    99040 2.0500002e-10 
    9220   0.13780189    99040 2.0500002e-10 
    9230   0.20920205    99040 2.0500002e-10 
    9240   0.28098798    99040 2.0500002e-10 
    9250   0.35334587    99040 2.0500002e-10 
    9260    0.4253819    99040 2.0500002e-10 
    9270   0.49716592    99040 2.0500002e-10 
    9280   0.56970906    99040 2.0500002e-10 
    9290     0.641927    99040 2.0500002e-10 
ssurf = 9.516944e-04 
    9300   0.71340704    99040 2.0500002e-10 
    9301   0.71942592    99040 2.0500002e-10 
Loop time of 0.71956 on 1 procs for 100 steps with 99040 atoms

100.1% CPU use with 1 MPI tasks x no OpenMP threads
run 100 pre no post no
Step CPU Atoms biomass 
    9301            0    99040 2.0500002e-10 
    9310  0.065648079    99040 2.0500002e-10 
    9320    0.1373291    99040 2.0500002e-10 
    9330   0.20872903    99040 2.0500002e-10 
    9340   0.28031611    99040 2.0500002e-10 
    9350   0.35203409    99040 2.0500002e-10 
    9360   0.42873502    99040 2.0500002e-10 
    9370   0.49942994    99040 2.0500002e-10 
    9380   0.57089615    99040 2.0500002e-10 
    9390   0.64222717    99040 2.0500002e-10 
ssurf = 9.516944e-04 
    9400   0.71373296    99040 2.0500002e-10 
    9401     0.719805    99040 2.0500002e-10 
Loop time of 0.719961 on 1 procs for 100 steps with 99040 atoms

100.0% CPU use with 1 MPI tasks x no OpenMP threads
run 100 pre no post no
Step CPU Atoms biomass 
    9401            0    99040 2.0500002e-10 
    9410  0.065550804    99040 2.0500002e-10 
    9420   0.14136291    99040 2.0500002e-10 
    9430   0.21375179    99040 2.0500002e-10 
    9440   0.28613997    99040 2.0500002e-10 
    9450   0.35805392    99040 2.0500002e-10 
    9460   0.42946982    99040 2.0500002e-10 
    9470    0.5042069    99040 2.0500002e-10 
    9480   0.57783198    99040 2.0500002e-10 
    9490   0.64934492    99040 2.0500002e-10 
ssurf = 9.516944e-04 
    9500   0.72071695    99040 2.0500002e-10 
    9501   0.72673297    99040 2.0500002e-10 
Loop time of 0.726863 on 1 procs for 100 steps with 99040 atoms

99.6% CPU use with 1 MPI tasks x no OpenMP threads
run 100 pre no post no
Step CPU Atoms biomass 
    9501            0    99040 2.0500002e-10 
    9510  0.065962791    99040 2.0500002e-10 
    9520   0.13739991    99040 2.0500002e-10 
    9530   0.20873499    99040 2.0500002e-10 
    9540   0.28062892    99040 2.0500002e-10 
    9550    0.3523829    99040 2.0500002e-10 
    9560   0.42410493    99040 2.0500002e-10 
    9570    0.4960649    99040 2.0500002e-10 
    9580   0.56776595    99040 2.0500002e-10 
    9590   0.63859391    99040 2.0500002e-10 
ssurf = 9.516944e-04 
    9600   0.70970678    99040 2.0500002e-10 
    9601   0.71575189    99040 2.0500002e-10 
Loop time of 0.715884 on 1 procs for 100 steps with 99040 atoms

100.0% CPU use with 1 MPI tasks x no OpenMP threads
run 100 pre no post no
Step CPU Atoms biomass 
    9601            0    99040 2.0500002e-10 
    9610  0.065550804    99040 2.0500002e-10 
    9620     0.137079    99040 2.0500002e-10 
    9630   0.20822501    99040 2.0500002e-10 
    9640   0.27966881    99040 2.0500002e-10 
    9650   0.35157299    99040 2.0500002e-10 
    9660   0.42277789    99040 2.0500002e-10 
    9670   0.50136185    99040 2.0500002e-10 
    9680   0.57278085    99040 2.0500002e-10 
    9690   0.64452696    99040 2.0500002e-10 
ssurf = 9.516944e-04 
    9700   0.71633792    99040 2.0500002e-10 
    9701   0.72239995    99040 2.0500002e-10 
Loop time of 0.722529 on 1 procs for 100 steps with 99040 atoms

99.6% CPU use with 1 MPI tasks x no OpenMP threads
run 100 pre no post no
Step CPU Atoms biomass 
    9701            0    99040 2.0500002e-10 
    9710  0.065716982    99040 2.0500002e-10 
    9720   0.13760591    99040 2.0500002e-10 
    9730   0.21435404    99040 2.0500002e-10 
    9740   0.28582692    99040 2.0500002e-10 
    9750     0.357234    99040 2.0500002e-10 
    9760   0.42893696    99040 2.0500002e-10 
    9770   0.50089908    99040 2.0500002e-10 
    9780   0.57260895    99040 2.0500002e-10 
    9790   0.64460301    99040 2.0500002e-10 
ssurf = 9.516944e-04 
    9800   0.71645808    99040 2.0500002e-10 
    9801   0.72259712    99040 2.0500002e-10 
Loop time of 0.722727 on 1 procs for 100 steps with 99040 atoms

99.6% CPU use with 1 MPI tasks x no OpenMP threads
run 100 pre no post no
Step CPU Atoms biomass 
    9801            0    99040 2.0500002e-10 
    9810  0.065563917    99040 2.0500002e-10 
    9820   0.13699698    99040 2.0500002e-10 
    9830   0.20835304    99040 2.0500002e-10 
    9840   0.27944994    99040 2.0500002e-10 
    9850   0.35622001    99040 2.0500002e-10 
    9860   0.42787409    99040 2.0500002e-10 
    9870   0.49943304    99040 2.0500002e-10 
    9880   0.57133508    99040 2.0500002e-10 
    9890   0.64339399    99040 2.0500002e-10 
ssurf = 9.516944e-04 
    9900   0.71536994    99040 2.0500002e-10 
    9901   0.72142792    99040 2.0500002e-10 
Loop time of 0.721558 on 1 procs for 100 steps with 99040 atoms

99.8% CPU use with 1 MPI tasks x no OpenMP threads
run 100 pre no post no
Step CPU Atoms biomass 
    9901            0    99040 2.0500002e-10 
    9910  0.066030025    99040 2.0500002e-10 
    9920   0.13758206    99040 2.0500002e-10 
    9930   0.20924306    99040 2.0500002e-10 
    9940   0.28080606    99040 2.0500002e-10 
    9950   0.35236788    99040 2.0500002e-10 
    9960   0.42368102    99040 2.0500002e-10 
    9970   0.49501204    99040 2.0500002e-10 
    9980   0.57317495    99040 2.0500002e-10 
    9990   0.64648604    99040 2.0500002e-10 
ssurf = 9.516944e-04 
   10000    0.7180109    99040 2.0500002e-10 
   10001   0.72399187    99040 2.0500002e-10 
Loop time of 0.72413 on 1 procs for 100 steps with 99040 atoms

100.0% CPU use with 1 MPI tasks x no OpenMP threads
run 1 pre no post no
Step CPU Atoms biomass 
   10001            0    99040 2.0500002e-10 
number of iterations: 171092 
   10002    1529.6291    99040 2.0500002e-10 
Loop time of 1529.63 on 1 procs for 1 steps with 99040 atoms

100.0% CPU use with 1 MPI tasks x no OpenMP threads
run 100 pre no post no
Step CPU Atoms biomass 
   10002            0    99040 2.0500002e-10 
   10010  0.059485912    99040 2.0500002e-10 
   10020   0.13113689    99040 2.0500002e-10 
   10030   0.20265698    99040 2.0500002e-10 
   10040   0.27486491    99040 2.0500002e-10 
   10050    0.3516109    99040 2.0500002e-10 
   10060   0.42339396    99040 2.0500002e-10 
   10070     0.494555    99040 2.0500002e-10 
   10080     0.566118    99040 2.0500002e-10 
   10090   0.63797092    99040 2.0500002e-10 
ssurf = 1.220816e-03 
   10100   0.70950508    99040 2.0500002e-10 
   10102   0.72204494    99040 2.0500002e-10 
Loop time of 0.722197 on 1 procs for 100 steps with 99040 atoms

100.2% CPU use with 1 MPI tasks x no OpenMP threads
run 100 pre no post no
Step CPU Atoms biomass 
   10102            0    99040 2.0500002e-10 
   10110  0.059495926    99040 2.0500002e-10 
   10120   0.13625407    99040 2.0500002e-10 
   10130   0.20786595    99040 2.0500002e-10 
   10140   0.27929807    99040 2.0500002e-10 
   10150   0.35068512    99040 2.0500002e-10 
   10160   0.42199111    99040 2.0500002e-10 
   10170   0.49379897    99040 2.0500002e-10 
   10180   0.56536508    99040 2.0500002e-10 
   10190   0.63705897    99040 2.0500002e-10 
ssurf = 1.220816e-03 
   10200   0.70922899    99040 2.0500002e-10 
   10202   0.72142005    99040 2.0500002e-10 
Loop time of 0.721562 on 1 procs for 100 steps with 99040 atoms

99.8% CPU use with 1 MPI tasks x no OpenMP threads
run 100 pre no post no
Step CPU Atoms biomass 
   10202            0    99040 2.0500002e-10 
   10210  0.058936834    99040 2.0500002e-10 
   10220   0.12990093    99040 2.0500002e-10 
   10230   0.20103598    99040 2.0500002e-10 
   10240   0.27240396    99040 2.0500002e-10 
   10250   0.34375691    99040 2.0500002e-10 
   10260   0.41550899    99040 2.0500002e-10 
   10270    0.4865098    99040 2.0500002e-10 
   10280   0.55754781    99040 2.0500002e-10 
   10290   0.62952399    99040 2.0500002e-10 
ssurf = 1.220816e-03 
   10300   0.70667887    99040 2.0500002e-10 
   10302   0.71903586    99040 2.0500002e-10 
Loop time of 0.719167 on 1 procs for 100 steps with 99040 atoms

99.6% CPU use with 1 MPI tasks x no OpenMP threads
run 100 pre no post no
Step CPU Atoms biomass 
   10302            0    99040 2.0500002e-10 
[...]
  197130  0.076262951    99040 2.0500002e-10 
  197140   0.14864802    99040 2.0500002e-10 
  197150    0.2197361    99040 2.0500002e-10 
  197160   0.29091096    99040 2.0500002e-10 
  197170   0.36197805    99040 2.0500002e-10 
  197180   0.43321609    99040 2.0500002e-10 
  197190   0.50444007    99040 2.0500002e-10 
ssurf = 1.702182e-03 
  197200   0.57567906    99040 2.0500002e-10 
  197210   0.64738107    99040 2.0500002e-10 
  197220   0.71911097    99040 2.0500002e-10 
Loop time of 0.719243 on 1 procs for 100 steps with 99040 atoms

100.1% CPU use with 1 MPI tasks x no OpenMP threads
run 100 pre no post no
Step CPU Atoms biomass 
  197220            0    99040 2.0500002e-10 
  197230  0.071264029    99040 2.0500002e-10 
  197240   0.14288497    99040 2.0500002e-10 
  197250   0.21416116    99040 2.0500002e-10 
  197260   0.28520298    99040 2.0500002e-10 
  197270   0.35638809    99040 2.0500002e-10 
  197280   0.42780209    99040 2.0500002e-10 
  197290   0.49895716    99040 2.0500002e-10 
ssurf = 1.702182e-03 
  197300   0.57031012    99040 2.0500002e-10 
  197310   0.64215302    99040 2.0500002e-10 
  197320   0.71382403    99040 2.0500002e-10 
Loop time of 0.713963 on 1 procs for 100 steps with 99040 atoms

100.3% CPU use with 1 MPI tasks x no OpenMP threads
run 100 pre no post no
Step CPU Atoms biomass 
  197320            0    99040 2.0500002e-10 
  197330  0.076982975    99040 2.0500002e-10 
  197340   0.14830995    99040 2.0500002e-10 
  197350   0.22014403    99040 2.0500002e-10 
  197360   0.29153585    99040 2.0500002e-10 
  197370   0.36262488    99040 2.0500002e-10 
  197380   0.43399596    99040 2.0500002e-10 
  197390   0.51072502    99040 2.0500002e-10 
ssurf = 1.702182e-03 
  197400   0.58227897    99040 2.0500002e-10 
  197410   0.65400481    99040 2.0500002e-10 
  197420   0.72597599    99040 2.0500002e-10 
Loop time of 0.726108 on 1 procs for 100 steps with 99040 atoms

99.7% CPU use with 1 MPI tasks x no OpenMP threads
run 100 pre no post no
Step CPU Atoms biomass 
  197420            0    99040 2.0500002e-10 
  197430  0.072061062    99040 2.0500002e-10 
  197440   0.14486098    99040 2.0500002e-10 
  197450    0.2215271    99040 2.0500002e-10 
  197460   0.29354095    99040 2.0500002e-10 
  197470   0.36493802    99040 2.0500002e-10 
  197480   0.43675494    99040 2.0500002e-10 
  197490   0.50844908    99040 2.0500002e-10 
ssurf = 1.702182e-03 
  197500   0.58017111    99040 2.0500002e-10 
  197510   0.65236902    99040 2.0500002e-10 
  197520   0.73687005    99040 2.0500002e-10 
Loop time of 0.737047 on 1 procs for 100 steps with 99040 atoms

99.9% CPU use with 1 MPI tasks x no OpenMP threads
run 100 pre no post no
Step CPU Atoms biomass 
  197520            0    99040 2.0500002e-10 
  197530  0.071782827    99040 2.0500002e-10 
  197540   0.14387298    99040 2.0500002e-10 
  197550   0.21513987    99040 2.0500002e-10 
  197560   0.28634381    99040 2.0500002e-10 
  197570   0.35849595    99040 2.0500002e-10 
  197580   0.43023682    99040 2.0500002e-10 
  197590   0.50724983    99040 2.0500002e-10 
ssurf = 1.702182e-03 
  197600    0.5853579    99040 2.0500002e-10 
  197610   0.65672588    99040 2.0500002e-10 
  197620   0.73301888    99040 2.0500002e-10 
Loop time of 0.733154 on 1 procs for 100 steps with 99040 atoms

99.3% CPU use with 1 MPI tasks x no OpenMP threads
run 100 pre no post no
Step CPU Atoms biomass 
  197620            0    99040 2.0500002e-10 
  197630  0.071624041    99040 2.0500002e-10 
  197640   0.15608406    99040 2.0500002e-10 
  197650   0.22830415    99040 2.0500002e-10 
  197660   0.29983211    99040 2.0500002e-10 
  197670    0.3711102    99040 2.0500002e-10 
  197680   0.44250822    99040 2.0500002e-10 
  197690    0.5201292    99040 2.0500002e-10 
ssurf = 1.702182e-03 
  197700   0.59145403    99040 2.0500002e-10 
  197710   0.66297221    99040 2.0500002e-10 
  197720   0.73423004    99040 2.0500002e-10 
Loop time of 0.734366 on 1 procs for 100 steps with 99040 atoms

100.2% CPU use with 1 MPI tasks x no OpenMP threads
run 100 pre no post no
Step CPU Atoms biomass 
  197720            0    99040 2.0500002e-10 
  197730  0.071331978    99040 2.0500002e-10 
  197740    0.1515851    99040 2.0500002e-10 
  197750   0.23034406    99040 2.0500002e-10 
  197760   0.30304909    99040 2.0500002e-10 
  197770   0.37580991    99040 2.0500002e-10 
  197780   0.44730806    99040 2.0500002e-10 
  197790   0.51985812    99040 2.0500002e-10 
ssurf = 1.702182e-03 
  197800   0.59362507    99040 2.0500002e-10 
  197810   0.66507196    99040 2.0500002e-10 
  197820   0.73700404    99040 2.0500002e-10 
Loop time of 0.737131 on 1 procs for 100 steps with 99040 atoms

99.8% CPU use with 1 MPI tasks x no OpenMP threads
run 100 pre no post no
Step CPU Atoms biomass 
  197820            0    99040 2.0500002e-10 
  197830  0.071596146    99040 2.0500002e-10 
  197840   0.14330006    99040 2.0500002e-10 
  197850   0.21457314    99040 2.0500002e-10 
  197860   0.28642011    99040 2.0500002e-10 
  197870   0.36312294    99040 2.0500002e-10 
  197880   0.43482304    99040 2.0500002e-10 
  197890   0.50642014    99040 2.0500002e-10 
ssurf = 1.702182e-03 
  197900    0.5782311    99040 2.0500002e-10 
  197910   0.65022397    99040 2.0500002e-10 
  197920   0.72173905    99040 2.0500002e-10 
Loop time of 0.721873 on 1 procs for 100 steps with 99040 atoms

100.3% CPU use with 1 MPI tasks x no OpenMP threads
run 100 pre no post no
Step CPU Atoms biomass 
  197920            0    99040 2.0500002e-10 
  197930  0.071460009    99040 2.0500002e-10 
  197940   0.14346004    99040 2.0500002e-10 
  197950   0.21496105    99040 2.0500002e-10 
  197960   0.28665709    99040 2.0500002e-10 
  197970   0.35806704    99040 2.0500002e-10 
  197980   0.42987895    99040 2.0500002e-10 
  197990   0.50158501    99040 2.0500002e-10 
ssurf = 1.702182e-03 
  198000   0.57347393    99040 2.0500002e-10 
  198010   0.64575696    99040 2.0500002e-10 
  198020   0.71857715    99040 2.0500002e-10 
Loop time of 0.71871 on 1 procs for 100 steps with 99040 atoms

100.2% CPU use with 1 MPI tasks x no OpenMP threads
run 100 pre no post no
Step CPU Atoms biomass 
  198020            0    99040 2.0500002e-10 
  198030  0.071644068    99040 2.0500002e-10 
  198040   0.14314914    99040 2.0500002e-10 
  198050   0.21443605    99040 2.0500002e-10 
  198060   0.28607106    99040 2.0500002e-10 
  198070   0.35801101    99040 2.0500002e-10 
  198080   0.42995811    99040 2.0500002e-10 
  198090   0.50153399    99040 2.0500002e-10 
ssurf = 1.702182e-03 
  198100   0.57298303    99040 2.0500002e-10 
  198110   0.64460611    99040 2.0500002e-10 
  198120     0.721102    99040 2.0500002e-10 
Loop time of 0.72124 on 1 procs for 100 steps with 99040 atoms

99.8% CPU use with 1 MPI tasks x no OpenMP threads
run 100 pre no post no
Step CPU Atoms biomass 
  198120            0    99040 2.0500002e-10 
  198130  0.076653004    99040 2.0500002e-10 
  198140   0.14783597    99040 2.0500002e-10 
  198150   0.21867418    99040 2.0500002e-10 
  198160   0.28979397    99040 2.0500002e-10 
  198170   0.36084414    99040 2.0500002e-10 
  198180   0.43208098    99040 2.0500002e-10 
  198190   0.50870299    99040 2.0500002e-10 
ssurf = 1.702182e-03 
  198200   0.58008909    99040 2.0500002e-10 
  198210   0.65106201    99040 2.0500002e-10 
  198220   0.72232199    99040 2.0500002e-10 
Loop time of 0.722459 on 1 procs for 100 steps with 99040 atoms

99.7% CPU use with 1 MPI tasks x no OpenMP threads
run 100 pre no post no
Step CPU Atoms biomass 
  198220            0    99040 2.0500002e-10 
  198230  0.071527004    99040 2.0500002e-10 
  198240   0.14286613    99040 2.0500002e-10 
  198250   0.21502614    99040 2.0500002e-10 
  198260   0.28641415    99040 2.0500002e-10 
  198270   0.35841417    99040 2.0500002e-10 
  198280   0.43006516    99040 2.0500002e-10 
  198290   0.50163722    99040 2.0500002e-10 
ssurf = 1.702182e-03 
  198300   0.57358217    99040 2.0500002e-10 
  198310   0.64472103    99040 2.0500002e-10 
  198320   0.71613908    99040 2.0500002e-10 
Loop time of 0.716269 on 1 procs for 100 steps with 99040 atoms

100.0% CPU use with 1 MPI tasks x no OpenMP threads
run 100 pre no post no
Step CPU Atoms biomass 
  198320            0    99040 2.0500002e-10 
  198330  0.071289062    99040 2.0500002e-10 
  198340   0.14248991    99040 2.0500002e-10 
  198350   0.21410084    99040 2.0500002e-10 
  198360   0.28641105    99040 2.0500002e-10 
  198370   0.35760999    99040 2.0500002e-10 
  198380   0.42893887    99040 2.0500002e-10 
  198390   0.50058103    99040 2.0500002e-10 
ssurf = 1.702182e-03 
  198400   0.57188702    99040 2.0500002e-10 
  198410   0.64336205    99040 2.0500002e-10 
  198420   0.71958184    99040 2.0500002e-10 
Loop time of 0.719728 on 1 procs for 100 steps with 99040 atoms

100.0% CPU use with 1 MPI tasks x no OpenMP threads
run 100 pre no post no
Step CPU Atoms biomass 
  198420            0    99040 2.0500002e-10 
  198430  0.071973085    99040 2.0500002e-10 
  198440   0.14342213    99040 2.0500002e-10 
  198450   0.21504903    99040 2.0500002e-10 
  198460   0.28630304    99040 2.0500002e-10 
  198470   0.37933493    99040 2.0500002e-10 
  198480   0.46572709    99040 2.0500002e-10 
  198490   0.53992605    99040 2.0500002e-10 
ssurf = 1.702182e-03 
  198500   0.61283302    99040 2.0500002e-10 
  198510   0.68431997    99040 2.0500002e-10 
  198520   0.75569415    99040 2.0500002e-10 
Loop time of 0.755827 on 1 procs for 100 steps with 99040 atoms

100.0% CPU use with 1 MPI tasks x no OpenMP threads
run 100 pre no post no
Step CPU Atoms biomass 
  198520            0    99040 2.0500002e-10 
  198530  0.072280169    99040 2.0500002e-10 
  198540   0.14350319    99040 2.0500002e-10 
  198550   0.22031116    99040 2.0500002e-10 
  198560   0.29175806    99040 2.0500002e-10 
  198570   0.36350203    99040 2.0500002e-10 
  198580   0.43509007    99040 2.0500002e-10 
  198590    0.5065012    99040 2.0500002e-10 
ssurf = 1.702182e-03 
  198600   0.57857013    99040 2.0500002e-10 
  198610   0.65590715    99040 2.0500002e-10 
  198620   0.72753811    99040 2.0500002e-10 
Loop time of 0.727676 on 1 procs for 100 steps with 99040 atoms

100.0% CPU use with 1 MPI tasks x no OpenMP threads
run 100 pre no post no
Step CPU Atoms biomass 
  198620            0    99040 2.0500002e-10 
  198630   0.07172513    99040 2.0500002e-10 
  198640   0.14313221    99040 2.0500002e-10 
  198650   0.21463418    99040 2.0500002e-10 
  198660   0.28587008    99040 2.0500002e-10 
  198670    0.3579402    99040 2.0500002e-10 
  198680   0.42927718    99040 2.0500002e-10 
  198690   0.50079012    99040 2.0500002e-10 
ssurf = 1.702182e-03 
  198700   0.57253504    99040 2.0500002e-10 
  198710   0.64533305    99040 2.0500002e-10 
  198720   0.71657014    99040 2.0500002e-10 
Loop time of 0.716703 on 1 procs for 100 steps with 99040 atoms

99.9% CPU use with 1 MPI tasks x no OpenMP threads
run 100 pre no post no
Step CPU Atoms biomass 
  198720            0    99040 2.0500002e-10 
  198730  0.071364164    99040 2.0500002e-10 
  198740    0.1429131    99040 2.0500002e-10 
  198750   0.21485305    99040 2.0500002e-10 
  198760   0.28593516    99040 2.0500002e-10 
  198770   0.35736609    99040 2.0500002e-10 
  198780   0.42889905    99040 2.0500002e-10 
  198790   0.50139999    99040 2.0500002e-10 
ssurf = 1.702182e-03 
  198800   0.57325315    99040 2.0500002e-10 
  198810   0.64484406    99040 2.0500002e-10 
  198820    0.7163341    99040 2.0500002e-10 
Loop time of 0.716467 on 1 procs for 100 steps with 99040 atoms

99.9% CPU use with 1 MPI tasks x no OpenMP threads
run 100 pre no post no
Step CPU Atoms biomass 
  198820            0    99040 2.0500002e-10 
  198830  0.071787119    99040 2.0500002e-10 
  198840   0.14360094    99040 2.0500002e-10 
  198850   0.21561313    99040 2.0500002e-10 
  198860   0.28748012    99040 2.0500002e-10 
  198870   0.35930395    99040 2.0500002e-10 
  198880   0.43107295    99040 2.0500002e-10 
  198890   0.50317812    99040 2.0500002e-10 
ssurf = 1.702182e-03 
  198900   0.57534909    99040 2.0500002e-10 
  198910    0.6471591    99040 2.0500002e-10 
  198920   0.72450805    99040 2.0500002e-10 
Loop time of 0.724645 on 1 procs for 100 steps with 99040 atoms

99.9% CPU use with 1 MPI tasks x no OpenMP threads
run 100 pre no post no
Step CPU Atoms biomass 
  198920            0    99040 2.0500002e-10 
  198930   0.07133913    99040 2.0500002e-10 
  198940   0.14350009    99040 2.0500002e-10 
  198950     0.215487    99040 2.0500002e-10 
  198960   0.28749108    99040 2.0500002e-10 
  198970   0.36174822    99040 2.0500002e-10 
  198980   0.43608904    99040 2.0500002e-10 
  198990   0.50760818    99040 2.0500002e-10 
ssurf = 1.702182e-03 
  199000   0.57956815    99040 2.0500002e-10 
  199010   0.65180302    99040 2.0500002e-10 
  199020   0.72468019    99040 2.0500002e-10 
Loop time of 0.724814 on 1 procs for 100 steps with 99040 atoms

99.9% CPU use with 1 MPI tasks x no OpenMP threads
run 100 pre no post no
Step CPU Atoms biomass 
  199020            0    99040 2.0500002e-10 
  199030  0.071760178    99040 2.0500002e-10 
  199040   0.14340711    99040 2.0500002e-10 
  199050   0.21505809    99040 2.0500002e-10 
  199060   0.28641415    99040 2.0500002e-10 
  199070   0.36051321    99040 2.0500002e-10 
  199080   0.43812513    99040 2.0500002e-10 
  199090   0.51001811    99040 2.0500002e-10 
ssurf = 1.702182e-03 
  199100   0.58129215    99040 2.0500002e-10 
  199110   0.65229511    99040 2.0500002e-10 
  199120   0.72338915    99040 2.0500002e-10 
Loop time of 0.72352 on 1 procs for 100 steps with 99040 atoms

100.1% CPU use with 1 MPI tasks x no OpenMP threads
run 100 pre no post no
Step CPU Atoms biomass 
  199120            0    99040 2.0500002e-10 
  199130  0.071405888    99040 2.0500002e-10 
  199140   0.14304185    99040 2.0500002e-10 
  199150   0.22052288    99040 2.0500002e-10 
  199160   0.29202986    99040 2.0500002e-10 
  199170   0.36337996    99040 2.0500002e-10 
  199180   0.43471789    99040 2.0500002e-10 
  199190   0.50622892    99040 2.0500002e-10 
ssurf = 1.702182e-03 
  199200   0.57800484    99040 2.0500002e-10 
  199210     0.649719    99040 2.0500002e-10 
  199220   0.72096586    99040 2.0500002e-10 
Loop time of 0.721102 on 1 procs for 100 steps with 99040 atoms

100.4% CPU use with 1 MPI tasks x no OpenMP threads
run 100 pre no post no
Step CPU Atoms biomass 
  199220            0    99040 2.0500002e-10 
  199230  0.071763992    99040 2.0500002e-10 
  199240   0.14362288    99040 2.0500002e-10 
  199250   0.21527505    99040 2.0500002e-10 
  199260   0.28657508    99040 2.0500002e-10 
  199270   0.35839796    99040 2.0500002e-10 
  199280   0.42993903    99040 2.0500002e-10 
  199290   0.50161409    99040 2.0500002e-10 
ssurf = 1.702182e-03 
  199300   0.57421899    99040 2.0500002e-10 
  199310   0.64622903    99040 2.0500002e-10 
  199320   0.71806288    99040 2.0500002e-10 
Loop time of 0.718196 on 1 procs for 100 steps with 99040 atoms

99.7% CPU use with 1 MPI tasks x no OpenMP threads
run 100 pre no post no
Step CPU Atoms biomass 
  199320            0    99040 2.0500002e-10 
  199330   0.07172513    99040 2.0500002e-10 
  199340   0.14359498    99040 2.0500002e-10 
  199350   0.21534705    99040 2.0500002e-10 
  199360   0.28708696    99040 2.0500002e-10 
  199370   0.35881996    99040 2.0500002e-10 
  199380   0.43041205    99040 2.0500002e-10 
  199390   0.50135207    99040 2.0500002e-10 
ssurf = 1.702182e-03 
  199400   0.57774305    99040 2.0500002e-10 
  199410   0.64864898    99040 2.0500002e-10 
  199420     0.719666    99040 2.0500002e-10 
Loop time of 0.719808 on 1 procs for 100 steps with 99040 atoms

99.5% CPU use with 1 MPI tasks x no OpenMP threads
run 100 pre no post no
Step CPU Atoms biomass 
  199420            0    99040 2.0500002e-10 
  199430  0.071779013    99040 2.0500002e-10 
  199440     0.144032    99040 2.0500002e-10 
  199450   0.21565604    99040 2.0500002e-10 
  199460   0.28705716    99040 2.0500002e-10 
  199470   0.36421013    99040 2.0500002e-10 
  199480   0.43576503    99040 2.0500002e-10 
  199490   0.50723815    99040 2.0500002e-10 
ssurf = 1.702182e-03 
  199500   0.57848907    99040 2.0500002e-10 
  199510     0.649894    99040 2.0500002e-10 
  199520   0.72186613    99040 2.0500002e-10 
Loop time of 0.721996 on 1 procs for 100 steps with 99040 atoms

99.7% CPU use with 1 MPI tasks x no OpenMP threads
run 100 pre no post no
Step CPU Atoms biomass 
  199520            0    99040 2.0500002e-10 
  199530  0.071352005    99040 2.0500002e-10 
  199540   0.14301515    99040 2.0500002e-10 
  199550   0.21437597    99040 2.0500002e-10 
  199560   0.28569007    99040 2.0500002e-10 
  199570   0.35717702    99040 2.0500002e-10 
  199580   0.42876697    99040 2.0500002e-10 
  199590   0.50598407    99040 2.0500002e-10 
ssurf = 1.702182e-03 
  199600   0.57777405    99040 2.0500002e-10 
  199610   0.64897799    99040 2.0500002e-10 
  199620     0.720119    99040 2.0500002e-10 
Loop time of 0.720251 on 1 procs for 100 steps with 99040 atoms

100.5% CPU use with 1 MPI tasks x no OpenMP threads
run 100 pre no post no
Step CPU Atoms biomass 
  199620            0    99040 2.0500002e-10 
  199630  0.072056055    99040 2.0500002e-10 
  199640   0.14313006    99040 2.0500002e-10 
  199650   0.21482205    99040 2.0500002e-10 
  199660   0.29225588    99040 2.0500002e-10 
  199670   0.36374903    99040 2.0500002e-10 
  199680   0.43508697    99040 2.0500002e-10 
  199690   0.50661898    99040 2.0500002e-10 
ssurf = 1.702182e-03 
  199700   0.57825089    99040 2.0500002e-10 
  199710    0.6496439    99040 2.0500002e-10 
  199720   0.72095394    99040 2.0500002e-10 
Loop time of 0.721087 on 1 procs for 100 steps with 99040 atoms

99.8% CPU use with 1 MPI tasks x no OpenMP threads
run 100 pre no post no
Step CPU Atoms biomass 
  199720            0    99040 2.0500002e-10 
  199730  0.071301937    99040 2.0500002e-10 
  199740   0.14865184    99040 2.0500002e-10 
  199750   0.22034693    99040 2.0500002e-10 
  199760   0.29201794    99040 2.0500002e-10 
  199770   0.36349988    99040 2.0500002e-10 
  199780   0.43525982    99040 2.0500002e-10 
  199790   0.50685501    99040 2.0500002e-10 
ssurf = 1.702182e-03 
  199800   0.57881498    99040 2.0500002e-10 
  199810   0.65208197    99040 2.0500002e-10 
  199820   0.72465897    99040 2.0500002e-10 
Loop time of 0.724792 on 1 procs for 100 steps with 99040 atoms

99.9% CPU use with 1 MPI tasks x no OpenMP threads
run 100 pre no post no
Step CPU Atoms biomass 
  199820            0    99040 2.0500002e-10 
  199830  0.071763039    99040 2.0500002e-10 
  199840   0.14343309    99040 2.0500002e-10 
  199850   0.21491814    99040 2.0500002e-10 
  199860   0.28629208    99040 2.0500002e-10 
  199870   0.35762095    99040 2.0500002e-10 
  199880   0.43026209    99040 2.0500002e-10 
  199890   0.50150704    99040 2.0500002e-10 
ssurf = 1.702182e-03 
  199900   0.57338691    99040 2.0500002e-10 
  199910   0.64471197    99040 2.0500002e-10 
  199920   0.71690702    99040 2.0500002e-10 
Loop time of 0.717038 on 1 procs for 100 steps with 99040 atoms

99.9% CPU use with 1 MPI tasks x no OpenMP threads
run 100 pre no post no
Step CPU Atoms biomass 
  199920            0    99040 2.0500002e-10 
  199930  0.071044207    99040 2.0500002e-10 
  199940   0.14217114    99040 2.0500002e-10 
  199950   0.21326017    99040 2.0500002e-10 
  199960   0.28471017    99040 2.0500002e-10 
  199970   0.36143613    99040 2.0500002e-10 
  199980   0.43270111    99040 2.0500002e-10 
  199990   0.50434518    99040 2.0500002e-10 
ssurf = 1.702182e-03 
  200000   0.57619715    99040 2.0500002e-10 
  200010   0.64773917    99040 2.0500002e-10 
  200020    0.7245512    99040 2.0500002e-10 
Loop time of 0.724697 on 1 procs for 100 steps with 99040 atoms

99.9% CPU use with 1 MPI tasks x no OpenMP threads
Total wall time: 4:32:56
