NUFEB Simulation 

       600 atoms 
       5 atom types 

   0   3e-04  xlo xhi 
   0   1e-04  ylo yhi 
   0   1e-04  zlo zhi 

 Atoms 

1	4	1.00E-06	150	0.0002183192	0.0001785726	5.00E-05	1.00E-06
2	5	1.00E-06	150	0.0002479338	0.0001265901	5.00E-05	1.00E-06
3	3	1.00E-06	150	0.0001385542	0.0001617932	5.00E-05	1.00E-06
4	2	1.00E-06	150	0.0001079921	0.00015151718	5.00E-05	1.00E-06
5	1	1.00E-06	150	4.1951E-05	0.0001745099	5.00E-05	1.00E-06
6	1	1.00E-06	150	2.9684E-05	0.0001630332	5.00E-05	1.00E-06
7	2	1.00E-06	150	0.0001007964	0.0001755696	5.00E-05	1.00E-06
8	1	1.00E-06	150	5.28122E-05	0.00014646666	5.00E-05	1.00E-06
9	2	1.00E-06	150	7.57909E-05	0.0001288792	5.00E-05	1.00E-06
10	4	1.00E-06	150	0.0002209394	0.0001607025	5.00E-05	1.00E-06
11	3	1.00E-06	150	0.0001345584	0.0001245378	5.00E-05	1.00E-06
12	5	1.00E-06	150	0.000265619	0.00015182404	5.00E-05	1.00E-06
13	3	1.00E-06	150	0.0001721292	0.0001711084	5.00E-05	1.00E-06
14	1	1.00E-06	150	2.2745E-05	0.0001269094	5.00E-05	1.00E-06
15	5	1.00E-06	150	0.000267941	0.0001765048	5.00E-05	1.00E-06
16	5	1.00E-06	150	0.000283501	0.0001251914	5.00E-05	1.00E-06
17	2	1.00E-06	150	0.0001110158	0.0001757174	5.00E-05	1.00E-06
18	1	1.00E-06	150	1.295E-05	0.0001513654	5.00E-05	1.00E-06
19	3	1.00E-06	150	0.00015869574	0.0001743024	5.00E-05	1.00E-06
20	4	1.00E-06	150	0.0002127692	0.0001262951	5.00E-05	1.00E-06
21	5	1.00E-06	150	0.00029065	0.000161771	5.00E-05	1.00E-06
22	1	1.00E-06	150	4.102E-05	0.00014074351	5.00E-05	1.00E-06
23	1	1.00E-06	150	1.5271E-05	0.0001372627	5.00E-05	1.00E-06
24	4	1.00E-06	150	0.0002175397	0.0001764971	5.00E-05	1.00E-06
25	5	1.00E-06	150	0.000256535	0.0001654962	5.00E-05	1.00E-06
26	4	1.00E-06	150	0.0002340281	0.00013357	5.00E-05	1.00E-06
27	2	1.00E-06	150	0.0001059145	0.0001329871	5.00E-05	1.00E-06
28	4	1.00E-06	150	0.0002126975	0.0001263385	5.00E-05	1.00E-06
29	2	1.00E-06	150	7.27052E-05	0.00014222764	5.00E-05	1.00E-06
30	4	1.00E-06	150	0.0002314216	0.0001386842	5.00E-05	1.00E-06
31	4	1.00E-06	150	0.00019669	0.00015420855	5.00E-05	1.00E-06
32	5	1.00E-06	150	0.000273964	0.0001523982	5.00E-05	1.00E-06
33	1	1.00E-06	150	1.563E-05	0.00015543482	5.00E-05	1.00E-06
34	1	1.00E-06	150	2.1638E-05	0.0001741999	5.00E-05	1.00E-06
35	5	1.00E-06	150	0.00027591	0.0001783588	5.00E-05	1.00E-06
36	1	1.00E-06	150	1.0228E-05	0.0001787553	5.00E-05	1.00E-06
37	5	1.00E-06	150	0.000275411	0.0001770095	5.00E-05	1.00E-06
38	3	1.00E-06	150	0.00016181	0.0001775715	5.00E-05	1.00E-06
39	1	1.00E-06	150	4.5457E-05	0.0001766532	5.00E-05	1.00E-06
40	1	1.00E-06	150	1.4018E-05	0.0001285219	5.00E-05	1.00E-06
41	4	1.00E-06	150	0.0002159643	0.00015158473	5.00E-05	1.00E-06
42	2	1.00E-06	150	0.0001094727	0.00014522884	5.00E-05	1.00E-06
43	5	1.00E-06	150	0.000268218	0.00015204856	5.00E-05	1.00E-06
44	4	1.00E-06	150	0.0002187273	0.000177297	5.00E-05	1.00E-06
45	2	1.00E-06	150	7.16337E-05	0.00015613458	5.00E-05	1.00E-06
46	4	1.00E-06	150	0.0001973142	0.000169146	5.00E-05	1.00E-06
47	4	1.00E-06	150	0.0002343717	0.0001626904	5.00E-05	1.00E-06
48	4	1.00E-06	150	0.0002252247	0.0001746138	5.00E-05	1.00E-06
49	5	1.00E-06	150	0.000257112	0.0001705808	5.00E-05	1.00E-06
50	3	1.00E-06	150	0.000150936825	0.0001780856	5.00E-05	1.00E-06
51	1	1.00E-06	150	5.14500000000001E-06	0.0001237742	5.00E-05	1.00E-06
52	2	1.00E-06	150	7.47272E-05	0.00014735678	5.00E-05	1.00E-06
53	5	1.00E-06	150	0.000284771	0.00015054387	5.00E-05	1.00E-06
54	4	1.00E-06	150	0.0002043392	0.00015157293	5.00E-05	1.00E-06
55	4	1.00E-06	150	0.0002112178	0.0001777176	5.00E-05	1.00E-06
56	1	1.00E-06	150	2.4889E-05	0.0001271496	5.00E-05	1.00E-06
57	5	1.00E-06	150	0.000286527	0.0001660319	5.00E-05	1.00E-06
58	4	1.00E-06	150	0.0001994718	0.0001349366	5.00E-05	1.00E-06
59	4	1.00E-06	150	0.0001880902	0.0001757664	5.00E-05	1.00E-06
60	2	1.00E-06	150	7.51368E-05	0.0001373512	5.00E-05	1.00E-06
61	5	1.00E-06	150	0.000288541	0.00014592878	5.00E-05	1.00E-06
62	3	1.00E-06	150	0.00014203414	0.0001540653	5.00E-05	1.00E-06
63	3	1.00E-06	150	0.00014336923	0.000123668	5.00E-05	1.00E-06
64	2	1.00E-06	150	0.000100272	0.0001226567	5.00E-05	1.00E-06
65	2	1.00E-06	150	9.80342E-05	0.0001223222	5.00E-05	1.00E-06
66	2	1.00E-06	150	7.34446E-05	0.0001767469	5.00E-05	1.00E-06
67	3	1.00E-06	150	0.00014744019	0.0001528114	5.00E-05	1.00E-06
68	4	1.00E-06	150	0.0002333508	0.0001725796	5.00E-05	1.00E-06
69	2	1.00E-06	150	0.0001055431	0.0001287594	5.00E-05	1.00E-06
70	1	1.00E-06	150	4.9266E-05	0.0001777147	5.00E-05	1.00E-06
71	4	1.00E-06	150	0.0002329786	0.0001738324	5.00E-05	1.00E-06
72	2	1.00E-06	150	7.93459E-05	0.0001313724	5.00E-05	1.00E-06
73	3	1.00E-06	150	0.00015111761	0.0001254682	5.00E-05	1.00E-06
74	5	1.00E-06	150	0.000273106	0.0001253814	5.00E-05	1.00E-06
75	2	1.00E-06	150	7.16946E-05	0.000169101	5.00E-05	1.00E-06
76	1	1.00E-06	150	2.0935E-05	0.0001721097	5.00E-05	1.00E-06
77	2	1.00E-06	150	7.35493E-05	0.00015983583	5.00E-05	1.00E-06
78	2	1.00E-06	150	0.0001187329	0.0001754299	5.00E-05	1.00E-06
79	4	1.00E-06	150	0.0002033522	0.00015295052	5.00E-05	1.00E-06
80	1	1.00E-06	150	5.89299E-05	0.0001774066	5.00E-05	1.00E-06
81	5	1.00E-06	150	0.000272887	0.0001751898	5.00E-05	1.00E-06
82	4	1.00E-06	150	0.0002282372	0.0001762655	5.00E-05	1.00E-06
83	5	1.00E-06	150	0.000250245	0.0001785175	5.00E-05	1.00E-06
84	1	1.00E-06	150	1.2969E-05	0.0001240559	5.00E-05	1.00E-06
85	4	1.00E-06	150	0.0002241246	0.0001768476	5.00E-05	1.00E-06
86	3	1.00E-06	150	0.0001606425	0.000149455875	5.00E-05	1.00E-06
87	1	1.00E-06	150	5.43127E-05	0.00014187296	5.00E-05	1.00E-06
88	1	1.00E-06	150	3.0758E-05	0.0001526858	5.00E-05	1.00E-06
89	1	1.00E-06	150	4.0696E-05	0.0001396153	5.00E-05	1.00E-06
90	5	1.00E-06	150	0.000256859	0.0001618879	5.00E-05	1.00E-06
91	5	1.00E-06	150	0.000276958	0.0001526623	5.00E-05	1.00E-06
92	4	1.00E-06	150	0.0002095337	0.0001243142	5.00E-05	1.00E-06
93	4	1.00E-06	150	0.0002192665	0.00015313044	5.00E-05	1.00E-06
94	1	1.00E-06	150	1.6706E-05	0.0001367887	5.00E-05	1.00E-06
95	3	1.00E-06	150	0.0001414721	0.00015222611	5.00E-05	1.00E-06
96	2	1.00E-06	150	0.000110437	0.0001690247	5.00E-05	1.00E-06
97	5	1.00E-06	150	0.000287174	0.00015585053	5.00E-05	1.00E-06
98	3	1.00E-06	150	0.0001392659	0.0001694277	5.00E-05	1.00E-06
99	5	1.00E-06	150	0.000286554	0.0001658838	5.00E-05	1.00E-06
100	5	1.00E-06	150	0.000275658	0.0001261215	5.00E-05	1.00E-06
101	3	1.00E-06	150	0.00014388892	0.00015454194	5.00E-05	1.00E-06
102	3	1.00E-06	150	0.00014635696	0.0001251803	5.00E-05	1.00E-06
103	1	1.00E-06	150	3.3531E-05	0.000149085569	5.00E-05	1.00E-06
104	1	1.00E-06	150	2.5413E-05	0.0001692354	5.00E-05	1.00E-06
105	4	1.00E-06	150	0.0001917303	0.0001781026	5.00E-05	1.00E-06
106	5	1.00E-06	150	0.00026452	0.0001234848	5.00E-05	1.00E-06
107	4	1.00E-06	150	0.0002046865	0.0001767044	5.00E-05	1.00E-06
108	1	1.00E-06	150	4.9532E-05	0.0001252203	5.00E-05	1.00E-06
109	2	1.00E-06	150	0.0001101346	0.000150235693	5.00E-05	1.00E-06
110	4	1.00E-06	150	0.0002145011	0.0001763765	5.00E-05	1.00E-06
111	1	1.00E-06	150	1.7215E-05	0.00014681326	5.00E-05	1.00E-06
112	5	1.00E-06	150	0.000290079	0.0001626313	5.00E-05	1.00E-06
113	1	1.00E-06	150	2.4818E-05	0.000164158	5.00E-05	1.00E-06
114	3	1.00E-06	150	0.0001616073	0.0001556625	5.00E-05	1.00E-06
115	5	1.00E-06	150	0.000264437	0.00015109748	5.00E-05	1.00E-06
116	3	1.00E-06	150	0.0001715414	0.0001686976	5.00E-05	1.00E-06
117	3	1.00E-06	150	0.00015434327	0.00015347648	5.00E-05	1.00E-06
118	1	1.00E-06	150	5.0186E-05	0.00014291604	5.00E-05	1.00E-06
119	5	1.00E-06	150	0.00025771	0.00015972187	5.00E-05	1.00E-06
120	1	1.00E-06	150	5.12797E-05	0.0001308744	5.00E-05	1.00E-06
121	5	1.00E-06	150	0.00028044	0.0001253529	5.00E-05	1.00E-06
122	4	1.00E-06	150	0.0001979356	0.00014161254	5.00E-05	1.00E-06
123	5	1.00E-06	150	0.000263306	0.0001766403	5.00E-05	1.00E-06
124	5	1.00E-06	150	0.000290257	0.0001661101	5.00E-05	1.00E-06
125	1	1.00E-06	150	5.06536E-05	0.00015134501	5.00E-05	1.00E-06
126	2	1.00E-06	150	0.0001086148	0.00015681573	5.00E-05	1.00E-06
127	2	1.00E-06	150	0.000103443	0.0001258734	5.00E-05	1.00E-06
128	5	1.00E-06	150	0.000287057	0.00015789388	5.00E-05	1.00E-06
129	3	1.00E-06	150	0.0001605511	0.00015500094	5.00E-05	1.00E-06
130	2	1.00E-06	150	0.0001068378	0.0001295378	5.00E-05	1.00E-06
131	3	1.00E-06	150	0.0001382898	0.0001653786	5.00E-05	1.00E-06
132	3	1.00E-06	150	0.0001744414	0.0001761363	5.00E-05	1.00E-06
133	5	1.00E-06	150	0.00027017	0.0001772473	5.00E-05	1.00E-06
134	5	1.00E-06	150	0.000290657	0.0001353996	5.00E-05	1.00E-06
135	4	1.00E-06	150	0.0001981048	0.00015860697	5.00E-05	1.00E-06
136	4	1.00E-06	150	0.0002185807	0.000149150585	5.00E-05	1.00E-06
137	1	1.00E-06	150	1.9936E-05	0.0001250944	5.00E-05	1.00E-06
138	4	1.00E-06	150	0.000202003	0.0001254327	5.00E-05	1.00E-06
139	2	1.00E-06	150	0.0001077019	0.00015707509	5.00E-05	1.00E-06
140	2	1.00E-06	150	0.0001082243	0.0001719515	5.00E-05	1.00E-06
141	1	1.00E-06	150	2.4065E-05	0.0001700748	5.00E-05	1.00E-06
142	4	1.00E-06	150	0.0001980836	0.0001385654	5.00E-05	1.00E-06
143	1	1.00E-06	150	4.6134E-05	0.0001271374	5.00E-05	1.00E-06
144	4	1.00E-06	150	0.0002143174	0.00015177327	5.00E-05	1.00E-06
145	1	1.00E-06	150	5.15624E-05	0.00014285355	5.00E-05	1.00E-06
146	3	1.00E-06	150	0.00014853947	0.00015160222	5.00E-05	1.00E-06
147	5	1.00E-06	150	0.000262182	0.0001260184	5.00E-05	1.00E-06
148	5	1.00E-06	150	0.000254277	0.0001744665	5.00E-05	1.00E-06
149	3	1.00E-06	150	0.00014426928	0.00015316485	5.00E-05	1.00E-06
150	4	1.00E-06	150	0.0002315222	0.0001390609	5.00E-05	1.00E-06
151	1	1.00E-06	150	5.07369E-05	0.0001718471	5.00E-05	1.00E-06
152	4	1.00E-06	150	0.0002319698	0.0001630064	5.00E-05	1.00E-06
153	2	1.00E-06	150	9.79422E-05	0.0001230338	5.00E-05	1.00E-06
154	4	1.00E-06	150	0.0002002557	0.0001690213	5.00E-05	1.00E-06
155	5	1.00E-06	150	0.000282425	0.0001723434	5.00E-05	1.00E-06
156	1	1.00E-06	150	7.298E-06	0.0001250893	5.00E-05	1.00E-06
157	3	1.00E-06	150	0.00014232083	0.0001778007	5.00E-05	1.00E-06
158	2	1.00E-06	150	7.26861E-05	0.00016978	5.00E-05	1.00E-06
159	5	1.00E-06	150	0.000280355	0.00015283842	5.00E-05	1.00E-06
160	1	1.00E-06	150	1.298E-05	0.000150474836	5.00E-05	1.00E-06
161	4	1.00E-06	150	0.000228274	0.0001251841	5.00E-05	1.00E-06
162	4	1.00E-06	150	0.0002332084	0.0001666798	5.00E-05	1.00E-06
163	4	1.00E-06	150	0.0001965689	0.00015156518	5.00E-05	1.00E-06
164	3	1.00E-06	150	0.00015860034	0.00015694429	5.00E-05	1.00E-06
165	3	1.00E-06	150	0.0001376657	0.00015732467	5.00E-05	1.00E-06
166	1	1.00E-06	150	2.8675E-05	0.0001653623	5.00E-05	1.00E-06
167	1	1.00E-06	150	4.3115E-05	0.000130332	5.00E-05	1.00E-06
168	3	1.00E-06	150	0.0001368901	0.00015750272	5.00E-05	1.00E-06
169	2	1.00E-06	150	6.9144E-05	0.0001759321	5.00E-05	1.00E-06
170	1	1.00E-06	150	5.44614E-05	0.0001324486	5.00E-05	1.00E-06
171	2	1.00E-06	150	0.0001084111	0.00015921745	5.00E-05	1.00E-06
172	4	1.00E-06	150	0.0001981083	0.00014340161	5.00E-05	1.00E-06
173	1	1.00E-06	150	1.5711E-05	0.0001697778	5.00E-05	1.00E-06
174	3	1.00E-06	150	0.00015685916	0.0001767824	5.00E-05	1.00E-06
175	1	1.00E-06	150	2.7745E-05	0.00015773953	5.00E-05	1.00E-06
176	1	1.00E-06	150	1.7473E-05	0.0001234417	5.00E-05	1.00E-06
177	2	1.00E-06	150	0.0001077746	0.00014816358	5.00E-05	1.00E-06
178	4	1.00E-06	150	0.0002319717	0.0001301257	5.00E-05	1.00E-06
179	4	1.00E-06	150	0.0002331895	0.0001250866	5.00E-05	1.00E-06
180	3	1.00E-06	150	0.00015469635	0.00015239331	5.00E-05	1.00E-06
181	3	1.00E-06	150	0.0001381682	0.0001329454	5.00E-05	1.00E-06
182	4	1.00E-06	150	0.000214698	0.0001535872	5.00E-05	1.00E-06
183	4	1.00E-06	150	0.000210698	0.0001246475	5.00E-05	1.00E-06
184	5	1.00E-06	150	0.00025435	0.000161003	5.00E-05	1.00E-06
185	2	1.00E-06	150	0.0001118242	0.0001388864	5.00E-05	1.00E-06
186	5	1.00E-06	150	0.000283399	0.000154927	5.00E-05	1.00E-06
187	3	1.00E-06	150	0.0001317862	0.0001249767	5.00E-05	1.00E-06
188	4	1.00E-06	150	0.0001926394	0.000126749	5.00E-05	1.00E-06
189	4	1.00E-06	150	0.0002041395	0.0001788072	5.00E-05	1.00E-06
190	5	1.00E-06	150	0.000262574	0.00015334542	5.00E-05	1.00E-06
191	1	1.00E-06	150	3.8428E-05	0.00014144142	5.00E-05	1.00E-06
192	2	1.00E-06	150	9.95571E-05	0.0001746748	5.00E-05	1.00E-06
193	1	1.00E-06	150	1.5266E-05	0.0001660386	5.00E-05	1.00E-06
194	1	1.00E-06	150	5.42656E-05	0.0001649629	5.00E-05	1.00E-06
195	2	1.00E-06	150	0.0001073179	0.000150779179	5.00E-05	1.00E-06
196	1	1.00E-06	150	3.0082E-05	0.0001616781	5.00E-05	1.00E-06
197	5	1.00E-06	150	0.000258296	0.0001714934	5.00E-05	1.00E-06
198	1	1.00E-06	150	3.9557E-05	0.0001384597	5.00E-05	1.00E-06
199	1	1.00E-06	150	5.33759E-05	0.00015244562	5.00E-05	1.00E-06
200	1	1.00E-06	150	5.32186E-05	0.0001383932	5.00E-05	1.00E-06
201	5	1.00E-06	150	0.000287395	0.00014710445	5.00E-05	1.00E-06
202	5	1.00E-06	150	0.000254938	0.00015922261	5.00E-05	1.00E-06
203	1	1.00E-06	150	1.4978E-05	0.0001265347	5.00E-05	1.00E-06
204	5	1.00E-06	150	0.000254842	0.0001305793	5.00E-05	1.00E-06
205	1	1.00E-06	150	1.4824E-05	0.00014895177	5.00E-05	1.00E-06
206	5	1.00E-06	150	0.000262008	0.0001766511	5.00E-05	1.00E-06
207	4	1.00E-06	150	0.0002009682	0.0001773853	5.00E-05	1.00E-06
208	1	1.00E-06	150	3.0102E-05	0.0001600845	5.00E-05	1.00E-06
209	1	1.00E-06	150	1.5231E-05	0.0001680151	5.00E-05	1.00E-06
210	5	1.00E-06	150	0.000253818	0.00014210594	5.00E-05	1.00E-06
211	3	1.00E-06	150	0.0001394933	0.0001627086	5.00E-05	1.00E-06
212	1	1.00E-06	150	1.0724E-05	0.0001241967	5.00E-05	1.00E-06
213	5	1.00E-06	150	0.000254336	0.00014679175	5.00E-05	1.00E-06
214	4	1.00E-06	150	0.0001977827	0.00015870815	5.00E-05	1.00E-06
215	4	1.00E-06	150	0.0001956194	0.0001722983	5.00E-05	1.00E-06
216	4	1.00E-06	150	0.0001936485	0.0001246032	5.00E-05	1.00E-06
217	1	1.00E-06	150	4.6268E-05	0.0001777641	5.00E-05	1.00E-06
218	4	1.00E-06	150	0.0002050213	0.0001773927	5.00E-05	1.00E-06
219	2	1.00E-06	150	6.73673E-05	0.0001776932	5.00E-05	1.00E-06
220	4	1.00E-06	150	0.0002326467	0.0001255443	5.00E-05	1.00E-06
221	1	1.00E-06	150	5.0145E-05	0.00014194245	5.00E-05	1.00E-06
222	4	1.00E-06	150	0.0002013421	0.0001755035	5.00E-05	1.00E-06
223	2	1.00E-06	150	6.09678E-05	0.0001743894	5.00E-05	1.00E-06
224	4	1.00E-06	150	0.0001970449	0.00015273085	5.00E-05	1.00E-06
225	2	1.00E-06	150	7.1701E-05	0.00015596708	5.00E-05	1.00E-06
226	1	1.00E-06	150	1.317E-05	0.00015974619	5.00E-05	1.00E-06
227	3	1.00E-06	150	0.0001373671	0.0001287825	5.00E-05	1.00E-06
228	2	1.00E-06	150	7.44517E-05	0.0001351892	5.00E-05	1.00E-06
229	1	1.00E-06	150	1.444E-05	0.0001347162	5.00E-05	1.00E-06
230	5	1.00E-06	150	0.00027846	0.0001252707	5.00E-05	1.00E-06
231	1	1.00E-06	150	3.6305E-05	0.00014845909	5.00E-05	1.00E-06
232	5	1.00E-06	150	0.000278401	0.0001241525	5.00E-05	1.00E-06
233	1	1.00E-06	150	1.385E-05	0.0001727821	5.00E-05	1.00E-06
234	2	1.00E-06	150	7.88235E-05	0.0001286634	5.00E-05	1.00E-06
235	1	1.00E-06	150	5.06137E-05	0.0001604693	5.00E-05	1.00E-06
236	3	1.00E-06	150	0.000162952	0.000175187	5.00E-05	1.00E-06
237	2	1.00E-06	150	7.6152E-05	0.0001626036	5.00E-05	1.00E-06
238	4	1.00E-06	150	0.0001992546	0.00014633189	5.00E-05	1.00E-06
239	4	1.00E-06	150	0.0001869835	0.0001268589	5.00E-05	1.00E-06
240	5	1.00E-06	150	0.000272732	0.0001499848218	5.00E-05	1.00E-06
241	5	1.00E-06	150	0.000256653	0.00014061576	5.00E-05	1.00E-06
242	1	1.00E-06	150	2.7456E-05	0.0001629207	5.00E-05	1.00E-06
243	3	1.00E-06	150	0.00015595786	0.0001748897	5.00E-05	1.00E-06
244	1	1.00E-06	150	5.01614E-05	0.00014312041	5.00E-05	1.00E-06
245	4	1.00E-06	150	0.0002240398	0.0001236683	5.00E-05	1.00E-06
246	4	1.00E-06	150	0.0001961842	0.00015766142	5.00E-05	1.00E-06
247	4	1.00E-06	150	0.0002033937	0.00015422773	5.00E-05	1.00E-06
248	4	1.00E-06	150	0.0002081694	0.0001269995	5.00E-05	1.00E-06
249	3	1.00E-06	150	0.00014173366	0.00015590977	5.00E-05	1.00E-06
250	1	1.00E-06	150	4.0936E-05	0.000135649	5.00E-05	1.00E-06
251	5	1.00E-06	150	0.00027552	0.0001741681	5.00E-05	1.00E-06
252	5	1.00E-06	150	0.000279022	0.0001268659	5.00E-05	1.00E-06
253	3	1.00E-06	150	0.00014301694	0.0001255786	5.00E-05	1.00E-06
254	2	1.00E-06	150	0.0001079469	0.00015636478	5.00E-05	1.00E-06
255	5	1.00E-06	150	0.000276895	0.0001764526	5.00E-05	1.00E-06
256	5	1.00E-06	150	0.000259858	0.0001262983	5.00E-05	1.00E-06
257	5	1.00E-06	150	0.000277529	0.0001262484	5.00E-05	1.00E-06
258	5	1.00E-06	150	0.000284795	0.00015403671	5.00E-05	1.00E-06
259	4	1.00E-06	150	0.0002323567	0.0001625573	5.00E-05	1.00E-06
260	1	1.00E-06	150	1.3042E-05	0.00015958425	5.00E-05	1.00E-06
261	2	1.00E-06	150	9.76843E-05	0.0001743784	5.00E-05	1.00E-06
262	5	1.00E-06	150	0.000256906	0.0001291018	5.00E-05	1.00E-06
263	1	1.00E-06	150	5.03236E-05	0.0001695678	5.00E-05	1.00E-06
264	3	1.00E-06	150	0.00015169391	0.0001265596	5.00E-05	1.00E-06
265	4	1.00E-06	150	0.0001893071	0.0001775641	5.00E-05	1.00E-06
266	4	1.00E-06	150	0.0002163285	0.00015157873	5.00E-05	1.00E-06
267	5	1.00E-06	150	0.000291431	0.0001331028	5.00E-05	1.00E-06
268	3	1.00E-06	150	0.00014126122	0.00015981521	5.00E-05	1.00E-06
269	2	1.00E-06	150	0.0001100896	0.000150167843	5.00E-05	1.00E-06
270	2	1.00E-06	150	8.04688E-05	0.000174245	5.00E-05	1.00E-06
271	2	1.00E-06	150	0.0001075192	0.00015446513	5.00E-05	1.00E-06
272	1	1.00E-06	150	3.6313E-05	0.0001410013	5.00E-05	1.00E-06
273	1	1.00E-06	150	5.46083E-05	0.000150265216	5.00E-05	1.00E-06
274	2	1.00E-06	150	9.77335E-05	0.0001256894	5.00E-05	1.00E-06
275	2	1.00E-06	150	7.09392E-05	0.0001770229	5.00E-05	1.00E-06
276	5	1.00E-06	150	0.000270992	0.00015133171	5.00E-05	1.00E-06
277	3	1.00E-06	150	0.0001718897	0.0001771646	5.00E-05	1.00E-06
278	1	1.00E-06	150	5.76815E-05	0.0001770049	5.00E-05	1.00E-06
279	3	1.00E-06	150	0.000138733	0.000171396	5.00E-05	1.00E-06
280	4	1.00E-06	150	0.000232452	0.0001331802	5.00E-05	1.00E-06
281	5	1.00E-06	150	0.000251614	0.0001778372	5.00E-05	1.00E-06
282	1	1.00E-06	150	5.14262E-05	0.0001609807	5.00E-05	1.00E-06
283	1	1.00E-06	150	2.8052E-05	0.0001665462	5.00E-05	1.00E-06
284	4	1.00E-06	150	0.0001984558	0.0001600383	5.00E-05	1.00E-06
285	5	1.00E-06	150	0.000265973	0.0001761419	5.00E-05	1.00E-06
286	2	1.00E-06	150	0.000105996	0.0001784929	5.00E-05	1.00E-06
287	2	1.00E-06	150	0.0001098725	0.00015766974	5.00E-05	1.00E-06
288	5	1.00E-06	150	0.000277582	0.0001763431	5.00E-05	1.00E-06
289	3	1.00E-06	150	0.0001748051	0.0001649446	5.00E-05	1.00E-06
290	4	1.00E-06	150	0.0002259113	0.0001781557	5.00E-05	1.00E-06
291	4	1.00E-06	150	0.0002238474	0.0001753021	5.00E-05	1.00E-06
292	3	1.00E-06	150	0.0001386819	0.00014503936	5.00E-05	1.00E-06
293	1	1.00E-06	150	5.38481E-05	0.00014106434	5.00E-05	1.00E-06
294	1	1.00E-06	150	1.4914E-05	0.0001720715	5.00E-05	1.00E-06
295	1	1.00E-06	150	5.09422E-05	0.0001221545	5.00E-05	1.00E-06
296	2	1.00E-06	150	0.0001086067	0.0001782343	5.00E-05	1.00E-06
297	5	1.00E-06	150	0.000289828	0.000169981	5.00E-05	1.00E-06
298	5	1.00E-06	150	0.000261199	0.0001499778588	5.00E-05	1.00E-06
299	5	1.00E-06	150	0.000283285	0.00015557593	5.00E-05	1.00E-06
300	2	1.00E-06	150	7.91564E-05	0.0001296919	5.00E-05	1.00E-06
301	1	1.00E-06	150	2.6458E-05	0.0001598126	5.00E-05	1.00E-06
302	4	1.00E-06	150	0.0002274988	0.0001767207	5.00E-05	1.00E-06
303	5	1.00E-06	150	0.000290397	0.0001363784	5.00E-05	1.00E-06
304	4	1.00E-06	150	0.0001966571	0.00015762833	5.00E-05	1.00E-06
305	5	1.00E-06	150	0.00026356	0.0001251187	5.00E-05	1.00E-06
306	1	1.00E-06	150	3.4948E-05	0.00015160348	5.00E-05	1.00E-06
307	1	1.00E-06	150	5.35124E-05	0.0001666415	5.00E-05	1.00E-06
308	5	1.00E-06	150	0.000287943	0.0001286384	5.00E-05	1.00E-06
309	4	1.00E-06	150	0.0001993265	0.00014680966	5.00E-05	1.00E-06
310	1	1.00E-06	150	4.9119E-05	0.0001255789	5.00E-05	1.00E-06
311	4	1.00E-06	150	0.0001972384	0.0001625491	5.00E-05	1.00E-06
312	4	1.00E-06	150	0.0001958803	0.000165936	5.00E-05	1.00E-06
313	1	1.00E-06	150	2.1346E-05	0.0001246702	5.00E-05	1.00E-06
314	1	1.00E-06	150	7.47E-06	0.0001240282	5.00E-05	1.00E-06
315	1	1.00E-06	150	4.2299E-05	0.0001329764	5.00E-05	1.00E-06
316	4	1.00E-06	150	0.0002159664	0.0001511819	5.00E-05	1.00E-06
317	4	1.00E-06	150	0.0001955144	0.00014254323	5.00E-05	1.00E-06
318	2	1.00E-06	150	0.0001016129	0.0001771696	5.00E-05	1.00E-06
319	3	1.00E-06	150	0.00014053727	0.00014668226	5.00E-05	1.00E-06
320	5	1.00E-06	150	0.00028857	0.0001294751	5.00E-05	1.00E-06
321	4	1.00E-06	150	0.0002237435	0.0001770716	5.00E-05	1.00E-06
322	1	1.00E-06	150	1.3934E-05	0.0001250891	5.00E-05	1.00E-06
323	1	1.00E-06	150	5.07927E-05	0.0001346117	5.00E-05	1.00E-06
324	4	1.00E-06	150	0.0002181232	0.00015223532	5.00E-05	1.00E-06
325	1	1.00E-06	150	2.234E-05	0.0001725601	5.00E-05	1.00E-06
326	2	1.00E-06	150	0.0001079463	0.00015288497	5.00E-05	1.00E-06
327	1	1.00E-06	150	4.0322E-05	0.0001377087	5.00E-05	1.00E-06
328	4	1.00E-06	150	0.0002025565	0.00015295582	5.00E-05	1.00E-06
329	1	1.00E-06	150	4.0037E-05	0.0001394562	5.00E-05	1.00E-06
330	4	1.00E-06	150	0.0002151228	0.00015363594	5.00E-05	1.00E-06
331	3	1.00E-06	150	0.00015580977	0.00015342584	5.00E-05	1.00E-06
332	4	1.00E-06	150	0.0001972208	0.00015934962	5.00E-05	1.00E-06
333	5	1.00E-06	150	0.000279068	0.00015478225	5.00E-05	1.00E-06
334	3	1.00E-06	150	0.0001714139	0.0001764954	5.00E-05	1.00E-06
335	1	1.00E-06	150	1.4242E-05	0.0001380204	5.00E-05	1.00E-06
336	5	1.00E-06	150	0.000257292	0.0001742028	5.00E-05	1.00E-06
337	4	1.00E-06	150	0.0002071932	0.0001245265	5.00E-05	1.00E-06
338	3	1.00E-06	150	0.00014788242	0.0001242714	5.00E-05	1.00E-06
339	5	1.00E-06	150	0.000257278	0.0001619011	5.00E-05	1.00E-06
340	1	1.00E-06	150	5.22443E-05	0.0001769657	5.00E-05	1.00E-06
341	3	1.00E-06	150	0.00015792741	0.00014556222	5.00E-05	1.00E-06
342	1	1.00E-06	150	3.5611E-05	0.00014239748	5.00E-05	1.00E-06
343	5	1.00E-06	150	0.000257374	0.00015561374	5.00E-05	1.00E-06
344	5	1.00E-06	150	0.000257004	0.000138516	5.00E-05	1.00E-06
345	3	1.00E-06	150	0.00014118165	0.0001684046	5.00E-05	1.00E-06
346	1	1.00E-06	150	4.6593E-05	0.000122025	5.00E-05	1.00E-06
347	4	1.00E-06	150	0.0002304087	0.0001247307	5.00E-05	1.00E-06
348	1	1.00E-06	150	1.4445E-05	0.00014176349	5.00E-05	1.00E-06
349	3	1.00E-06	150	0.0001703871	0.0001785795	5.00E-05	1.00E-06
350	4	1.00E-06	150	0.0002076543	0.0001515021	5.00E-05	1.00E-06
351	2	1.00E-06	150	6.83307E-05	0.0001745748	5.00E-05	1.00E-06
352	3	1.00E-06	150	0.0001380296	0.00015143862	5.00E-05	1.00E-06
353	4	1.00E-06	150	0.0001975781	0.00014855919	5.00E-05	1.00E-06
354	5	1.00E-06	150	0.000269241	0.00015306813	5.00E-05	1.00E-06
355	3	1.00E-06	150	0.0001371749	0.0001723439	5.00E-05	1.00E-06
356	4	1.00E-06	150	0.0001926751	0.0001758106	5.00E-05	1.00E-06
357	2	1.00E-06	150	0.0001107916	0.00015992581	5.00E-05	1.00E-06
358	3	1.00E-06	150	0.0001619999	0.0001600027	5.00E-05	1.00E-06
359	3	1.00E-06	150	0.00015815789	0.0001457278	5.00E-05	1.00E-06
360	1	1.00E-06	150	5.31724E-05	0.0001251218	5.00E-05	1.00E-06
361	1	1.00E-06	150	5.30705E-05	0.00015332382	5.00E-05	1.00E-06
362	1	1.00E-06	150	2.7089E-05	0.0001688894	5.00E-05	1.00E-06
363	2	1.00E-06	150	7.42715E-05	0.0001720778	5.00E-05	1.00E-06
364	4	1.00E-06	150	0.0001889385	0.0001754906	5.00E-05	1.00E-06
365	1	1.00E-06	150	5.26649E-05	0.000171107	5.00E-05	1.00E-06
366	4	1.00E-06	150	0.0002194791	0.00014401839	5.00E-05	1.00E-06
367	4	1.00E-06	150	0.0002017795	0.0001763638	5.00E-05	1.00E-06
368	5	1.00E-06	150	0.000261799	0.00015296217	5.00E-05	1.00E-06
369	5	1.00E-06	150	0.00025515	0.00015761143	5.00E-05	1.00E-06
370	3	1.00E-06	150	0.0001373461	0.0001287032	5.00E-05	1.00E-06
371	2	1.00E-06	150	7.67138E-05	0.0001382696	5.00E-05	1.00E-06
372	5	1.00E-06	150	0.000261337	0.0001236775	5.00E-05	1.00E-06
373	2	1.00E-06	150	7.64483E-05	0.00014246716	5.00E-05	1.00E-06
374	3	1.00E-06	150	0.0001385187	0.0001246584	5.00E-05	1.00E-06
375	5	1.00E-06	150	0.000273127	0.0001752054	5.00E-05	1.00E-06
376	3	1.00E-06	150	0.0001381425	0.00014301948	5.00E-05	1.00E-06
377	5	1.00E-06	150	0.000292772	0.0001328044	5.00E-05	1.00E-06
378	2	1.00E-06	150	7.56395E-05	0.00015930413	5.00E-05	1.00E-06
379	5	1.00E-06	150	0.000277218	0.00015129784	5.00E-05	1.00E-06
380	4	1.00E-06	150	0.0002097329	0.0001779565	5.00E-05	1.00E-06
381	2	1.00E-06	150	8.9514E-05	0.0001238241	5.00E-05	1.00E-06
382	3	1.00E-06	150	0.00014374563	0.00017469	5.00E-05	1.00E-06
383	5	1.00E-06	150	0.000259716	0.0001754193	5.00E-05	1.00E-06
384	2	1.00E-06	150	0.000111764	0.0001459073	5.00E-05	1.00E-06
385	1	1.00E-06	150	5.05414E-05	0.00015393188	5.00E-05	1.00E-06
386	3	1.00E-06	150	0.00014080901	0.0001304212	5.00E-05	1.00E-06
387	1	1.00E-06	150	1.4075E-05	0.000136682	5.00E-05	1.00E-06
388	3	1.00E-06	150	0.00014050117	0.00014809734	5.00E-05	1.00E-06
389	1	1.00E-06	150	8.696E-06	0.0001244246	5.00E-05	1.00E-06
390	2	1.00E-06	150	7.30159E-05	0.0001671166	5.00E-05	1.00E-06
391	5	1.00E-06	150	0.000275792	0.00015143686	5.00E-05	1.00E-06
392	5	1.00E-06	150	0.000290184	0.0001692489	5.00E-05	1.00E-06
393	1	1.00E-06	150	5.08872E-05	0.0001279148	5.00E-05	1.00E-06
394	5	1.00E-06	150	0.000286093	0.0001686797	5.00E-05	1.00E-06
395	1	1.00E-06	150	5.09548E-05	0.000149414416	5.00E-05	1.00E-06
396	4	1.00E-06	150	0.0001904871	0.0001767311	5.00E-05	1.00E-06
397	4	1.00E-06	150	0.0001988533	0.00015692138	5.00E-05	1.00E-06
398	2	1.00E-06	150	0.000105242	0.0001301742	5.00E-05	1.00E-06
399	1	1.00E-06	150	2.6813E-05	0.0001603534	5.00E-05	1.00E-06
400	3	1.00E-06	150	0.00014747344	0.0001232325	5.00E-05	1.00E-06
401	4	1.00E-06	150	0.0002000076	0.0001319729	5.00E-05	1.00E-06
402	4	1.00E-06	150	0.0002226702	0.0001242165	5.00E-05	1.00E-06
403	4	1.00E-06	150	0.0002305522	0.0001297378	5.00E-05	1.00E-06
404	4	1.00E-06	150	0.0002070738	0.0001742654	5.00E-05	1.00E-06
405	2	1.00E-06	150	0.0001028885	0.0001279746	5.00E-05	1.00E-06
406	3	1.00E-06	150	0.00015346089	0.0001756856	5.00E-05	1.00E-06
407	3	1.00E-06	150	0.00015090121	0.0001229566	5.00E-05	1.00E-06
408	5	1.00E-06	150	0.000288494	0.00014840713	5.00E-05	1.00E-06
409	2	1.00E-06	150	0.0001087273	0.0001751764	5.00E-05	1.00E-06
410	2	1.00E-06	150	9.26556E-05	0.0001250559	5.00E-05	1.00E-06
411	4	1.00E-06	150	0.0002302306	0.0001616814	5.00E-05	1.00E-06
412	3	1.00E-06	150	0.0001357929	0.0001773437	5.00E-05	1.00E-06
413	2	1.00E-06	150	0.0001020513	0.0001744295	5.00E-05	1.00E-06
414	2	1.00E-06	150	7.48231E-05	0.0001660941	5.00E-05	1.00E-06
415	2	1.00E-06	150	0.0001049551	0.0001780834	5.00E-05	1.00E-06
416	2	1.00E-06	150	7.66536E-05	0.0001746484	5.00E-05	1.00E-06
417	4	1.00E-06	150	0.0001958878	0.00014698243	5.00E-05	1.00E-06
418	1	1.00E-06	150	3.2667E-05	0.000150361621	5.00E-05	1.00E-06
419	2	1.00E-06	150	0.000111551	0.0001399566	5.00E-05	1.00E-06
420	4	1.00E-06	150	0.0002130119	0.0001744921	5.00E-05	1.00E-06
421	4	1.00E-06	150	0.0002065356	0.0001779991	5.00E-05	1.00E-06
422	1	1.00E-06	150	5.63618E-05	0.0001742289	5.00E-05	1.00E-06
423	1	1.00E-06	150	1.6024E-05	0.0001772322	5.00E-05	1.00E-06
424	4	1.00E-06	150	0.0002032317	0.00015303983	5.00E-05	1.00E-06
425	4	1.00E-06	150	0.0001969347	0.0001369673	5.00E-05	1.00E-06
426	1	1.00E-06	150	1.332E-05	0.0001276144	5.00E-05	1.00E-06
427	4	1.00E-06	150	0.0001970243	0.000135241	5.00E-05	1.00E-06
428	3	1.00E-06	150	0.000150299199	0.0001773391	5.00E-05	1.00E-06
429	4	1.00E-06	150	0.000194773	0.0001752979	5.00E-05	1.00E-06
430	3	1.00E-06	150	0.0001317226	0.0001760123	5.00E-05	1.00E-06
431	1	1.00E-06	150	1.745E-05	0.000169998	5.00E-05	1.00E-06
432	4	1.00E-06	150	0.0001992522	0.00015269134	5.00E-05	1.00E-06
433	5	1.00E-06	150	0.00028524	0.00014664314	5.00E-05	1.00E-06
434	1	1.00E-06	150	1.3093E-05	0.00015869034	5.00E-05	1.00E-06
435	4	1.00E-06	150	0.0002206135	0.00015642779	5.00E-05	1.00E-06
436	4	1.00E-06	150	0.0002322828	0.0001345922	5.00E-05	1.00E-06
437	3	1.00E-06	150	0.0001414635	0.00015209642	5.00E-05	1.00E-06
438	1	1.00E-06	150	1.7294E-05	0.00015186443	5.00E-05	1.00E-06
439	4	1.00E-06	150	0.0002316523	0.0001721676	5.00E-05	1.00E-06
440	3	1.00E-06	150	0.0001384794	0.00015705734	5.00E-05	1.00E-06
441	4	1.00E-06	150	0.000230787	0.0001323083	5.00E-05	1.00E-06
442	4	1.00E-06	150	0.0001889872	0.0001242816	5.00E-05	1.00E-06
443	4	1.00E-06	150	0.0002327958	0.0001637057	5.00E-05	1.00E-06
444	2	1.00E-06	150	8.42316E-05	0.0001752927	5.00E-05	1.00E-06
445	2	1.00E-06	150	7.47993E-05	0.00014111056	5.00E-05	1.00E-06
446	2	1.00E-06	150	7.83801E-05	0.0001329843	5.00E-05	1.00E-06
447	3	1.00E-06	150	0.0001355633	0.0001780786	5.00E-05	1.00E-06
448	1	1.00E-06	150	4.9363E-05	0.0001773948	5.00E-05	1.00E-06
449	5	1.00E-06	150	0.000250261	0.0001759815	5.00E-05	1.00E-06
450	4	1.00E-06	150	0.0002345032	0.0001344027	5.00E-05	1.00E-06
451	1	1.00E-06	150	5.42623E-05	0.0001624327	5.00E-05	1.00E-06
452	4	1.00E-06	150	0.0002135754	0.0001760885	5.00E-05	1.00E-06
453	2	1.00E-06	150	7.55991E-05	0.0001367128	5.00E-05	1.00E-06
454	4	1.00E-06	150	0.0001963307	0.00014435758	5.00E-05	1.00E-06
455	4	1.00E-06	150	0.0002180551	0.0001765612	5.00E-05	1.00E-06
456	5	1.00E-06	150	0.000254666	0.00014836982	5.00E-05	1.00E-06
457	2	1.00E-06	150	8.32071E-05	0.0001264241	5.00E-05	1.00E-06
458	5	1.00E-06	150	0.000282014	0.00014878782	5.00E-05	1.00E-06
459	1	1.00E-06	150	5.31699E-05	0.0001612666	5.00E-05	1.00E-06
460	2	1.00E-06	150	0.0001102184	0.0001600958	5.00E-05	1.00E-06
461	4	1.00E-06	150	0.0001963972	0.0001246397	5.00E-05	1.00E-06
462	4	1.00E-06	150	0.0002187667	0.0001266521	5.00E-05	1.00E-06
463	4	1.00E-06	150	0.0002311425	0.0001393327	5.00E-05	1.00E-06
464	1	1.00E-06	150	5.34032E-05	0.000150534308	5.00E-05	1.00E-06
465	1	1.00E-06	150	2.4868E-05	0.0001259083	5.00E-05	1.00E-06
466	2	1.00E-06	150	7.64852E-05	0.0001746323	5.00E-05	1.00E-06
467	5	1.00E-06	150	0.000257485	0.000150179592	5.00E-05	1.00E-06
468	3	1.00E-06	150	0.0001391609	0.0001723105	5.00E-05	1.00E-06
469	1	1.00E-06	150	4.4545E-05	0.0001775462	5.00E-05	1.00E-06
470	4	1.00E-06	150	0.0002325564	0.0001331806	5.00E-05	1.00E-06
471	5	1.00E-06	150	0.000285077	0.00014746577	5.00E-05	1.00E-06
472	5	1.00E-06	150	0.000253881	0.00014768242	5.00E-05	1.00E-06
473	5	1.00E-06	150	0.000254382	0.0001331515	5.00E-05	1.00E-06
474	2	1.00E-06	150	0.0001020919	0.0001285795	5.00E-05	1.00E-06
475	1	1.00E-06	150	1.5535E-05	0.0001245327	5.00E-05	1.00E-06
476	2	1.00E-06	150	9.26856E-05	0.0001257033	5.00E-05	1.00E-06
477	4	1.00E-06	150	0.0001963042	0.00014226064	5.00E-05	1.00E-06
478	5	1.00E-06	150	0.000292882	0.00014433958	5.00E-05	1.00E-06
479	3	1.00E-06	150	0.0001618641	0.00015570708	5.00E-05	1.00E-06