LAMMPS (5 Nov 2016)
# NUFEB simulation



atom_style	bio

atom_modify	map array sort 1000 5e-7

boundary	pp pp ff

newton		off

processors  * * 1



units si



comm_modify	vel yes

read_data_bio atom.in

  orthogonal box = (0 0 0) to (0.0016 0.0001 0.0004)
  1 by 1 by 1 MPI processor grid
  reading atoms ...
  0 atoms
  5 nutrients


variable  x equal 319

variable  y equal 19

variable  z equal 28



lattice sc 6.051e-6

Lattice spacing in x,y,z = 6.051e-06 6.051e-06 6.051e-06


region reg block 1 $x 1 $y 1 $z

region reg block 1 319 1 $y 1 $z

region reg block 1 319 1 19 1 $z

region reg block 1 319 1 19 1 28



variable  xx internal 0.0

variable  zz internal 0.0

variable  v equal "(0.29*v_z*zlat * cos(v_xx/xlat * 4.7*PI*4.0/v_x) + 0.90*v_z*zlat - v_zz) > 0.0"



create_atoms 1 region reg var v set x xx set z zz

Created 99040 atoms
#create_atoms 1 region reg



neighbor	5e-7 bin



set type 1 diameter 1.051e-6

  99040 settings made for diameter
set type 1 density 10

  99040 settings made for density
set type 1 mass 2.069871e-15

  99040 settings made for mass




##############Define DEM Variables&Commands##############



pair_style  gran/hooke/history 1.e-4 NULL 1.e-5 NULL 0.0 1

pair_coeff  * *



reset_timestep 0



timestep 1e-6



#fix 1 all nve/limit 1e-7

#fix fv all viscous 1e-5



fix zw all wall/gran hooke/history 5000 NULL 500.0 NULL 1.5 0 zplane 0.000000e-04   4e-4



variable kanc equal 50



fix zwa all walladh v_kanc zplane  0.000000e-04   4e-4



variable ke equal 5e+10

fix  fd all fdrag



##############Define IBm Variables##############



#variables used in fix monod

variable EPSdens equal 30

variable EPSratio equal 1.25



#variables used in fix kinetics 

variable diffT equal 1e-4

variable tol equal 1e-6

variable etaHET equal 0

variable layer equal -1



#Defining nufebFoam variables

variable demSteps equal -1

variable bioSteps equal 1

variable bioDt equal 60

variable nloops equal 10





##############Define IBm Commands##############



fix k1 all kinetics 1 160 10 40 v_diffT v_layer niter -1

fix kgm all kinetics/growth/monod v_EPSdens v_etaHET gflag 0

fix g1 all kinetics/diffusion v_tol dn nn nn kg



fix cfd1 all nufebFoam v_demSteps v_bioSteps v_bioDt v_nloops

fix vf1 all verify 100 bm2 1 demflag 0



##############Simulation Output##############



#dump		id all custom 100 snapshot.bubblemd id type diameter x y z

#dump		du2 all grid 1000 grid_%_*.vti con 

thermo_style    custom step cpu atoms biomass 

thermo		10

thermo_modify	lost warn



run 1

WARNING: EPS is not defined in fix_kinetics/kinetics/monod (../fix_bio_kinetics_monod.cpp:253)
WARNING: Negative input value for DEM steps, steps will be calculated and adjusted in nufebFoam (../fix_bio_fluid.cpp:73)
ae = 1.659091e+00, top = 1.694280e-04, base = 1.028670e-04, ave_h = 1.419581e-04 
Neighbor list info ...
  2 neighbor list requests
  update every 1 steps, delay 10 steps, check yes
  max neighbors/atom: 2000, page size: 100000
  master list distance cutoff = 1.551e-06
  ghost atom cutoff = 1.551e-06
  binsize = 7.755e-07 -> bins = 2064 129 516
Memory usage per processor = 590.453 Mbytes
Step CPU Atoms biomass 
       0            0    99040 2.0500002e-10 
number of iterations: 526542 
       1    4797.9205    99040 2.0500002e-10 
Loop time of 4797.92 on 1 procs for 1 steps with 99040 atoms

99.8% CPU use with 1 MPI tasks x no OpenMP threads

MPI task timing breakdown:
Section |  min time  |  avg time  |  max time  |%varavg| %total
---------------------------------------------------------------
Pair    | 0.005619   | 0.005619   | 0.005619   |   0.0 |  0.00
Neigh   | 0          | 0          | 0          |   0.0 |  0.00
Comm    | 2.861e-06  | 2.861e-06  | 2.861e-06  |   0.0 |  0.00
Output  | 0.0014212  | 0.0014212  | 0.0014212  |   0.0 |  0.00
Modify  | 4797.9     | 4797.9     | 4797.9     |   0.0 |100.00
Other   |            | 0.002311   |            |       |  0.00

Nlocal:    99040 ave 99040 max 99040 min
Histogram: 1 0 0 0 0 0 0 0 0 0
Nghost:    0 ave 0 max 0 min
Histogram: 1 0 0 0 0 0 0 0 0 0
Neighs:    0 ave 0 max 0 min
Histogram: 1 0 0 0 0 0 0 0 0 0

Total # of neighbors = 0
Ave neighs/atom = 0
Neighbor list builds = 0
Dangerous builds = 0


run 0 pre no post no
Step CPU Atoms biomass 
       1            0    99040 2.0500002e-10 
Loop time of 2.14577e-06 on 1 procs for 0 steps with 99040 atoms

0.0% CPU use with 1 MPI tasks x no OpenMP threads
run 1 pre no post no
Step CPU Atoms biomass 
       1            0    99040 2.0500002e-10 
number of iterations: 1 
       2  0.045331955    99040 2.0500002e-10 
Loop time of 0.045475 on 1 procs for 1 steps with 99040 atoms

44.0% CPU use with 1 MPI tasks x no OpenMP threads
run 100 pre no post no
Step CPU Atoms biomass 
       2            0    99040 2.0500002e-10 
      10  0.057828903    99040 2.0500002e-10 
      20   0.12572193    99040 2.0500002e-10 
      30   0.19264984    99040 2.0500002e-10 
      40   0.26008987    99040 2.0500002e-10 
      50   0.32788682    99040 2.0500002e-10 
      60   0.39525604    99040 2.0500002e-10 
      70   0.46302199    99040 2.0500002e-10 
      80   0.53065896    99040 2.0500002e-10 
      90   0.59887886    99040 2.0500002e-10 
ssurf = 9.516929e-04 
     100     0.665874    99040 2.0500002e-10 
     102   0.67945695    99040 2.0500002e-10 
Loop time of 0.679605 on 1 procs for 100 steps with 99040 atoms

98.9% CPU use with 1 MPI tasks x no OpenMP threads
run 100 pre no post no
Step CPU Atoms biomass 
     102            0    99040 2.0500002e-10 
     110  0.053885937    99040 2.0500002e-10 
     120   0.12095189    99040 2.0500002e-10 
     130   0.18792582    99040 2.0500002e-10 
     140   0.25424194    99040 2.0500002e-10 
     150   0.32116294    99040 2.0500002e-10 
     160     0.387393    99040 2.0500002e-10 
     170   0.45407796    99040 2.0500002e-10 
     180   0.52098799    99040 2.0500002e-10 
     190   0.58851695    99040 2.0500002e-10 
ssurf = 9.516929e-04 
     200    0.6563518    99040 2.0500002e-10 
     202   0.66997099    99040 2.0500002e-10 
Loop time of 0.670115 on 1 procs for 100 steps with 99040 atoms

100.3% CPU use with 1 MPI tasks x no OpenMP threads
run 100 pre no post no
Step CPU Atoms biomass 
     202            0    99040 2.0500002e-10 
     210  0.053436995    99040 2.0500002e-10 
     220   0.12076807    99040 2.0500002e-10 
     230     0.191993    99040 2.0500002e-10 
     240   0.25814199    99040 2.0500002e-10 
     250   0.32491684    99040 2.0500002e-10 
     260   0.40106797    99040 2.0500002e-10 
     270   0.47170305    99040 2.0500002e-10 
     280   0.53772402    99040 2.0500002e-10 
     290   0.60469389    99040 2.0500002e-10 
ssurf = 9.516929e-04 
     300   0.67144585    99040 2.0500002e-10 
     302   0.68521786    99040 2.0500002e-10 
Loop time of 0.685365 on 1 procs for 100 steps with 99040 atoms

99.2% CPU use with 1 MPI tasks x no OpenMP threads
run 100 pre no post no
Step CPU Atoms biomass 
     302            0    99040 2.0500002e-10 
     310  0.054556131    99040 2.0500002e-10 
     320   0.12202907    99040 2.0500002e-10 
     330   0.18944812    99040 2.0500002e-10 
     340   0.25617099    99040 2.0500002e-10 
     350   0.32288098    99040 2.0500002e-10 
     360   0.39036012    99040 2.0500002e-10 
     370    0.4581542    99040 2.0500002e-10 
     380   0.53046799    99040 2.0500002e-10 
     390    0.6057961    99040 2.0500002e-10 
ssurf = 9.516929e-04 
     400   0.67780304    99040 2.0500002e-10 
     402   0.69140005    99040 2.0500002e-10 
Loop time of 0.691535 on 1 procs for 100 steps with 99040 atoms

100.1% CPU use with 1 MPI tasks x no OpenMP threads
run 100 pre no post no
Step CPU Atoms biomass 
     402            0    99040 2.0500002e-10 
     410  0.054135084    99040 2.0500002e-10 
     420   0.12067318    99040 2.0500002e-10 
     430   0.18720698    99040 2.0500002e-10 
     440   0.25373006    99040 2.0500002e-10 
     450   0.32126808    99040 2.0500002e-10 
     460   0.38884616    99040 2.0500002e-10 
     470   0.49312615    99040 2.0500002e-10 
     480   0.56928706    99040 2.0500002e-10 
     490   0.63575912    99040 2.0500002e-10 
ssurf = 9.516929e-04 
     500   0.70266914    99040 2.0500002e-10 
     502   0.71613407    99040 2.0500002e-10 
Loop time of 0.71628 on 1 procs for 100 steps with 99040 atoms

100.0% CPU use with 1 MPI tasks x no OpenMP threads
run 100 pre no post no
Step CPU Atoms biomass 
     502            0    99040 2.0500002e-10 
     510  0.053945065    99040 2.0500002e-10 
     520   0.12256193    99040 2.0500002e-10 
     530   0.19132996    99040 2.0500002e-10 
     540   0.25854993    99040 2.0500002e-10 
     550   0.32589912    99040 2.0500002e-10 
     560   0.39272094    99040 2.0500002e-10 
     570   0.45981312    99040 2.0500002e-10 
     580   0.52726912    99040 2.0500002e-10 
     590   0.59646893    99040 2.0500002e-10 
ssurf = 9.516929e-04 
     600   0.66617894    99040 2.0500002e-10 
     602   0.68014002    99040 2.0500002e-10 
Loop time of 0.680285 on 1 procs for 100 steps with 99040 atoms

99.4% CPU use with 1 MPI tasks x no OpenMP threads
run 100 pre no post no
Step CPU Atoms biomass 
     602            0    99040 2.0500002e-10 
     610   0.05439496    99040 2.0500002e-10 
     620     0.120471    99040 2.0500002e-10 
     630   0.18650794    99040 2.0500002e-10 
     640   0.25262499    99040 2.0500002e-10 
     650   0.31858516    99040 2.0500002e-10 
     660   0.38522911    99040 2.0500002e-10 
     670   0.45258403    99040 2.0500002e-10 
     680   0.51994014    99040 2.0500002e-10 
     690     0.586936    99040 2.0500002e-10 
ssurf = 9.516929e-04 
     700   0.65377998    99040 2.0500002e-10 
     702   0.66696215    99040 2.0500002e-10 
Loop time of 0.667099 on 1 procs for 100 steps with 99040 atoms

99.5% CPU use with 1 MPI tasks x no OpenMP threads
run 100 pre no post no
Step CPU Atoms biomass 
     702            0    99040 2.0500002e-10 
     710  0.053794146    99040 2.0500002e-10 
     720   0.12143517    99040 2.0500002e-10 
     730   0.18855906    99040 2.0500002e-10 
     740   0.25612211    99040 2.0500002e-10 
     750   0.32474303    99040 2.0500002e-10 
     760   0.39288616    99040 2.0500002e-10 
     770    0.4593792    99040 2.0500002e-10 
     780   0.52692199    99040 2.0500002e-10 
     790   0.59530807    99040 2.0500002e-10 
ssurf = 9.516929e-04 
     800     0.663095    99040 2.0500002e-10 
     802   0.67681718    99040 2.0500002e-10 
Loop time of 0.67698 on 1 procs for 100 steps with 99040 atoms

99.9% CPU use with 1 MPI tasks x no OpenMP threads
run 100 pre no post no
Step CPU Atoms biomass 
     802            0    99040 2.0500002e-10 
     810  0.054497004    99040 2.0500002e-10 
     820   0.12394309    99040 2.0500002e-10 
     830   0.20277309    99040 2.0500002e-10 
     840   0.26976514    99040 2.0500002e-10 
     850   0.33966303    99040 2.0500002e-10 
     860   0.40785694    99040 2.0500002e-10 
     870   0.47958112    99040 2.0500002e-10 
     880   0.54983616    99040 2.0500002e-10 
     890   0.61746597    99040 2.0500002e-10 
ssurf = 9.516929e-04 
     900   0.68502903    99040 2.0500002e-10 
     902   0.69811511    99040 2.0500002e-10 
Loop time of 0.698292 on 1 procs for 100 steps with 99040 atoms

99.7% CPU use with 1 MPI tasks x no OpenMP threads
run 100 pre no post no
Step CPU Atoms biomass 
     902            0    99040 2.0500002e-10 
     910  0.053994894    99040 2.0500002e-10 
     920     0.130265    99040 2.0500002e-10 
     930   0.20771289    99040 2.0500002e-10 
     940   0.27793097    99040 2.0500002e-10 
     950   0.34350085    99040 2.0500002e-10 
     960   0.40957379    99040 2.0500002e-10 
     970   0.47669387    99040 2.0500002e-10 
     980   0.55447483    99040 2.0500002e-10 
     990   0.62924981    99040 2.0500002e-10 
ssurf = 9.516929e-04 
    1000   0.69636393    99040 2.0500002e-10 
    1002   0.70977402    99040 2.0500002e-10 
Loop time of 0.709921 on 1 procs for 100 steps with 99040 atoms

100.3% CPU use with 1 MPI tasks x no OpenMP threads
run 100 pre no post no
Step CPU Atoms biomass 
    1002            0    99040 2.0500002e-10 
    1010  0.054090977    99040 2.0500002e-10 
    1020   0.12567711    99040 2.0500002e-10 
    1030   0.19701314    99040 2.0500002e-10 
    1040   0.26677299    99040 2.0500002e-10 
    1050   0.33794904    99040 2.0500002e-10 
    1060   0.40632606    99040 2.0500002e-10 
    1070   0.47291708    99040 2.0500002e-10 
    1080   0.54117608    99040 2.0500002e-10 
    1090   0.61193013    99040 2.0500002e-10 
ssurf = 9.516929e-04 
    1100   0.68327212    99040 2.0500002e-10 
    1102    0.6984911    99040 2.0500002e-10 
Loop time of 0.698659 on 1 procs for 100 steps with 99040 atoms

99.6% CPU use with 1 MPI tasks x no OpenMP threads
run 100 pre no post no
Step CPU Atoms biomass 
    1102            0    99040 2.0500002e-10 
    1110  0.054029942    99040 2.0500002e-10 
    1120   0.12066197    99040 2.0500002e-10 
    1130   0.18704581    99040 2.0500002e-10 
    1140   0.25353479    99040 2.0500002e-10 
    1150     0.320158    99040 2.0500002e-10 
    1160   0.38685393    99040 2.0500002e-10 
    1170   0.45321393    99040 2.0500002e-10 
    1180   0.51987481    99040 2.0500002e-10 
    1190   0.58652186    99040 2.0500002e-10 
ssurf = 9.516929e-04 
    1200   0.66280293    99040 2.0500002e-10 
    1202   0.67764282    99040 2.0500002e-10 
Loop time of 0.678026 on 1 procs for 100 steps with 99040 atoms

99.7% CPU use with 1 MPI tasks x no OpenMP threads
run 100 pre no post no
Step CPU Atoms biomass 
    1202            0    99040 2.0500002e-10 
    1210  0.057621956    99040 2.0500002e-10 
    1220   0.12833905    99040 2.0500002e-10 
    1230   0.19858098    99040 2.0500002e-10 
    1240    0.2691021    99040 2.0500002e-10 
    1250   0.33871007    99040 2.0500002e-10 
    1260   0.40928102    99040 2.0500002e-10 
    1270   0.48074198    99040 2.0500002e-10 
    1280   0.55164194    99040 2.0500002e-10 
    1290   0.62284088    99040 2.0500002e-10 
ssurf = 9.516929e-04 
    1300   0.69392896    99040 2.0500002e-10 
    1302   0.70777011    99040 2.0500002e-10 
Loop time of 0.707923 on 1 procs for 100 steps with 99040 atoms

100.0% CPU use with 1 MPI tasks x no OpenMP threads
run 100 pre no post no
Step CPU Atoms biomass 
    1302            0    99040 2.0500002e-10 
    1310  0.058386803    99040 2.0500002e-10 
    1320   0.12947297    99040 2.0500002e-10 
    1330    0.1996429    99040 2.0500002e-10 
    1340   0.26952982    99040 2.0500002e-10 
    1350   0.34161091    99040 2.0500002e-10 
    1360    0.4114089    99040 2.0500002e-10 
    1370    0.4827199    99040 2.0500002e-10 
    1380   0.55451584    99040 2.0500002e-10 
    1390   0.62585092    99040 2.0500002e-10 
ssurf = 9.516929e-04 
    1400   0.69670796    99040 2.0500002e-10 
    1402   0.71032882    99040 2.0500002e-10 
Loop time of 0.710483 on 1 procs for 100 steps with 99040 atoms

100.2% CPU use with 1 MPI tasks x no OpenMP threads
run 100 pre no post no
Step CPU Atoms biomass 
    1402            0    99040 2.0500002e-10 
    1410  0.058084965    99040 2.0500002e-10 
    1420   0.12935996    99040 2.0500002e-10 
    1430    0.2024579    99040 2.0500002e-10 
    1440   0.27357388    99040 2.0500002e-10 
    1450   0.34422898    99040 2.0500002e-10 
    1460   0.41560793    99040 2.0500002e-10 
    1470   0.48650885    99040 2.0500002e-10 
    1480   0.55740094    99040 2.0500002e-10 
    1490   0.62750793    99040 2.0500002e-10 
ssurf = 9.516929e-04 
    1500   0.69799781    99040 2.0500002e-10 
    1502   0.71138692    99040 2.0500002e-10 
Loop time of 0.711523 on 1 procs for 100 steps with 99040 atoms

99.5% CPU use with 1 MPI tasks x no OpenMP threads
run 100 pre no post no
Step CPU Atoms biomass 
    1502            0    99040 2.0500002e-10 
    1510   0.05718708    99040 2.0500002e-10 
    1520   0.12755299    99040 2.0500002e-10 
    1530   0.19769406    99040 2.0500002e-10 
    1540   0.26800895    99040 2.0500002e-10 
    1550   0.33949494    99040 2.0500002e-10 
    1560   0.41081095    99040 2.0500002e-10 
    1570   0.48361301    99040 2.0500002e-10 
    1580   0.55295897    99040 2.0500002e-10 
    1590   0.62376809    99040 2.0500002e-10 
ssurf = 9.516929e-04 
    1600   0.69498014    99040 2.0500002e-10 
    1602   0.70858407    99040 2.0500002e-10 
Loop time of 0.708732 on 1 procs for 100 steps with 99040 atoms

99.9% CPU use with 1 MPI tasks x no OpenMP threads
run 100 pre no post no
Step CPU Atoms biomass 
    1602            0    99040 2.0500002e-10 
    1610   0.05777812    99040 2.0500002e-10 
    1620   0.12873602    99040 2.0500002e-10 
    1630   0.20034218    99040 2.0500002e-10 
    1640   0.27186918    99040 2.0500002e-10 
    1650     0.344347    99040 2.0500002e-10 
    1660   0.41338205    99040 2.0500002e-10 
    1670   0.48409104    99040 2.0500002e-10 
    1680   0.55421805    99040 2.0500002e-10 
    1690   0.62459421    99040 2.0500002e-10 
ssurf = 9.516929e-04 
    1700   0.69561315    99040 2.0500002e-10 
    1702   0.70904708    99040 2.0500002e-10 
Loop time of 0.709191 on 1 procs for 100 steps with 99040 atoms

99.8% CPU use with 1 MPI tasks x no OpenMP threads
run 100 pre no post no
Step CPU Atoms biomass 
    1702            0    99040 2.0500002e-10 
    1710  0.058309078    99040 2.0500002e-10 
    1720   0.12911415    99040 2.0500002e-10 
    1730   0.19909501    99040 2.0500002e-10 
    1740   0.26927614    99040 2.0500002e-10 
    1750   0.33932114    99040 2.0500002e-10 
    1760   0.40970302    99040 2.0500002e-10 
    1770   0.48059297    99040 2.0500002e-10 
    1780   0.55124211    99040 2.0500002e-10 
    1790   0.62171793    99040 2.0500002e-10 
ssurf = 9.516929e-04 
    1800   0.69210315    99040 2.0500002e-10 
    1802   0.70547295    99040 2.0500002e-10 
Loop time of 0.70561 on 1 procs for 100 steps with 99040 atoms

99.8% CPU use with 1 MPI tasks x no OpenMP threads
run 100 pre no post no
Step CPU Atoms biomass 
    1802            0    99040 2.0500002e-10 
    1810  0.056750059    99040 2.0500002e-10 
    1820   0.12947607    99040 2.0500002e-10 
    1830   0.19775009    99040 2.0500002e-10 
    1840    0.2680409    99040 2.0500002e-10 
    1850   0.33804393    99040 2.0500002e-10 
    1860   0.40860891    99040 2.0500002e-10 
    1870   0.47932911    99040 2.0500002e-10 
    1880   0.54998994    99040 2.0500002e-10 
    1890   0.62017798    99040 2.0500002e-10 
ssurf = 9.516929e-04 
    1900   0.69227791    99040 2.0500002e-10 
    1902    0.7059679    99040 2.0500002e-10 
Loop time of 0.706112 on 1 procs for 100 steps with 99040 atoms

100.3% CPU use with 1 MPI tasks x no OpenMP threads
run 100 pre no post no
Step CPU Atoms biomass 
    1902            0    99040 2.0500002e-10 
    1910  0.056381941    99040 2.0500002e-10 
    1920   0.12763596    99040 2.0500002e-10 
    1930   0.19829798    99040 2.0500002e-10 
    1940   0.26818395    99040 2.0500002e-10 
    1950   0.33865905    99040 2.0500002e-10 
    1960   0.40899587    99040 2.0500002e-10 
    1970   0.47956491    99040 2.0500002e-10 
    1980   0.54981208    99040 2.0500002e-10 
    1990   0.61763096    99040 2.0500002e-10 
ssurf = 9.516929e-04 
    2000   0.68712401    99040 2.0500002e-10 
    2002   0.70068002    99040 2.0500002e-10 
Loop time of 0.700816 on 1 procs for 100 steps with 99040 atoms

99.9% CPU use with 1 MPI tasks x no OpenMP threads
run 100 pre no post no
Step CPU Atoms biomass 
    2002            0    99040 2.0500002e-10 
    2010   0.05752492    99040 2.0500002e-10 
    2020   0.12830281    99040 2.0500002e-10 
    2030   0.19952703    99040 2.0500002e-10 
    2040   0.26771903    99040 2.0500002e-10 
    2050   0.33789587    99040 2.0500002e-10 
    2060   0.40837383    99040 2.0500002e-10 
    2070   0.47860193    99040 2.0500002e-10 
    2080   0.55167294    99040 2.0500002e-10 
    2090   0.62874699    99040 2.0500002e-10 
ssurf = 9.516929e-04 
    2100     0.701298    99040 2.0500002e-10 
    2102   0.71473384    99040 2.0500002e-10 
Loop time of 0.714878 on 1 procs for 100 steps with 99040 atoms

100.2% CPU use with 1 MPI tasks x no OpenMP threads
run 100 pre no post no
Step CPU Atoms biomass 
    2102            0    99040 2.0500002e-10 
    2110  0.057466984    99040 2.0500002e-10 
    2120   0.13050508    99040 2.0500002e-10 
    2130   0.19974494    99040 2.0500002e-10 
    2140   0.27040696    99040 2.0500002e-10 
    2150   0.34077716    99040 2.0500002e-10 
    2160   0.41117406    99040 2.0500002e-10 
    2170   0.48165202    99040 2.0500002e-10 
    2180   0.55164313    99040 2.0500002e-10 
    2190   0.62194204    99040 2.0500002e-10 
ssurf = 9.516929e-04 
    2200   0.69376016    99040 2.0500002e-10 
    2202   0.70836902    99040 2.0500002e-10 
Loop time of 0.708505 on 1 procs for 100 steps with 99040 atoms

99.9% CPU use with 1 MPI tasks x no OpenMP threads
run 100 pre no post no
Step CPU Atoms biomass 
    2202            0    99040 2.0500002e-10 
    2210  0.056512117    99040 2.0500002e-10 
    2220   0.12620306    99040 2.0500002e-10 
    2230   0.19641614    99040 2.0500002e-10 
    2240   0.26654696    99040 2.0500002e-10 
    2250   0.33673501    99040 2.0500002e-10 
    2260   0.40656805    99040 2.0500002e-10 
    2270   0.47615099    99040 2.0500002e-10 
    2280   0.54788113    99040 2.0500002e-10 
    2290   0.61650515    99040 2.0500002e-10 
ssurf = 9.516929e-04 
    2300   0.68625712    99040 2.0500002e-10 
    2302   0.69948101    99040 2.0500002e-10 
Loop time of 0.699614 on 1 procs for 100 steps with 99040 atoms

100.1% CPU use with 1 MPI tasks x no OpenMP threads
run 100 pre no post no
Step CPU Atoms biomass 
    2302            0    99040 2.0500002e-10 
    2310  0.056254148    99040 2.0500002e-10 
    2320   0.12628603    99040 2.0500002e-10 
    2330   0.19634914    99040 2.0500002e-10 
    2340   0.26631618    99040 2.0500002e-10 
    2350   0.33640909    99040 2.0500002e-10 
    2360   0.40620399    99040 2.0500002e-10 
    2370   0.47434998    99040 2.0500002e-10 
    2380   0.54497409    99040 2.0500002e-10 
    2390   0.61579895    99040 2.0500002e-10 
ssurf = 9.516929e-04 
    2400   0.68663812    99040 2.0500002e-10 
    2402   0.69997597    99040 2.0500002e-10 
Loop time of 0.700116 on 1 procs for 100 steps with 99040 atoms

100.0% CPU use with 1 MPI tasks x no OpenMP threads
run 100 pre no post no
Step CPU Atoms biomass 
    2402            0    99040 2.0500002e-10 
    2410  0.056154013    99040 2.0500002e-10 
    2420   0.12584901    99040 2.0500002e-10 
    2430   0.19521689    99040 2.0500002e-10 
    2440   0.26579189    99040 2.0500002e-10 
    2450   0.33641696    99040 2.0500002e-10 
    2460   0.40773201    99040 2.0500002e-10 
    2470    0.4782331    99040 2.0500002e-10 
    2480   0.54833007    99040 2.0500002e-10 
    2490    0.6178689    99040 2.0500002e-10 
ssurf = 9.516929e-04 
    2500   0.68806791    99040 2.0500002e-10 
    2502   0.70135403    99040 2.0500002e-10 
Loop time of 0.701494 on 1 procs for 100 steps with 99040 atoms

99.8% CPU use with 1 MPI tasks x no OpenMP threads
run 100 pre no post no
Step CPU Atoms biomass 
    2502            0    99040 2.0500002e-10 
    2510  0.058099031    99040 2.0500002e-10 
    2520   0.12856102    99040 2.0500002e-10 
    2530   0.19890499    99040 2.0500002e-10 
    2540   0.26780796    99040 2.0500002e-10 
    2550   0.33842611    99040 2.0500002e-10 
    2560   0.40939403    99040 2.0500002e-10 
    2570   0.47984314    99040 2.0500002e-10 
    2580   0.55023003    99040 2.0500002e-10 
    2590    0.6209631    99040 2.0500002e-10 
ssurf = 9.516929e-04 
    2600   0.69134116    99040 2.0500002e-10 
    2602   0.70491505    99040 2.0500002e-10 
Loop time of 0.705059 on 1 procs for 100 steps with 99040 atoms

99.8% CPU use with 1 MPI tasks x no OpenMP threads
run 100 pre no post no
Step CPU Atoms biomass 
    2602            0    99040 2.0500002e-10 
    2610  0.057430983    99040 2.0500002e-10 
    2620     0.129848    99040 2.0500002e-10 
    2630   0.19835186    99040 2.0500002e-10 
    2640   0.26900101    99040 2.0500002e-10 
    2650    0.3391459    99040 2.0500002e-10 
    2660   0.40924191    99040 2.0500002e-10 
    2670   0.47912693    99040 2.0500002e-10 
    2680   0.54893303    99040 2.0500002e-10 
    2690   0.61919093    99040 2.0500002e-10 
ssurf = 9.516929e-04 
    2700    0.6981039    99040 2.0500002e-10 
    2702   0.71200395    99040 2.0500002e-10 
Loop time of 0.712149 on 1 procs for 100 steps with 99040 atoms

100.0% CPU use with 1 MPI tasks x no OpenMP threads
run 100 pre no post no
Step CPU Atoms biomass 
    2702            0    99040 2.0500002e-10 
    2710  0.057773113    99040 2.0500002e-10 
    2720    0.1290319    99040 2.0500002e-10 
    2730   0.20018411    99040 2.0500002e-10 
    2740    0.2708509    99040 2.0500002e-10 
    2750   0.34191394    99040 2.0500002e-10 
    2760   0.41814399    99040 2.0500002e-10 
    2770   0.48856306    99040 2.0500002e-10 
    2780   0.55909801    99040 2.0500002e-10 
    2790   0.63024497    99040 2.0500002e-10 
ssurf = 9.516929e-04 
    2800   0.70174789    99040 2.0500002e-10 
    2802   0.71476603    99040 2.0500002e-10 
Loop time of 0.714904 on 1 procs for 100 steps with 99040 atoms

99.6% CPU use with 1 MPI tasks x no OpenMP threads
run 100 pre no post no
Step CPU Atoms biomass 
    2802            0    99040 2.0500002e-10 
    2810  0.057493925    99040 2.0500002e-10 
    2820   0.12770891    99040 2.0500002e-10 
    2830   0.19899392    99040 2.0500002e-10 
    2840   0.27021503    99040 2.0500002e-10 
    2850   0.34038901    99040 2.0500002e-10 
    2860    0.4109869    99040 2.0500002e-10 
    2870   0.48175693    99040 2.0500002e-10 
    2880   0.55280995    99040 2.0500002e-10 
    2890   0.62534189    99040 2.0500002e-10 
ssurf = 9.516929e-04 
    2900   0.69624281    99040 2.0500002e-10 
    2902   0.70980096    99040 2.0500002e-10 
Loop time of 0.709963 on 1 procs for 100 steps with 99040 atoms

99.7% CPU use with 1 MPI tasks x no OpenMP threads
run 100 pre no post no
Step CPU Atoms biomass 
    2902            0    99040 2.0500002e-10 
    2910  0.057257175    99040 2.0500002e-10 
    2920    0.1276381    99040 2.0500002e-10 
    2930   0.19820404    99040 2.0500002e-10 
    2940   0.26951408    99040 2.0500002e-10 
    2950   0.34021306    99040 2.0500002e-10 
    2960    0.4101541    99040 2.0500002e-10 
    2970   0.48194122    99040 2.0500002e-10 
    2980   0.54997706    99040 2.0500002e-10 
    2990   0.62011409    99040 2.0500002e-10 
ssurf = 9.516929e-04 
    3000   0.69211102    99040 2.0500002e-10 
    3002   0.70550609    99040 2.0500002e-10 
Loop time of 0.705641 on 1 procs for 100 steps with 99040 atoms

99.8% CPU use with 1 MPI tasks x no OpenMP threads
run 100 pre no post no
Step CPU Atoms biomass 
    3002            0    99040 2.0500002e-10 
    3010  0.057309151    99040 2.0500002e-10 
    3020    0.1277051    99040 2.0500002e-10 
    3030   0.19858217    99040 2.0500002e-10 
    3040   0.26855016    99040 2.0500002e-10 
    3050   0.33667898    99040 2.0500002e-10 
    3060   0.40795708    99040 2.0500002e-10 
    3070   0.47879815    99040 2.0500002e-10 
    3080   0.55028319    99040 2.0500002e-10 
    3090   0.62159419    99040 2.0500002e-10 
ssurf = 9.516929e-04 
    3100     0.692518    99040 2.0500002e-10 
    3102   0.70618916    99040 2.0500002e-10 
Loop time of 0.706334 on 1 procs for 100 steps with 99040 atoms

100.2% CPU use with 1 MPI tasks x no OpenMP threads
run 100 pre no post no
Step CPU Atoms biomass 
    3102            0    99040 2.0500002e-10 
    3110  0.057878971    99040 2.0500002e-10 
    3120   0.12875795    99040 2.0500002e-10 
    3130   0.20070386    99040 2.0500002e-10 
    3140   0.27128696    99040 2.0500002e-10 
    3150   0.34153891    99040 2.0500002e-10 
    3160   0.41174889    99040 2.0500002e-10 
    3170     0.482759    99040 2.0500002e-10 
    3180   0.55334997    99040 2.0500002e-10 
    3190   0.62441683    99040 2.0500002e-10 
ssurf = 9.516929e-04 
    3200   0.69551992    99040 2.0500002e-10 
    3202   0.70867586    99040 2.0500002e-10 
Loop time of 0.708808 on 1 procs for 100 steps with 99040 atoms

99.9% CPU use with 1 MPI tasks x no OpenMP threads
run 100 pre no post no
Step CPU Atoms biomass 
    3202            0    99040 2.0500002e-10 
    3210  0.057731867    99040 2.0500002e-10 
    3220   0.12930584    99040 2.0500002e-10 
    3230   0.20060086    99040 2.0500002e-10 
    3240   0.27197099    99040 2.0500002e-10 
    3250   0.34346795    99040 2.0500002e-10 
    3260   0.41270089    99040 2.0500002e-10 
    3270   0.48407197    99040 2.0500002e-10 
    3280   0.55495691    99040 2.0500002e-10 
    3290   0.62574196    99040 2.0500002e-10 
ssurf = 9.516929e-04 
    3300   0.69691277    99040 2.0500002e-10 
    3302   0.71039891    99040 2.0500002e-10 
Loop time of 0.710539 on 1 procs for 100 steps with 99040 atoms

100.2% CPU use with 1 MPI tasks x no OpenMP threads
run 100 pre no post no
Step CPU Atoms biomass 
    3302            0    99040 2.0500002e-10 
    3310  0.057890892    99040 2.0500002e-10 
    3320   0.12870598    99040 2.0500002e-10 
    3330   0.19971204    99040 2.0500002e-10 
    3340   0.27252483    99040 2.0500002e-10 
    3350   0.34069204    99040 2.0500002e-10 
    3360   0.41091204    99040 2.0500002e-10 
    3370   0.48148394    99040 2.0500002e-10 
    3380   0.55233502    99040 2.0500002e-10 
    3390   0.62263489    99040 2.0500002e-10 
ssurf = 9.516929e-04 
    3400   0.69324303    99040 2.0500002e-10 
    3402   0.70672083    99040 2.0500002e-10 
Loop time of 0.70686 on 1 procs for 100 steps with 99040 atoms

99.0% CPU use with 1 MPI tasks x no OpenMP threads
run 100 pre no post no
Step CPU Atoms biomass 
    3402            0    99040 2.0500002e-10 
    3410  0.057167053    99040 2.0500002e-10 
    3420   0.12773299    99040 2.0500002e-10 
    3430   0.20055604    99040 2.0500002e-10 
    3440   0.27001691    99040 2.0500002e-10 
    3450   0.34059286    99040 2.0500002e-10 
    3460   0.41089892    99040 2.0500002e-10 
    3470   0.48120689    99040 2.0500002e-10 
    3480   0.55161285    99040 2.0500002e-10 
    3490   0.62268186    99040 2.0500002e-10 
ssurf = 9.516929e-04 
    3500   0.69377494    99040 2.0500002e-10 
    3502   0.70743203    99040 2.0500002e-10 
Loop time of 0.707587 on 1 procs for 100 steps with 99040 atoms

99.5% CPU use with 1 MPI tasks x no OpenMP threads
run 100 pre no post no
Step CPU Atoms biomass 
    3502            0    99040 2.0500002e-10 
    3510  0.056379795    99040 2.0500002e-10 
    3520   0.12746882    99040 2.0500002e-10 
    3530   0.20000982    99040 2.0500002e-10 
    3540   0.26985693    99040 2.0500002e-10 
    3550   0.34117985    99040 2.0500002e-10 
    3560   0.41188288    99040 2.0500002e-10 
    3570   0.48241282    99040 2.0500002e-10 
    3580   0.55323291    99040 2.0500002e-10 
    3590     0.624717    99040 2.0500002e-10 
ssurf = 9.516929e-04 
    3600   0.69422579    99040 2.0500002e-10 
    3602   0.70739079    99040 2.0500002e-10 
Loop time of 0.707529 on 1 procs for 100 steps with 99040 atoms

100.1% CPU use with 1 MPI tasks x no OpenMP threads
run 100 pre no post no
Step CPU Atoms biomass 
    3602            0    99040 2.0500002e-10 
    3610  0.059305191    99040 2.0500002e-10 
    3620   0.12921405    99040 2.0500002e-10 
    3630   0.20003605    99040 2.0500002e-10 
    3640    0.2701962    99040 2.0500002e-10 
    3650   0.33972621    99040 2.0500002e-10 
    3660   0.41067719    99040 2.0500002e-10 
    3670   0.48168111    99040 2.0500002e-10 
    3680   0.55276299    99040 2.0500002e-10 
    3690   0.62292504    99040 2.0500002e-10 
ssurf = 9.516929e-04 
    3700   0.69303608    99040 2.0500002e-10 
    3702     0.706779    99040 2.0500002e-10 
Loop time of 0.706928 on 1 procs for 100 steps with 99040 atoms

100.2% CPU use with 1 MPI tasks x no OpenMP threads
run 100 pre no post no
Step CPU Atoms biomass 
    3702            0    99040 2.0500002e-10 
    3710    0.0577209    99040 2.0500002e-10 
    3720   0.13038707    99040 2.0500002e-10 
    3730   0.20261097    99040 2.0500002e-10 
    3740   0.27396894    99040 2.0500002e-10 
    3750   0.34474301    99040 2.0500002e-10 
    3760   0.41575694    99040 2.0500002e-10 
    3770   0.48713684    99040 2.0500002e-10 
    3780   0.55716991    99040 2.0500002e-10 
    3790   0.62848687    99040 2.0500002e-10 
ssurf = 9.516929e-04 
    3800   0.70024085    99040 2.0500002e-10 
    3802   0.71415901    99040 2.0500002e-10 
Loop time of 0.714306 on 1 procs for 100 steps with 99040 atoms

99.7% CPU use with 1 MPI tasks x no OpenMP threads
run 100 pre no post no
Step CPU Atoms biomass 
    3802            0    99040 2.0500002e-10 
    3810  0.057725906    99040 2.0500002e-10 
    3820   0.13031197    99040 2.0500002e-10 
    3830   0.20116687    99040 2.0500002e-10 
    3840   0.27213788    99040 2.0500002e-10 
    3850    0.3429749    99040 2.0500002e-10 
    3860   0.41348505    99040 2.0500002e-10 
    3870     0.484797    99040 2.0500002e-10 
    3880   0.55553889    99040 2.0500002e-10 
    3890   0.62561893    99040 2.0500002e-10 
ssurf = 9.516929e-04 
    3900   0.69592094    99040 2.0500002e-10 
    3902   0.70910001    99040 2.0500002e-10 
Loop time of 0.709241 on 1 procs for 100 steps with 99040 atoms

100.4% CPU use with 1 MPI tasks x no OpenMP threads
run 100 pre no post no
Step CPU Atoms biomass 
    3902            0    99040 2.0500002e-10 
    3910  0.057666063    99040 2.0500002e-10 
    3920   0.12849212    99040 2.0500002e-10 
    3930   0.19901514    99040 2.0500002e-10 
    3940   0.26915407    99040 2.0500002e-10 
    3950   0.33896017    99040 2.0500002e-10 
    3960   0.40911698    99040 2.0500002e-10 
    3970   0.47965813    99040 2.0500002e-10 
    3980   0.54994416    99040 2.0500002e-10 
    3990   0.62010813    99040 2.0500002e-10 
ssurf = 9.516929e-04 
    4000   0.69077897    99040 2.0500002e-10 
    4002   0.70433617    99040 2.0500002e-10 
Loop time of 0.704491 on 1 procs for 100 steps with 99040 atoms

99.9% CPU use with 1 MPI tasks x no OpenMP threads
run 100 pre no post no
Step CPU Atoms biomass 
    4002            0    99040 2.0500002e-10 
    4010  0.057701826    99040 2.0500002e-10 
    4020   0.12931299    99040 2.0500002e-10 
    4030   0.20014405    99040 2.0500002e-10 
    4040   0.27105689    99040 2.0500002e-10 
    4050   0.34100294    99040 2.0500002e-10 
    4060   0.41171789    99040 2.0500002e-10 
    4070   0.48304892    99040 2.0500002e-10 
    4080   0.55443788    99040 2.0500002e-10 
    4090   0.62767601    99040 2.0500002e-10 
ssurf = 9.516929e-04 
    4100   0.69749689    99040 2.0500002e-10 
    4102   0.71101785    99040 2.0500002e-10 
Loop time of 0.711164 on 1 procs for 100 steps with 99040 atoms

100.1% CPU use with 1 MPI tasks x no OpenMP threads
run 100 pre no post no
Step CPU Atoms biomass 
    4102            0    99040 2.0500002e-10 
    4110   0.05655694    99040 2.0500002e-10 
    4120   0.12717795    99040 2.0500002e-10 
    4130   0.19838095    99040 2.0500002e-10 
    4140   0.26914501    99040 2.0500002e-10 
    4150   0.33964396    99040 2.0500002e-10 
    4160   0.41004682    99040 2.0500002e-10 
    4170   0.48075485    99040 2.0500002e-10 
    4180   0.54921079    99040 2.0500002e-10 
    4190     0.619488    99040 2.0500002e-10 
ssurf = 9.516929e-04 
    4200     0.689996    99040 2.0500002e-10 
    4202   0.70348787    99040 2.0500002e-10 
Loop time of 0.703626 on 1 procs for 100 steps with 99040 atoms

100.1% CPU use with 1 MPI tasks x no OpenMP threads
run 100 pre no post no
Step CPU Atoms biomass 
    4202            0    99040 2.0500002e-10 
    4210  0.059157848    99040 2.0500002e-10 
    4220   0.13094592    99040 2.0500002e-10 
    4230   0.20275402    99040 2.0500002e-10 
    4240    0.2729938    99040 2.0500002e-10 
    4250   0.34328389    99040 2.0500002e-10 
    4260   0.41479087    99040 2.0500002e-10 
    4270   0.48386502    99040 2.0500002e-10 
    4280    0.5549109    99040 2.0500002e-10 
    4290   0.62658286    99040 2.0500002e-10 
ssurf = 9.516929e-04 
    4300   0.69827485    99040 2.0500002e-10 
    4302   0.71191788    99040 2.0500002e-10 
Loop time of 0.712064 on 1 procs for 100 steps with 99040 atoms

100.0% CPU use with 1 MPI tasks x no OpenMP threads
run 100 pre no post no
Step CPU Atoms biomass 
    4302            0    99040 2.0500002e-10 
    4310  0.056696177    99040 2.0500002e-10 
    4320   0.12751102    99040 2.0500002e-10 
    4330   0.19776917    99040 2.0500002e-10 
    4340   0.26797318    99040 2.0500002e-10 
    4350   0.33840919    99040 2.0500002e-10 
    4360   0.40896416    99040 2.0500002e-10 
    4370   0.47931504    99040 2.0500002e-10 
    4380   0.55045819    99040 2.0500002e-10 
    4390   0.62141109    99040 2.0500002e-10 
ssurf = 9.516929e-04 
    4400     0.695755    99040 2.0500002e-10 
    4402   0.70943117    99040 2.0500002e-10 
Loop time of 0.709576 on 1 procs for 100 steps with 99040 atoms

100.3% CPU use with 1 MPI tasks x no OpenMP threads
run 100 pre no post no
Step CPU Atoms biomass 
    4402            0    99040 2.0500002e-10 
    4410  0.057085991    99040 2.0500002e-10 
    4420   0.12780714    99040 2.0500002e-10 
    4430   0.19826102    99040 2.0500002e-10 
    4440   0.26971912    99040 2.0500002e-10 
    4450     0.343014    99040 2.0500002e-10 
    4460   0.41468596    99040 2.0500002e-10 
    4470   0.48459506    99040 2.0500002e-10 
    4480   0.55502701    99040 2.0500002e-10 
    4490   0.62506294    99040 2.0500002e-10 
ssurf = 9.516929e-04 
    4500   0.69701505    99040 2.0500002e-10 
    4502   0.71080399    99040 2.0500002e-10 
Loop time of 0.710951 on 1 procs for 100 steps with 99040 atoms

100.1% CPU use with 1 MPI tasks x no OpenMP threads
run 100 pre no post no
Step CPU Atoms biomass 
    4502            0    99040 2.0500002e-10 
    4510   0.05686307    99040 2.0500002e-10 
    4520   0.12758398    99040 2.0500002e-10 
    4530   0.20023513    99040 2.0500002e-10 
    4540   0.26963615    99040 2.0500002e-10 
    4550   0.34044504    99040 2.0500002e-10 
    4560     0.411026    99040 2.0500002e-10 
    4570   0.48154402    99040 2.0500002e-10 
    4580   0.55178499    99040 2.0500002e-10 
    4590   0.62214303    99040 2.0500002e-10 
ssurf = 9.516929e-04 
    4600   0.69321203    99040 2.0500002e-10 
    4602   0.70673013    99040 2.0500002e-10 
Loop time of 0.706866 on 1 procs for 100 steps with 99040 atoms

100.2% CPU use with 1 MPI tasks x no OpenMP threads
run 100 pre no post no
Step CPU Atoms biomass 
    4602            0    99040 2.0500002e-10 
    4610  0.056973934    99040 2.0500002e-10 
    4620   0.12789512    99040 2.0500002e-10 
    4630    0.1995821    99040 2.0500002e-10 
    4640   0.27005291    99040 2.0500002e-10 
    4650   0.34059095    99040 2.0500002e-10 
    4660   0.41121292    99040 2.0500002e-10 
    4670   0.48256612    99040 2.0500002e-10 
    4680   0.55320907    99040 2.0500002e-10 
    4690    0.6241641    99040 2.0500002e-10 
ssurf = 9.516929e-04 
    4700   0.69535804    99040 2.0500002e-10 
    4702   0.70902109    99040 2.0500002e-10 
Loop time of 0.709185 on 1 procs for 100 steps with 99040 atoms

99.8% CPU use with 1 MPI tasks x no OpenMP threads
run 100 pre no post no
Step CPU Atoms biomass 
    4702            0    99040 2.0500002e-10 
    4710  0.057961941    99040 2.0500002e-10 
    4720   0.12875509    99040 2.0500002e-10 
    4730   0.20032597    99040 2.0500002e-10 
    4740   0.27171397    99040 2.0500002e-10 
    4750   0.34251404    99040 2.0500002e-10 
    4760   0.41294813    99040 2.0500002e-10 
    4770   0.48290992    99040 2.0500002e-10 
    4780   0.55332899    99040 2.0500002e-10 
    4790   0.62309408    99040 2.0500002e-10 
ssurf = 9.516929e-04 
    4800   0.69275308    99040 2.0500002e-10 
    4802   0.70612407    99040 2.0500002e-10 
Loop time of 0.706264 on 1 procs for 100 steps with 99040 atoms

99.7% CPU use with 1 MPI tasks x no OpenMP threads
run 100 pre no post no
Step CPU Atoms biomass 
    4802            0    99040 2.0500002e-10 
    4810  0.058617115    99040 2.0500002e-10 
    4820   0.12916493    99040 2.0500002e-10 
    4830   0.19984508    99040 2.0500002e-10 
    4840   0.27078891    99040 2.0500002e-10 
    4850    0.3416431    99040 2.0500002e-10 
    4860   0.41207504    99040 2.0500002e-10 
    4870   0.48254299    99040 2.0500002e-10 
    4880   0.55335093    99040 2.0500002e-10 
    4890   0.62355494    99040 2.0500002e-10 
ssurf = 9.516929e-04 
    4900   0.69496393    99040 2.0500002e-10 
    4902   0.70879006    99040 2.0500002e-10 
Loop time of 0.708942 on 1 procs for 100 steps with 99040 atoms

99.9% CPU use with 1 MPI tasks x no OpenMP threads
run 100 pre no post no
Step CPU Atoms biomass 
    4902            0    99040 2.0500002e-10 
    4910  0.057938099    99040 2.0500002e-10 
    4920   0.12912798    99040 2.0500002e-10 
    4930   0.20006394    99040 2.0500002e-10 
    4940   0.26971698    99040 2.0500002e-10 
    4950   0.34066916    99040 2.0500002e-10 
    4960    0.4112761    99040 2.0500002e-10 
    4970   0.48171902    99040 2.0500002e-10 
    4980   0.55195713    99040 2.0500002e-10 
    4990    0.6222291    99040 2.0500002e-10 
ssurf = 9.516929e-04 
    5000   0.69316006    99040 2.0500002e-10 
    5002    0.7063911    99040 2.0500002e-10 
Loop time of 0.706528 on 1 procs for 100 steps with 99040 atoms

100.2% CPU use with 1 MPI tasks x no OpenMP threads
run 100 pre no post no
Step CPU Atoms biomass 
    5002            0    99040 2.0500002e-10 
    5010   0.05725193    99040 2.0500002e-10 
    5020   0.12913299    99040 2.0500002e-10 
    5030   0.19805694    99040 2.0500002e-10 
    5040   0.26854801    99040 2.0500002e-10 
    5050   0.33906198    99040 2.0500002e-10 
    5060    0.4096818    99040 2.0500002e-10 
    5070   0.47995591    99040 2.0500002e-10 
    5080     0.550493    99040 2.0500002e-10 
    5090   0.62101388    99040 2.0500002e-10 
ssurf = 9.516929e-04 
    5100   0.69168687    99040 2.0500002e-10 
    5102   0.70538402    99040 2.0500002e-10 
Loop time of 0.705524 on 1 procs for 100 steps with 99040 atoms

99.8% CPU use with 1 MPI tasks x no OpenMP threads
run 100 pre no post no
Step CPU Atoms biomass 
    5102            0    99040 2.0500002e-10 
    5110  0.058417797    99040 2.0500002e-10 
    5120    0.1274128    99040 2.0500002e-10 
    5130     0.198174    99040 2.0500002e-10 
    5140   0.26907682    99040 2.0500002e-10 
    5150   0.33943796    99040 2.0500002e-10 
    5160   0.43114185    99040 2.0500002e-10 
    5170   0.52397895    99040 2.0500002e-10 
    5180   0.59515691    99040 2.0500002e-10 
    5190    0.6680088    99040 2.0500002e-10 
ssurf = 9.516929e-04 
    5200   0.73629284    99040 2.0500002e-10 
    5202   0.74980283    99040 2.0500002e-10 
Loop time of 0.749944 on 1 procs for 100 steps with 99040 atoms

100.3% CPU use with 1 MPI tasks x no OpenMP threads
run 100 pre no post no
Step CPU Atoms biomass 
    5202            0    99040 2.0500002e-10 
    5210  0.057677984    99040 2.0500002e-10 
    5220   0.12838006    99040 2.0500002e-10 
    5230   0.19810414    99040 2.0500002e-10 
    5240   0.26844001    99040 2.0500002e-10 
    5250   0.34099698    99040 2.0500002e-10 
    5260   0.41184402    99040 2.0500002e-10 
    5270   0.48216796    99040 2.0500002e-10 
    5280   0.55289602    99040 2.0500002e-10 
    5290   0.62361097    99040 2.0500002e-10 
ssurf = 9.516929e-04 
    5300   0.69326115    99040 2.0500002e-10 
    5302   0.70653415    99040 2.0500002e-10 
Loop time of 0.706672 on 1 procs for 100 steps with 99040 atoms

100.2% CPU use with 1 MPI tasks x no OpenMP threads
run 100 pre no post no
Step CPU Atoms biomass 
    5302            0    99040 2.0500002e-10 
    5310  0.058247089    99040 2.0500002e-10 
    5320   0.12929511    99040 2.0500002e-10 
    5330     0.199965    99040 2.0500002e-10 
    5340   0.27043796    99040 2.0500002e-10 
    5350   0.34079409    99040 2.0500002e-10 
    5360   0.41252208    99040 2.0500002e-10 
    5370   0.48249412    99040 2.0500002e-10 
    5380   0.55196595    99040 2.0500002e-10 
    5390   0.62206006    99040 2.0500002e-10 
ssurf = 9.516929e-04 
    5400   0.69305706    99040 2.0500002e-10 
    5402   0.70673108    99040 2.0500002e-10 
Loop time of 0.706871 on 1 procs for 100 steps with 99040 atoms

99.6% CPU use with 1 MPI tasks x no OpenMP threads
run 100 pre no post no
Step CPU Atoms biomass 
    5402            0    99040 2.0500002e-10 
    5410  0.058506966    99040 2.0500002e-10 
    5420   0.12962103    99040 2.0500002e-10 
    5430   0.19983506    99040 2.0500002e-10 
    5440   0.27157593    99040 2.0500002e-10 
    5450   0.34032893    99040 2.0500002e-10 
    5460   0.41044593    99040 2.0500002e-10 
    5470   0.48121595    99040 2.0500002e-10 
    5480    0.5521419    99040 2.0500002e-10 
    5490   0.62349391    99040 2.0500002e-10 
ssurf = 9.516929e-04 
    5500   0.69443202    99040 2.0500002e-10 
    5502   0.70809889    99040 2.0500002e-10 
Loop time of 0.708248 on 1 procs for 100 steps with 99040 atoms

100.0% CPU use with 1 MPI tasks x no OpenMP threads
run 100 pre no post no
Step CPU Atoms biomass 
    5502            0    99040 2.0500002e-10 
    5510  0.058007956    99040 2.0500002e-10 
    5520   0.12859988    99040 2.0500002e-10 
    5530   0.20116496    99040 2.0500002e-10 
    5540     0.270401    99040 2.0500002e-10 
    5550   0.34100986    99040 2.0500002e-10 
    5560   0.41134191    99040 2.0500002e-10 
    5570   0.48168302    99040 2.0500002e-10 
    5580   0.55247998    99040 2.0500002e-10 
    5590   0.62358499    99040 2.0500002e-10 
ssurf = 9.516929e-04 
    5600     0.694381    99040 2.0500002e-10 
    5602   0.70785284    99040 2.0500002e-10 
Loop time of 0.707987 on 1 procs for 100 steps with 99040 atoms

100.0% CPU use with 1 MPI tasks x no OpenMP threads
run 100 pre no post no
Step CPU Atoms biomass 
    5602            0    99040 2.0500002e-10 
    5610  0.057142973    99040 2.0500002e-10 
    5620   0.12807298    99040 2.0500002e-10 
    5630   0.19738579    99040 2.0500002e-10 
    5640   0.26844788    99040 2.0500002e-10 
    5650    0.3386488    99040 2.0500002e-10 
    5660   0.40868187    99040 2.0500002e-10 
    5670    0.4791398    99040 2.0500002e-10 
    5680   0.54884791    99040 2.0500002e-10 
    5690   0.61941695    99040 2.0500002e-10 
ssurf = 9.516929e-04 
    5700   0.69040585    99040 2.0500002e-10 
    5702   0.70398378    99040 2.0500002e-10 
Loop time of 0.704125 on 1 procs for 100 steps with 99040 atoms

100.0% CPU use with 1 MPI tasks x no OpenMP threads
run 100 pre no post no
Step CPU Atoms biomass 
    5702            0    99040 2.0500002e-10 
    5710  0.056272984    99040 2.0500002e-10 
    5720   0.12699294    99040 2.0500002e-10 
    5730   0.19715095    99040 2.0500002e-10 
    5740   0.26830387    99040 2.0500002e-10 
    5750   0.33934999    99040 2.0500002e-10 
    5760   0.41239882    99040 2.0500002e-10 
    5770     0.481776    99040 2.0500002e-10 
    5780   0.55304289    99040 2.0500002e-10 
    5790   0.62381792    99040 2.0500002e-10 
ssurf = 9.516929e-04 
    5800   0.69454694    99040 2.0500002e-10 
    5802   0.70797682    99040 2.0500002e-10 
Loop time of 0.708114 on 1 procs for 100 steps with 99040 atoms

100.0% CPU use with 1 MPI tasks x no OpenMP threads
run 100 pre no post no
Step CPU Atoms biomass 
    5802            0    99040 2.0500002e-10 
    5810  0.056875944    99040 2.0500002e-10 
    5820   0.12840104    99040 2.0500002e-10 
    5830   0.19961309    99040 2.0500002e-10 
    5840   0.27010298    99040 2.0500002e-10 
    5850   0.34088206    99040 2.0500002e-10 
    5860   0.45478892    99040 2.0500002e-10 
    5870   0.52559209    99040 2.0500002e-10 
    5880   0.59628391    99040 2.0500002e-10 
    5890   0.66704893    99040 2.0500002e-10 
ssurf = 9.516929e-04 
    5900   0.73860097    99040 2.0500002e-10 
    5902   0.75212789    99040 2.0500002e-10 
Loop time of 0.752268 on 1 procs for 100 steps with 99040 atoms

100.0% CPU use with 1 MPI tasks x no OpenMP threads
run 100 pre no post no
Step CPU Atoms biomass 
    5902            0    99040 2.0500002e-10 
    5910  0.056584835    99040 2.0500002e-10 
    5920   0.12710094    99040 2.0500002e-10 
    5930   0.19794583    99040 2.0500002e-10 
    5940   0.26612496    99040 2.0500002e-10 
    5950   0.33647299    99040 2.0500002e-10 
    5960   0.40732098    99040 2.0500002e-10 
    5970   0.47862983    99040 2.0500002e-10 
    5980   0.55062079    99040 2.0500002e-10 
    5990   0.62168503    99040 2.0500002e-10 
ssurf = 9.516929e-04 
    6000   0.69316101    99040 2.0500002e-10 
    6002   0.70638585    99040 2.0500002e-10 
Loop time of 0.706517 on 1 procs for 100 steps with 99040 atoms

99.6% CPU use with 1 MPI tasks x no OpenMP threads
run 100 pre no post no
Step CPU Atoms biomass 
    6002            0    99040 2.0500002e-10 
    6010  0.057571888    99040 2.0500002e-10 
    6020   0.12857509    99040 2.0500002e-10 
    6030   0.19791698    99040 2.0500002e-10 
    6040   0.27010298    99040 2.0500002e-10 
    6050   0.34177089    99040 2.0500002e-10 
    6060   0.41324902    99040 2.0500002e-10 
    6070   0.48526597    99040 2.0500002e-10 
    6080     0.556391    99040 2.0500002e-10 
    6090   0.62873602    99040 2.0500002e-10 
ssurf = 9.516929e-04 
    6100   0.70054507    99040 2.0500002e-10 
    6102   0.71443486    99040 2.0500002e-10 
Loop time of 0.714582 on 1 procs for 100 steps with 99040 atoms

100.2% CPU use with 1 MPI tasks x no OpenMP threads
run 100 pre no post no
Step CPU Atoms biomass 
    6102            0    99040 2.0500002e-10 
    6110  0.057469845    99040 2.0500002e-10 
    6120   0.12746501    99040 2.0500002e-10 
    6130     0.197227    99040 2.0500002e-10 
    6140   0.26739597    99040 2.0500002e-10 
    6150   0.33712101    99040 2.0500002e-10 
    6160   0.40787792    99040 2.0500002e-10 
    6170   0.47832298    99040 2.0500002e-10 
    6180   0.54879284    99040 2.0500002e-10 
    6190     0.619591    99040 2.0500002e-10 
ssurf = 9.516929e-04 
    6200   0.69216585    99040 2.0500002e-10 
    6202     0.705441    99040 2.0500002e-10 
Loop time of 0.705581 on 1 procs for 100 steps with 99040 atoms

99.8% CPU use with 1 MPI tasks x no OpenMP threads
run 100 pre no post no
Step CPU Atoms biomass 
    6202            0    99040 2.0500002e-10 
    6210  0.056514025    99040 2.0500002e-10 
    6220   0.12677288    99040 2.0500002e-10 
    6230   0.19710588    99040 2.0500002e-10 
    6240   0.26708484    99040 2.0500002e-10 
    6250     0.337919    99040 2.0500002e-10 
    6260   0.40846205    99040 2.0500002e-10 
    6270   0.48006582    99040 2.0500002e-10 
    6280     0.548738    99040 2.0500002e-10 
    6290   0.61940193    99040 2.0500002e-10 
ssurf = 9.516929e-04 
    6300   0.68935299    99040 2.0500002e-10 
    6302   0.70293498    99040 2.0500002e-10 
Loop time of 0.703099 on 1 procs for 100 steps with 99040 atoms

99.6% CPU use with 1 MPI tasks x no OpenMP threads
run 100 pre no post no
Step CPU Atoms biomass 
    6302            0    99040 2.0500002e-10 
    6310  0.057449102    99040 2.0500002e-10 
    6320   0.12711811    99040 2.0500002e-10 
    6330   0.19704819    99040 2.0500002e-10 
    6340   0.26771212    99040 2.0500002e-10 
    6350   0.33857203    99040 2.0500002e-10 
    6360   0.40929508    99040 2.0500002e-10 
    6370   0.48654509    99040 2.0500002e-10 
    6380    0.5574491    99040 2.0500002e-10 
    6390   0.62812018    99040 2.0500002e-10 
ssurf = 9.516929e-04 
    6400   0.69843006    99040 2.0500002e-10 
    6402   0.71193504    99040 2.0500002e-10 
Loop time of 0.712075 on 1 procs for 100 steps with 99040 atoms

100.0% CPU use with 1 MPI tasks x no OpenMP threads
run 100 pre no post no
Step CPU Atoms biomass 
    6402            0    99040 2.0500002e-10 
    6410  0.056674957    99040 2.0500002e-10 
    6420   0.12781787    99040 2.0500002e-10 
    6430   0.19900393    99040 2.0500002e-10 
    6440   0.27803397    99040 2.0500002e-10 
    6450   0.34985185    99040 2.0500002e-10 
    6460   0.42023897    99040 2.0500002e-10 
    6470    0.4885869    99040 2.0500002e-10 
    6480   0.55878186    99040 2.0500002e-10 
    6490   0.62930179    99040 2.0500002e-10 
ssurf = 9.516929e-04 
    6500   0.69973183    99040 2.0500002e-10 
    6502     0.713413    99040 2.0500002e-10 
Loop time of 0.713577 on 1 procs for 100 steps with 99040 atoms

99.8% CPU use with 1 MPI tasks x no OpenMP threads
run 100 pre no post no
Step CPU Atoms biomass 
    6502            0    99040 2.0500002e-10 
    6510  0.058056116    99040 2.0500002e-10 
    6520   0.12878513    99040 2.0500002e-10 
    6530   0.20027113    99040 2.0500002e-10 
    6540   0.27154708    99040 2.0500002e-10 
    6550   0.34263921    99040 2.0500002e-10 
    6560   0.41507816    99040 2.0500002e-10 
    6570   0.48335719    99040 2.0500002e-10 
    6580   0.55373406    99040 2.0500002e-10 
    6590   0.62420511    99040 2.0500002e-10 
ssurf = 9.516929e-04 
    6600   0.69499612    99040 2.0500002e-10 
    6602   0.70844102    99040 2.0500002e-10 
Loop time of 0.708579 on 1 procs for 100 steps with 99040 atoms

99.9% CPU use with 1 MPI tasks x no OpenMP threads
run 100 pre no post no
Step CPU Atoms biomass 
    6602            0    99040 2.0500002e-10 
    6610  0.056186914    99040 2.0500002e-10 
    6620   0.12704396    99040 2.0500002e-10 
    6630   0.19758487    99040 2.0500002e-10 
    6640   0.26817799    99040 2.0500002e-10 
    6650   0.33951402    99040 2.0500002e-10 
    6660   0.40805006    99040 2.0500002e-10 
    6670   0.47911286    99040 2.0500002e-10 
    6680   0.55109191    99040 2.0500002e-10 
    6690    0.6219399    99040 2.0500002e-10 
ssurf = 9.516929e-04 
    6700   0.69313502    99040 2.0500002e-10 
    6702   0.70683193    99040 2.0500002e-10 
Loop time of 0.706978 on 1 procs for 100 steps with 99040 atoms

100.1% CPU use with 1 MPI tasks x no OpenMP threads
run 100 pre no post no
Step CPU Atoms biomass 
    6702            0    99040 2.0500002e-10 
    6710  0.057157993    99040 2.0500002e-10 
    6720   0.13097882    99040 2.0500002e-10 
    6730   0.20254993    99040 2.0500002e-10 
    6740   0.27300501    99040 2.0500002e-10 
    6750   0.34360099    99040 2.0500002e-10 
    6760    0.4160738    99040 2.0500002e-10 
    6770   0.48452687    99040 2.0500002e-10 
    6780   0.55510283    99040 2.0500002e-10 
    6790   0.62564301    99040 2.0500002e-10 
ssurf = 9.516929e-04 
    6800   0.69640493    99040 2.0500002e-10 
    6802   0.70983982    99040 2.0500002e-10 
Loop time of 0.709984 on 1 procs for 100 steps with 99040 atoms

99.7% CPU use with 1 MPI tasks x no OpenMP threads
run 100 pre no post no
Step CPU Atoms biomass 
    6802            0    99040 2.0500002e-10 
    6810  0.056528091    99040 2.0500002e-10 
    6820   0.12714505    99040 2.0500002e-10 
    6830   0.19758201    99040 2.0500002e-10 
    6840   0.26853991    99040 2.0500002e-10 
    6850   0.34203196    99040 2.0500002e-10 
    6860   0.41095591    99040 2.0500002e-10 
    6870   0.48154593    99040 2.0500002e-10 
    6880   0.55194497    99040 2.0500002e-10 
    6890   0.62264395    99040 2.0500002e-10 
ssurf = 9.516929e-04 
    6900   0.69342804    99040 2.0500002e-10 
    6902     0.706954    99040 2.0500002e-10 
Loop time of 0.707109 on 1 procs for 100 steps with 99040 atoms

100.1% CPU use with 1 MPI tasks x no OpenMP threads
run 100 pre no post no
Step CPU Atoms biomass 
    6902            0    99040 2.0500002e-10 
    6910  0.057069063    99040 2.0500002e-10 
    6920   0.12649322    99040 2.0500002e-10 
    6930   0.19623518    99040 2.0500002e-10 
    6940   0.26725411    99040 2.0500002e-10 
    6950     0.337852    99040 2.0500002e-10 
    6960   0.40789413    99040 2.0500002e-10 
    6970   0.47817421    99040 2.0500002e-10 
    6980   0.54860115    99040 2.0500002e-10 
    6990   0.61848617    99040 2.0500002e-10 
ssurf = 9.516929e-04 
    7000   0.68832612    99040 2.0500002e-10 
    7002   0.70165706    99040 2.0500002e-10 
Loop time of 0.701793 on 1 procs for 100 steps with 99040 atoms

100.3% CPU use with 1 MPI tasks x no OpenMP threads
run 100 pre no post no
Step CPU Atoms biomass 
    7002            0    99040 2.0500002e-10 
    7010  0.057424068    99040 2.0500002e-10 
    7020    0.1282661    99040 2.0500002e-10 
    7030   0.19849396    99040 2.0500002e-10 
    7040   0.26901913    99040 2.0500002e-10 
    7050   0.33961511    99040 2.0500002e-10 
    7060   0.41022396    99040 2.0500002e-10 
    7070   0.48058605    99040 2.0500002e-10 
    7080   0.55139208    99040 2.0500002e-10 
    7090   0.62177706    99040 2.0500002e-10 
ssurf = 9.516929e-04 
    7100   0.69224811    99040 2.0500002e-10 
    7102   0.70567012    99040 2.0500002e-10 
Loop time of 0.705807 on 1 procs for 100 steps with 99040 atoms

100.3% CPU use with 1 MPI tasks x no OpenMP threads
run 100 pre no post no
Step CPU Atoms biomass 
    7102            0    99040 2.0500002e-10 
    7110  0.057527781    99040 2.0500002e-10 
    7120   0.12773395    99040 2.0500002e-10 
    7130   0.20006895    99040 2.0500002e-10 
    7140     0.268543    99040 2.0500002e-10 
    7150   0.33888793    99040 2.0500002e-10 
    7160   0.40951681    99040 2.0500002e-10 
    7170   0.47992587    99040 2.0500002e-10 
    7180    0.5501678    99040 2.0500002e-10 
    7190   0.62054086    99040 2.0500002e-10 
ssurf = 9.516929e-04 
    7200   0.69107294    99040 2.0500002e-10 
    7202   0.70471501    99040 2.0500002e-10 
Loop time of 0.704851 on 1 procs for 100 steps with 99040 atoms

99.9% CPU use with 1 MPI tasks x no OpenMP threads
run 100 pre no post no
Step CPU Atoms biomass 
    7202            0    99040 2.0500002e-10 
    7210  0.056494951    99040 2.0500002e-10 
    7220   0.12732315    99040 2.0500002e-10 
    7230   0.19849801    99040 2.0500002e-10 
    7240   0.26907992    99040 2.0500002e-10 
    7250   0.33995605    99040 2.0500002e-10 
    7260   0.41083002    99040 2.0500002e-10 
    7270   0.48333406    99040 2.0500002e-10 
    7280   0.55158401    99040 2.0500002e-10 
    7290   0.62320209    99040 2.0500002e-10 
ssurf = 9.516929e-04 
    7300   0.69459414    99040 2.0500002e-10 
    7302   0.70825505    99040 2.0500002e-10 
Loop time of 0.708394 on 1 procs for 100 steps with 99040 atoms

99.9% CPU use with 1 MPI tasks x no OpenMP threads
run 100 pre no post no
Step CPU Atoms biomass 
    7302            0    99040 2.0500002e-10 
    7310  0.056761026    99040 2.0500002e-10 
    7320   0.12850404    99040 2.0500002e-10 
    7330     0.200037    99040 2.0500002e-10 
    7340   0.27063489    99040 2.0500002e-10 
    7350   0.34135103    99040 2.0500002e-10 
    7360   0.41281796    99040 2.0500002e-10 
    7370   0.48286891    99040 2.0500002e-10 
    7380   0.55298686    99040 2.0500002e-10 
    7390   0.62499094    99040 2.0500002e-10 
ssurf = 9.516929e-04 
    7400   0.69514084    99040 2.0500002e-10 
    7402   0.71293783    99040 2.0500002e-10 
Loop time of 0.713093 on 1 procs for 100 steps with 99040 atoms

99.8% CPU use with 1 MPI tasks x no OpenMP threads
run 100 pre no post no
Step CPU Atoms biomass 
    7402            0    99040 2.0500002e-10 
    7410  0.058361053    99040 2.0500002e-10 
    7420   0.12909389    99040 2.0500002e-10 
    7430   0.19918203    99040 2.0500002e-10 
    7440   0.26973701    99040 2.0500002e-10 
    7450   0.33992004    99040 2.0500002e-10 
    7460   0.41044807    99040 2.0500002e-10 
    7470   0.48309088    99040 2.0500002e-10 
    7480   0.55167007    99040 2.0500002e-10 
    7490   0.62205005    99040 2.0500002e-10 
ssurf = 9.516929e-04 
    7500   0.69252992    99040 2.0500002e-10 
    7502   0.70604992    99040 2.0500002e-10 
Loop time of 0.706198 on 1 procs for 100 steps with 99040 atoms

100.3% CPU use with 1 MPI tasks x no OpenMP threads
run 100 pre no post no
Step CPU Atoms biomass 
    7502            0    99040 2.0500002e-10 
    7510  0.058798075    99040 2.0500002e-10 
    7520   0.13096809    99040 2.0500002e-10 
    7530   0.20794106    99040 2.0500002e-10 
    7540   0.27894998    99040 2.0500002e-10 
    7550   0.35018206    99040 2.0500002e-10 
    7560    0.4231081    99040 2.0500002e-10 
    7570   0.49186206    99040 2.0500002e-10 
    7580   0.56293893    99040 2.0500002e-10 
    7590   0.63447714    99040 2.0500002e-10 
ssurf = 9.516929e-04 
    7600   0.70642805    99040 2.0500002e-10 
    7602   0.72030115    99040 2.0500002e-10 
Loop time of 0.720451 on 1 procs for 100 steps with 99040 atoms

99.9% CPU use with 1 MPI tasks x no OpenMP threads
run 100 pre no post no
Step CPU Atoms biomass 
    7602            0    99040 2.0500002e-10 
    7610  0.057430983    99040 2.0500002e-10 
    7620   0.12842178    99040 2.0500002e-10 
    7630   0.19873381    99040 2.0500002e-10 
    7640   0.26987481    99040 2.0500002e-10 
    7650   0.34059596    99040 2.0500002e-10 
    7660   0.41328979    99040 2.0500002e-10 
    7670   0.48186779    99040 2.0500002e-10 
    7680   0.55252981    99040 2.0500002e-10 
    7690   0.62318683    99040 2.0500002e-10 
ssurf = 9.516929e-04 
    7700   0.69418192    99040 2.0500002e-10 
    7702   0.70786881    99040 2.0500002e-10 
Loop time of 0.708013 on 1 procs for 100 steps with 99040 atoms

100.0% CPU use with 1 MPI tasks x no OpenMP threads
run 100 pre no post no
Step CPU Atoms biomass 
    7702            0    99040 2.0500002e-10 
    7710  0.057790995    99040 2.0500002e-10 
    7720   0.12828302    99040 2.0500002e-10 
    7730   0.19841313    99040 2.0500002e-10 
    7740   0.26852512    99040 2.0500002e-10 
    7750   0.34114003    99040 2.0500002e-10 
    7760   0.41089201    99040 2.0500002e-10 
    7770   0.48124814    99040 2.0500002e-10 
    7780   0.55162406    99040 2.0500002e-10 
    7790   0.62184095    99040 2.0500002e-10 
ssurf = 9.516929e-04 
    7800   0.69215298    99040 2.0500002e-10 
    7802   0.70559216    99040 2.0500002e-10 
Loop time of 0.705738 on 1 procs for 100 steps with 99040 atoms

99.8% CPU use with 1 MPI tasks x no OpenMP threads
run 100 pre no post no
Step CPU Atoms biomass 
    7802            0    99040 2.0500002e-10 
    7810  0.057184219    99040 2.0500002e-10 
    7820   0.12775922    99040 2.0500002e-10 
    7830   0.19821215    99040 2.0500002e-10 
    7840    0.2685442    99040 2.0500002e-10 
    7850    0.3368361    99040 2.0500002e-10 
    7860   0.40740514    99040 2.0500002e-10 
    7870   0.47797322    99040 2.0500002e-10 
    7880   0.54848814    99040 2.0500002e-10 
    7890   0.61878014    99040 2.0500002e-10 
ssurf = 9.516929e-04 
    7900   0.68948722    99040 2.0500002e-10 
    7902   0.70328403    99040 2.0500002e-10 
Loop time of 0.703422 on 1 procs for 100 steps with 99040 atoms

100.1% CPU use with 1 MPI tasks x no OpenMP threads
run 100 pre no post no
Step CPU Atoms biomass 
    7902            0    99040 2.0500002e-10 
    7910  0.057606936    99040 2.0500002e-10 
    7920   0.12834692    99040 2.0500002e-10 
    7930   0.20013905    99040 2.0500002e-10 
    7940   0.26883006    99040 2.0500002e-10 
    7950   0.33935308    99040 2.0500002e-10 
    7960   0.41003895    99040 2.0500002e-10 
    7970   0.48087907    99040 2.0500002e-10 
    7980   0.55227613    99040 2.0500002e-10 
    7990   0.62349796    99040 2.0500002e-10 
ssurf = 9.516929e-04 
    8000   0.69527197    99040 2.0500002e-10 
    8002   0.70882511    99040 2.0500002e-10 
Loop time of 0.708969 on 1 procs for 100 steps with 99040 atoms

99.9% CPU use with 1 MPI tasks x no OpenMP threads
run 100 pre no post no
Step CPU Atoms biomass 
    8002            0    99040 2.0500002e-10 
    8010  0.057792902    99040 2.0500002e-10 
    8020   0.12656283    99040 2.0500002e-10 
    8030     0.196733    99040 2.0500002e-10 
    8040   0.26717591    99040 2.0500002e-10 
    8050   0.33800483    99040 2.0500002e-10 
    8060   0.40819192    99040 2.0500002e-10 
    8070   0.47868299    99040 2.0500002e-10 
    8080   0.54923296    99040 2.0500002e-10 
    8090   0.62063885    99040 2.0500002e-10 
ssurf = 9.516929e-04 
    8100   0.69302201    99040 2.0500002e-10 
    8102   0.70603681    99040 2.0500002e-10 
Loop time of 0.706177 on 1 procs for 100 steps with 99040 atoms

99.7% CPU use with 1 MPI tasks x no OpenMP threads
run 100 pre no post no
Step CPU Atoms biomass 
    8102            0    99040 2.0500002e-10 
    8110  0.057102919    99040 2.0500002e-10 
    8120   0.12564588    99040 2.0500002e-10 
    8130   0.19583201    99040 2.0500002e-10 
    8140   0.26621199    99040 2.0500002e-10 
    8150   0.33751297    99040 2.0500002e-10 
    8160   0.40827107    99040 2.0500002e-10 
    8170      0.47893    99040 2.0500002e-10 
    8180   0.54969788    99040 2.0500002e-10 
    8190   0.62090492    99040 2.0500002e-10 
ssurf = 9.516929e-04 
    8200   0.69330692    99040 2.0500002e-10 
    8202   0.70640302    99040 2.0500002e-10 
Loop time of 0.706542 on 1 procs for 100 steps with 99040 atoms

99.6% CPU use with 1 MPI tasks x no OpenMP threads
run 100 pre no post no
Step CPU Atoms biomass 
    8202            0    99040 2.0500002e-10 
    8210  0.057682991    99040 2.0500002e-10 
    8220    0.1295681    99040 2.0500002e-10 
    8230   0.20070195    99040 2.0500002e-10 
    8240    0.2715261    99040 2.0500002e-10 
    8250   0.34245205    99040 2.0500002e-10 
    8260   0.41442013    99040 2.0500002e-10 
    8270   0.48603296    99040 2.0500002e-10 
    8280   0.55751014    99040 2.0500002e-10 
    8290   0.62959909    99040 2.0500002e-10 
ssurf = 9.516929e-04 
    8300   0.69925308    99040 2.0500002e-10 
    8302   0.71304607    99040 2.0500002e-10 
Loop time of 0.713201 on 1 procs for 100 steps with 99040 atoms

99.8% CPU use with 1 MPI tasks x no OpenMP threads
run 100 pre no post no
Step CPU Atoms biomass 
    8302            0    99040 2.0500002e-10 
    8310  0.057249069    99040 2.0500002e-10 
    8320   0.12849808    99040 2.0500002e-10 
    8330   0.19948101    99040 2.0500002e-10 
    8340    0.2706182    99040 2.0500002e-10 
    8350   0.34208417    99040 2.0500002e-10 
    8360     0.412673    99040 2.0500002e-10 
    8370   0.48353004    99040 2.0500002e-10 
    8380   0.55431604    99040 2.0500002e-10 
    8390   0.62783504    99040 2.0500002e-10 
ssurf = 9.516929e-04 
    8400   0.69692206    99040 2.0500002e-10 
    8402   0.71026015    99040 2.0500002e-10 
Loop time of 0.710403 on 1 procs for 100 steps with 99040 atoms

99.7% CPU use with 1 MPI tasks x no OpenMP threads
run 100 pre no post no
Step CPU Atoms biomass 
    8402            0    99040 2.0500002e-10 
    8410  0.057463169    99040 2.0500002e-10 
    8420   0.12923598    99040 2.0500002e-10 
    8430      0.20014    99040 2.0500002e-10 
    8440   0.27029896    99040 2.0500002e-10 
    8450   0.34172606    99040 2.0500002e-10 
    8460   0.41227102    99040 2.0500002e-10 
    8470   0.48260713    99040 2.0500002e-10 
    8480   0.55263805    99040 2.0500002e-10 
    8490   0.62128615    99040 2.0500002e-10 
ssurf = 9.516929e-04 
    8500   0.69235802    99040 2.0500002e-10 
    8502   0.70599794    99040 2.0500002e-10 
Loop time of 0.706143 on 1 procs for 100 steps with 99040 atoms

99.7% CPU use with 1 MPI tasks x no OpenMP threads
run 100 pre no post no
Step CPU Atoms biomass 
    8502            0    99040 2.0500002e-10 
    8510  0.058269978    99040 2.0500002e-10 
    8520   0.12891006    99040 2.0500002e-10 
    8530   0.19927597    99040 2.0500002e-10 
    8540   0.26997805    99040 2.0500002e-10 
    8550   0.34619904    99040 2.0500002e-10 
    8560   0.41731191    99040 2.0500002e-10 
    8570   0.48842883    99040 2.0500002e-10 
    8580   0.55953884    99040 2.0500002e-10 
    8590   0.63013506    99040 2.0500002e-10 
ssurf = 9.516929e-04 
    8600     0.700248    99040 2.0500002e-10 
    8602   0.71399093    99040 2.0500002e-10 
Loop time of 0.714149 on 1 procs for 100 steps with 99040 atoms

99.7% CPU use with 1 MPI tasks x no OpenMP threads
run 100 pre no post no
Step CPU Atoms biomass 
    8602            0    99040 2.0500002e-10 
    8610  0.057510138    99040 2.0500002e-10 
    8620   0.12769413    99040 2.0500002e-10 
    8630    0.1981442    99040 2.0500002e-10 
    8640   0.26905417    99040 2.0500002e-10 
    8650   0.33982015    99040 2.0500002e-10 
    8660   0.41038609    99040 2.0500002e-10 
    8670    0.4790082    99040 2.0500002e-10 
    8680   0.55008912    99040 2.0500002e-10 
    8690   0.62158108    99040 2.0500002e-10 
ssurf = 9.516929e-04 
    8700   0.69328618    99040 2.0500002e-10 
    8702   0.70679212    99040 2.0500002e-10 
Loop time of 0.706938 on 1 procs for 100 steps with 99040 atoms

100.2% CPU use with 1 MPI tasks x no OpenMP threads
run 100 pre no post no
Step CPU Atoms biomass 
    8702            0    99040 2.0500002e-10 
    8710  0.057631016    99040 2.0500002e-10 
    8720   0.12812901    99040 2.0500002e-10 
    8730   0.19880295    99040 2.0500002e-10 
    8740   0.26933908    99040 2.0500002e-10 
    8750   0.33964992    99040 2.0500002e-10 
    8760   0.41192603    99040 2.0500002e-10 
    8770   0.48074293    99040 2.0500002e-10 
    8780   0.55274296    99040 2.0500002e-10 
    8790   0.62389898    99040 2.0500002e-10 
ssurf = 9.516929e-04 
    8800   0.69478393    99040 2.0500002e-10 
    8802   0.70844507    99040 2.0500002e-10 
Loop time of 0.708584 on 1 procs for 100 steps with 99040 atoms

99.9% CPU use with 1 MPI tasks x no OpenMP threads
run 100 pre no post no
Step CPU Atoms biomass 
    8802            0    99040 2.0500002e-10 
    8810  0.056496859    99040 2.0500002e-10 
    8820   0.12578893    99040 2.0500002e-10 
    8830   0.19523692    99040 2.0500002e-10 
    8840   0.26475692    99040 2.0500002e-10 
    8850   0.33537483    99040 2.0500002e-10 
    8860     0.403023    99040 2.0500002e-10 
    8870   0.47248483    99040 2.0500002e-10 
    8880   0.54218483    99040 2.0500002e-10 
    8890   0.61083794    99040 2.0500002e-10 
ssurf = 9.516929e-04 
    8900   0.68085194    99040 2.0500002e-10 
    8902   0.69372201    99040 2.0500002e-10 
Loop time of 0.693863 on 1 procs for 100 steps with 99040 atoms

99.7% CPU use with 1 MPI tasks x no OpenMP threads
run 100 pre no post no
Step CPU Atoms biomass 
    8902            0    99040 2.0500002e-10 
    8910  0.057317019    99040 2.0500002e-10 
    8920   0.12570405    99040 2.0500002e-10 
    8930   0.19560194    99040 2.0500002e-10 
    8940   0.26634312    99040 2.0500002e-10 
    8950   0.33773303    99040 2.0500002e-10 
    8960   0.40568399    99040 2.0500002e-10 
    8970   0.47656608    99040 2.0500002e-10 
    8980   0.54691291    99040 2.0500002e-10 
    8990   0.61650801    99040 2.0500002e-10 
ssurf = 9.516929e-04 
    9000   0.68700314    99040 2.0500002e-10 
    9002   0.70063591    99040 2.0500002e-10 
Loop time of 0.700784 on 1 procs for 100 steps with 99040 atoms

99.9% CPU use with 1 MPI tasks x no OpenMP threads
run 100 pre no post no
Step CPU Atoms biomass 
    9002            0    99040 2.0500002e-10 
    9010  0.056684017    99040 2.0500002e-10 
    9020   0.12632012    99040 2.0500002e-10 
    9030   0.19555616    99040 2.0500002e-10 
    9040   0.26479197    99040 2.0500002e-10 
    9050   0.33428812    99040 2.0500002e-10 
    9060   0.40383506    99040 2.0500002e-10 
    9070   0.47288704    99040 2.0500002e-10 
    9080   0.54191613    99040 2.0500002e-10 
    9090   0.61133003    99040 2.0500002e-10 
ssurf = 9.516929e-04 
    9100   0.68047309    99040 2.0500002e-10 
    9102   0.69387197    99040 2.0500002e-10 
Loop time of 0.694009 on 1 procs for 100 steps with 99040 atoms

99.7% CPU use with 1 MPI tasks x no OpenMP threads
run 100 pre no post no
Step CPU Atoms biomass 
    9102            0    99040 2.0500002e-10 
    9110   0.05585289    99040 2.0500002e-10 
    9120   0.12521887    99040 2.0500002e-10 
    9130   0.19405198    99040 2.0500002e-10 
    9140   0.26433396    99040 2.0500002e-10 
    9150   0.33112097    99040 2.0500002e-10 
    9160   0.39952898    99040 2.0500002e-10 
    9170   0.46761107    99040 2.0500002e-10 
    9180   0.53732204    99040 2.0500002e-10 
    9190   0.60734797    99040 2.0500002e-10 
ssurf = 9.516929e-04 
    9200   0.67863703    99040 2.0500002e-10 
    9202   0.69197702    99040 2.0500002e-10 
Loop time of 0.692113 on 1 procs for 100 steps with 99040 atoms

100.0% CPU use with 1 MPI tasks x no OpenMP threads
run 100 pre no post no
Step CPU Atoms biomass 
    9202            0    99040 2.0500002e-10 
    9210  0.056124926    99040 2.0500002e-10 
    9220   0.12402296    99040 2.0500002e-10 
    9230   0.19189692    99040 2.0500002e-10 
    9240   0.25995398    99040 2.0500002e-10 
    9250    0.3267169    99040 2.0500002e-10 
    9260   0.39520788    99040 2.0500002e-10 
    9270   0.46571994    99040 2.0500002e-10 
    9280   0.57595491    99040 2.0500002e-10 
    9290     0.645473    99040 2.0500002e-10 
ssurf = 9.516929e-04 
    9300   0.71398592    99040 2.0500002e-10 
    9302   0.72743797    99040 2.0500002e-10 
Loop time of 0.727593 on 1 procs for 100 steps with 99040 atoms

100.1% CPU use with 1 MPI tasks x no OpenMP threads
run 100 pre no post no
Step CPU Atoms biomass 
    9302            0    99040 2.0500002e-10 
    9310  0.056102037    99040 2.0500002e-10 
    9320   0.12474608    99040 2.0500002e-10 
    9330   0.19278407    99040 2.0500002e-10 
    9340   0.26135302    99040 2.0500002e-10 
    9350   0.33132195    99040 2.0500002e-10 
    9360   0.40125918    99040 2.0500002e-10 
    9370   0.47107911    99040 2.0500002e-10 
    9380   0.54140615    99040 2.0500002e-10 
    9390   0.61090398    99040 2.0500002e-10 
ssurf = 9.516929e-04 
    9400   0.68112111    99040 2.0500002e-10 
    9402   0.69453812    99040 2.0500002e-10 
Loop time of 0.694699 on 1 procs for 100 steps with 99040 atoms

99.6% CPU use with 1 MPI tasks x no OpenMP threads
run 100 pre no post no
Step CPU Atoms biomass 
    9402            0    99040 2.0500002e-10 
    9410  0.055400133    99040 2.0500002e-10 
    9420   0.12396502    99040 2.0500002e-10 
    9430   0.19263506    99040 2.0500002e-10 
    9440   0.26101899    99040 2.0500002e-10 
    9450   0.32952094    99040 2.0500002e-10 
    9460   0.39611101    99040 2.0500002e-10 
    9470   0.46435308    99040 2.0500002e-10 
    9480   0.53316712    99040 2.0500002e-10 
    9490   0.60126805    99040 2.0500002e-10 
ssurf = 9.516929e-04 
    9500   0.66960216    99040 2.0500002e-10 
    9502   0.68309498    99040 2.0500002e-10 
Loop time of 0.683251 on 1 procs for 100 steps with 99040 atoms

99.5% CPU use with 1 MPI tasks x no OpenMP threads
run 100 pre no post no
Step CPU Atoms biomass 
    9502            0    99040 2.0500002e-10 
    9510  0.056578875    99040 2.0500002e-10 
    9520     0.125036    99040 2.0500002e-10 
    9530   0.19384694    99040 2.0500002e-10 
    9540   0.26237392    99040 2.0500002e-10 
    9550   0.33042383    99040 2.0500002e-10 
    9560   0.39959288    99040 2.0500002e-10 
    9570   0.46609187    99040 2.0500002e-10 
    9580   0.53401494    99040 2.0500002e-10 
    9590    0.6021719    99040 2.0500002e-10 
ssurf = 9.516929e-04 
    9600   0.67066002    99040 2.0500002e-10 
    9602   0.68394494    99040 2.0500002e-10 
Loop time of 0.684087 on 1 procs for 100 steps with 99040 atoms

100.0% CPU use with 1 MPI tasks x no OpenMP threads
run 100 pre no post no
Step CPU Atoms biomass 
    9602            0    99040 2.0500002e-10 
    9610  0.057919979    99040 2.0500002e-10 
    9620   0.12711596    99040 2.0500002e-10 
    9630   0.19752288    99040 2.0500002e-10 
    9640   0.26672196    99040 2.0500002e-10 
    9650   0.33604884    99040 2.0500002e-10 
    9660    0.4064858    99040 2.0500002e-10 
    9670   0.47287297    99040 2.0500002e-10 
    9680   0.54124689    99040 2.0500002e-10 
    9690   0.61078382    99040 2.0500002e-10 
ssurf = 9.516929e-04 
    9700   0.68049002    99040 2.0500002e-10 
    9702   0.69412184    99040 2.0500002e-10 
Loop time of 0.69429 on 1 procs for 100 steps with 99040 atoms

100.2% CPU use with 1 MPI tasks x no OpenMP threads
run 100 pre no post no
Step CPU Atoms biomass 
    9702            0    99040 2.0500002e-10 
    9710  0.056116104    99040 2.0500002e-10 
    9720   0.12476611    99040 2.0500002e-10 
    9730   0.19369602    99040 2.0500002e-10 
    9740   0.26166797    99040 2.0500002e-10 
    9750     0.330827    99040 2.0500002e-10 
    9760   0.40092707    99040 2.0500002e-10 
    9770   0.46894598    99040 2.0500002e-10 
    9780   0.53852296    99040 2.0500002e-10 
    9790   0.60936499    99040 2.0500002e-10 
ssurf = 9.516929e-04 
    9800   0.67830896    99040 2.0500002e-10 
    9802   0.69155908    99040 2.0500002e-10 
Loop time of 0.691696 on 1 procs for 100 steps with 99040 atoms

100.0% CPU use with 1 MPI tasks x no OpenMP threads
run 100 pre no post no
Step CPU Atoms biomass 
    9802            0    99040 2.0500002e-10 
    9810    0.0583179    99040 2.0500002e-10 
    9820   0.12804294    99040 2.0500002e-10 
    9830   0.19734502    99040 2.0500002e-10 
    9840    0.2670579    99040 2.0500002e-10 
    9850   0.33734393    99040 2.0500002e-10 
    9860   0.40630698    99040 2.0500002e-10 
    9870   0.47494388    99040 2.0500002e-10 
    9880   0.54522705    99040 2.0500002e-10 
    9890   0.61188388    99040 2.0500002e-10 
ssurf = 9.516929e-04 
    9900   0.68137503    99040 2.0500002e-10 
    9902   0.69491482    99040 2.0500002e-10 
Loop time of 0.695058 on 1 procs for 100 steps with 99040 atoms

99.6% CPU use with 1 MPI tasks x no OpenMP threads
run 100 pre no post no
Step CPU Atoms biomass 
    9902            0    99040 2.0500002e-10 
    9910  0.058137178    99040 2.0500002e-10 
    9920   0.12898922    99040 2.0500002e-10 
    9930   0.19896722    99040 2.0500002e-10 
    9940   0.26911306    99040 2.0500002e-10 
    9950   0.34055018    99040 2.0500002e-10 
    9960   0.41283607    99040 2.0500002e-10 
    9970   0.48421621    99040 2.0500002e-10 
    9980   0.55535722    99040 2.0500002e-10 
    9990   0.62637305    99040 2.0500002e-10 
ssurf = 9.516929e-04 
   10000   0.69713521    99040 2.0500002e-10 
   10002   0.71089721    99040 2.0500002e-10 
Loop time of 0.711046 on 1 procs for 100 steps with 99040 atoms

100.1% CPU use with 1 MPI tasks x no OpenMP threads
run 1 pre no post no
Step CPU Atoms biomass 
   10002            0    99040 2.0500002e-10 
number of iterations: 122686 
   10003    1115.0817    99040 2.0500002e-10 
Loop time of 1115.08 on 1 procs for 1 steps with 99040 atoms

100.0% CPU use with 1 MPI tasks x no OpenMP threads
run 100 pre no post no
Step CPU Atoms biomass 
   10003            0    99040 2.0500002e-10 
   10010  0.050279856    99040 2.0500002e-10 
   10020   0.11881685    99040 2.0500002e-10 
   10030   0.18798494    99040 2.0500002e-10 
   10040   0.25777888    99040 2.0500002e-10 
   10050   0.32637382    99040 2.0500002e-10 
   10060   0.39537382    99040 2.0500002e-10 
   10070   0.46370602    99040 2.0500002e-10 
   10080   0.53280091    99040 2.0500002e-10 
   10090   0.60222197    99040 2.0500002e-10 
ssurf = 1.669141e-03 
   10100   0.67136097    99040 2.0500002e-10 
   10103   0.69243288    99040 2.0500002e-10 
Loop time of 0.692572 on 1 procs for 100 steps with 99040 atoms

99.9% CPU use with 1 MPI tasks x no OpenMP threads
run 100 pre no post no
Step CPU Atoms biomass 
   10103            0    99040 2.0500002e-10 
   10110  0.050041914    99040 2.0500002e-10 
   10120    0.1187439    99040 2.0500002e-10 
   10130   0.18783689    99040 2.0500002e-10 
   10140   0.25678301    99040 2.0500002e-10 
   10150   0.32598686    99040 2.0500002e-10 
   10160   0.39469385    99040 2.0500002e-10 
   10170    0.4640708    99040 2.0500002e-10 
   10180   0.53332591    99040 2.0500002e-10 
   10190   0.60142088    99040 2.0500002e-10 
[...]

99.4% CPU use with 1 MPI tasks x no OpenMP threads
run 100 pre no post no
Step CPU Atoms biomass 
   97311            0    99040 2.0500002e-10 
   97320  0.059408903    99040 2.0500002e-10 
   97330   0.12428784    99040 2.0500002e-10 
   97340   0.18837285    99040 2.0500002e-10 
   97350   0.25301099    99040 2.0500002e-10 
   97360   0.31696105    99040 2.0500002e-10 
   97370   0.38088489    99040 2.0500002e-10 
   97380   0.44526386    99040 2.0500002e-10 
   97390   0.50911784    99040 2.0500002e-10 
ssurf = 2.634703e-03 
   97400   0.57338595    99040 2.0500002e-10 
   97410     0.637218    99040 2.0500002e-10 
   97411   0.64354205    99040 2.0500002e-10 
Loop time of 0.643683 on 1 procs for 100 steps with 99040 atoms

100.0% CPU use with 1 MPI tasks x no OpenMP threads
run 100 pre no post no
Step CPU Atoms biomass 
   97411            0    99040 2.0500002e-10 
   97420  0.063563108    99040 2.0500002e-10 
   97430   0.13332009    99040 2.0500002e-10 
   97440   0.20207596    99040 2.0500002e-10 
   97450   0.27066898    99040 2.0500002e-10 
   97460   0.33951902    99040 2.0500002e-10 
   97470   0.40814519    99040 2.0500002e-10 
   97480   0.47717118    99040 2.0500002e-10 
   97490   0.54699516    99040 2.0500002e-10 
ssurf = 2.634703e-03 
   97500    0.6155591    99040 2.0500002e-10 
   97510   0.68409014    99040 2.0500002e-10 
   97511   0.69037819    99040 2.0500002e-10 
Loop time of 0.690509 on 1 procs for 100 steps with 99040 atoms

100.2% CPU use with 1 MPI tasks x no OpenMP threads
run 100 pre no post no
Step CPU Atoms biomass 
   97511            0    99040 2.0500002e-10 
   97520  0.062171936    99040 2.0500002e-10 
   97530   0.13000607    99040 2.0500002e-10 
   97540   0.19830108    99040 2.0500002e-10 
   97550   0.26755691    99040 2.0500002e-10 
   97560   0.33640409    99040 2.0500002e-10 
   97570   0.40500593    99040 2.0500002e-10 
   97580   0.47358799    99040 2.0500002e-10 
   97590   0.54184103    99040 2.0500002e-10 
ssurf = 2.634703e-03 
   97600   0.61006999    99040 2.0500002e-10 
   97610   0.67818713    99040 2.0500002e-10 
   97611   0.68453908    99040 2.0500002e-10 
Loop time of 0.684673 on 1 procs for 100 steps with 99040 atoms

100.5% CPU use with 1 MPI tasks x no OpenMP threads
run 100 pre no post no
Step CPU Atoms biomass 
   97611            0    99040 2.0500002e-10 
   97620   0.06420207    99040 2.0500002e-10 
   97630   0.13203502    99040 2.0500002e-10 
   97640   0.20059919    99040 2.0500002e-10 
   97650   0.26881504    99040 2.0500002e-10 
   97660   0.33698106    99040 2.0500002e-10 
   97670   0.40581918    99040 2.0500002e-10 
   97680   0.47448897    99040 2.0500002e-10 
   97690     0.543226    99040 2.0500002e-10 
ssurf = 2.634703e-03 
   97700   0.61320114    99040 2.0500002e-10 
   97710   0.68219209    99040 2.0500002e-10 
   97711   0.68859816    99040 2.0500002e-10 
Loop time of 0.68873 on 1 procs for 100 steps with 99040 atoms

99.9% CPU use with 1 MPI tasks x no OpenMP threads
run 100 pre no post no
Step CPU Atoms biomass 
   97711            0    99040 2.0500002e-10 
   97720  0.061836958    99040 2.0500002e-10 
   97730   0.13081098    99040 2.0500002e-10 
   97740   0.20092916    99040 2.0500002e-10 
   97750   0.26743913    99040 2.0500002e-10 
   97760    0.3353281    99040 2.0500002e-10 
   97770   0.40313411    99040 2.0500002e-10 
   97780   0.47243404    99040 2.0500002e-10 
   97790   0.54065704    99040 2.0500002e-10 
ssurf = 2.634703e-03 
   97800   0.60852408    99040 2.0500002e-10 
   97810   0.67867398    99040 2.0500002e-10 
   97811   0.68506598    99040 2.0500002e-10 
Loop time of 0.685199 on 1 procs for 100 steps with 99040 atoms

99.8% CPU use with 1 MPI tasks x no OpenMP threads
run 100 pre no post no
Step CPU Atoms biomass 
   97811            0    99040 2.0500002e-10 
   97820  0.062826872    99040 2.0500002e-10 
   97830   0.13185596    99040 2.0500002e-10 
   97840   0.20019102    99040 2.0500002e-10 
   97850   0.26886106    99040 2.0500002e-10 
   97860   0.33568001    99040 2.0500002e-10 
   97870   0.40397906    99040 2.0500002e-10 
   97880   0.47212887    99040 2.0500002e-10 
   97890   0.54119587    99040 2.0500002e-10 
ssurf = 2.634703e-03 
   97900   0.61136699    99040 2.0500002e-10 
   97910   0.67951488    99040 2.0500002e-10 
   97911   0.68582296    99040 2.0500002e-10 
Loop time of 0.685954 on 1 procs for 100 steps with 99040 atoms

99.7% CPU use with 1 MPI tasks x no OpenMP threads
run 100 pre no post no
Step CPU Atoms biomass 
   97911            0    99040 2.0500002e-10 
   97920  0.062366962    99040 2.0500002e-10 
   97930     0.130831    99040 2.0500002e-10 
   97940   0.19903803    99040 2.0500002e-10 
   97950   0.26673794    99040 2.0500002e-10 
   97960   0.33429289    99040 2.0500002e-10 
   97970   0.40315008    99040 2.0500002e-10 
   97980    0.4749999    99040 2.0500002e-10 
   97990   0.54288197    99040 2.0500002e-10 
ssurf = 2.634703e-03 
   98000   0.61117792    99040 2.0500002e-10 
   98010   0.67930007    99040 2.0500002e-10 
   98011   0.68561292    99040 2.0500002e-10 
Loop time of 0.685745 on 1 procs for 100 steps with 99040 atoms

100.3% CPU use with 1 MPI tasks x no OpenMP threads
run 100 pre no post no
Step CPU Atoms biomass 
   98011            0    99040 2.0500002e-10 
   98020  0.063224792    99040 2.0500002e-10 
   98030   0.13229799    99040 2.0500002e-10 
   98040   0.20085287    99040 2.0500002e-10 
   98050   0.26923895    99040 2.0500002e-10 
   98060   0.33723593    99040 2.0500002e-10 
   98070   0.40522099    99040 2.0500002e-10 
   98080   0.47309589    99040 2.0500002e-10 
   98090    0.5394578    99040 2.0500002e-10 
ssurf = 2.634703e-03 
   98100   0.60763979    99040 2.0500002e-10 
   98110   0.67571592    99040 2.0500002e-10 
   98111   0.68203497    99040 2.0500002e-10 
Loop time of 0.682194 on 1 procs for 100 steps with 99040 atoms

99.7% CPU use with 1 MPI tasks x no OpenMP threads
run 100 pre no post no
Step CPU Atoms biomass 
   98111            0    99040 2.0500002e-10 
   98120  0.061975002    99040 2.0500002e-10 
   98130   0.13014412    99040 2.0500002e-10 
   98140   0.19848299    99040 2.0500002e-10 
   98150   0.26633406    99040 2.0500002e-10 
   98160   0.33434796    99040 2.0500002e-10 
   98170   0.40271997    99040 2.0500002e-10 
   98180   0.47097397    99040 2.0500002e-10 
   98190   0.54080701    99040 2.0500002e-10 
ssurf = 2.634703e-03 
   98200   0.60768104    99040 2.0500002e-10 
   98210   0.67619801    99040 2.0500002e-10 
   98211   0.68250012    99040 2.0500002e-10 
Loop time of 0.682652 on 1 procs for 100 steps with 99040 atoms

100.2% CPU use with 1 MPI tasks x no OpenMP threads
run 100 pre no post no
Step CPU Atoms biomass 
   98211            0    99040 2.0500002e-10 
   98220  0.062580109    99040 2.0500002e-10 
   98230   0.13095999    99040 2.0500002e-10 
   98240   0.19986606    99040 2.0500002e-10 
   98250   0.26831412    99040 2.0500002e-10 
   98260   0.33696604    99040 2.0500002e-10 
   98270   0.40646005    99040 2.0500002e-10 
   98280   0.47550797    99040 2.0500002e-10 
   98290   0.54481912    99040 2.0500002e-10 
ssurf = 2.634703e-03 
   98300   0.61525416    99040 2.0500002e-10 
   98310   0.68552804    99040 2.0500002e-10 
   98311   0.69203401    99040 2.0500002e-10 
Loop time of 0.692164 on 1 procs for 100 steps with 99040 atoms

100.0% CPU use with 1 MPI tasks x no OpenMP threads
run 100 pre no post no
Step CPU Atoms biomass 
   98311            0    99040 2.0500002e-10 
   98320  0.062282085    99040 2.0500002e-10 
   98330   0.13219094    99040 2.0500002e-10 
   98340   0.19928908    99040 2.0500002e-10 
   98350   0.26756406    99040 2.0500002e-10 
   98360   0.33622694    99040 2.0500002e-10 
   98370   0.40567708    99040 2.0500002e-10 
   98380   0.47382998    99040 2.0500002e-10 
   98390   0.54179406    99040 2.0500002e-10 
ssurf = 2.634703e-03 
   98400   0.61114001    99040 2.0500002e-10 
   98410    0.6830821    99040 2.0500002e-10 
   98411   0.68951011    99040 2.0500002e-10 
Loop time of 0.689642 on 1 procs for 100 steps with 99040 atoms

100.3% CPU use with 1 MPI tasks x no OpenMP threads
run 100 pre no post no
Step CPU Atoms biomass 
   98411            0    99040 2.0500002e-10 
   98420  0.062265873    99040 2.0500002e-10 
   98430     0.130445    99040 2.0500002e-10 
   98440    0.1987679    99040 2.0500002e-10 
   98450   0.26745701    99040 2.0500002e-10 
   98460   0.33742189    99040 2.0500002e-10 
   98470   0.40434003    99040 2.0500002e-10 
   98480   0.47364402    99040 2.0500002e-10 
   98490    0.5426569    99040 2.0500002e-10 
ssurf = 2.634703e-03 
   98500   0.61115289    99040 2.0500002e-10 
   98510   0.68013501    99040 2.0500002e-10 
   98511   0.68643188    99040 2.0500002e-10 
Loop time of 0.686565 on 1 procs for 100 steps with 99040 atoms

100.2% CPU use with 1 MPI tasks x no OpenMP threads
run 100 pre no post no
Step CPU Atoms biomass 
   98511            0    99040 2.0500002e-10 
   98520  0.062519073    99040 2.0500002e-10 
   98530   0.13046122    99040 2.0500002e-10 
   98540   0.19908619    99040 2.0500002e-10 
   98550   0.26712704    99040 2.0500002e-10 
   98560   0.33582115    99040 2.0500002e-10 
   98570   0.40673518    99040 2.0500002e-10 
   98580   0.47314119    99040 2.0500002e-10 
   98590   0.54093409    99040 2.0500002e-10 
ssurf = 2.634703e-03 
   98600   0.60956717    99040 2.0500002e-10 
   98610   0.67804599    99040 2.0500002e-10 
   98611   0.68436623    99040 2.0500002e-10 
Loop time of 0.684499 on 1 procs for 100 steps with 99040 atoms

99.9% CPU use with 1 MPI tasks x no OpenMP threads
run 100 pre no post no
Step CPU Atoms biomass 
   98611            0    99040 2.0500002e-10 
   98620  0.062354088    99040 2.0500002e-10 
   98630   0.13242197    99040 2.0500002e-10 
   98640     0.204108    99040 2.0500002e-10 
   98650   0.27265096    99040 2.0500002e-10 
   98660   0.34148502    99040 2.0500002e-10 
   98670   0.41182399    99040 2.0500002e-10 
   98680    0.4783709    99040 2.0500002e-10 
   98690   0.54689193    99040 2.0500002e-10 
ssurf = 2.634703e-03 
   98700   0.61573792    99040 2.0500002e-10 
   98710   0.68425298    99040 2.0500002e-10 
   98711   0.69056106    99040 2.0500002e-10 
Loop time of 0.69069 on 1 procs for 100 steps with 99040 atoms

100.2% CPU use with 1 MPI tasks x no OpenMP threads
run 100 pre no post no
Step CPU Atoms biomass 
   98711            0    99040 2.0500002e-10 
   98720  0.063720942    99040 2.0500002e-10 
   98730   0.13251591    99040 2.0500002e-10 
   98740   0.20106196    99040 2.0500002e-10 
   98750    0.2691009    99040 2.0500002e-10 
   98760   0.33743095    99040 2.0500002e-10 
   98770   0.40556002    99040 2.0500002e-10 
   98780   0.47527003    99040 2.0500002e-10 
   98790   0.54367995    99040 2.0500002e-10 
ssurf = 2.634703e-03 
   98800   0.61186385    99040 2.0500002e-10 
   98810   0.67994595    99040 2.0500002e-10 
   98811   0.68638492    99040 2.0500002e-10 
Loop time of 0.686518 on 1 procs for 100 steps with 99040 atoms

100.2% CPU use with 1 MPI tasks x no OpenMP threads
run 100 pre no post no
Step CPU Atoms biomass 
   98811            0    99040 2.0500002e-10 
   98820  0.062608957    99040 2.0500002e-10 
   98830   0.13161087    99040 2.0500002e-10 
   98840   0.19979286    99040 2.0500002e-10 
   98850   0.26806402    99040 2.0500002e-10 
   98860      0.33638    99040 2.0500002e-10 
   98870   0.40440702    99040 2.0500002e-10 
   98880   0.47303486    99040 2.0500002e-10 
   98890   0.54278207    99040 2.0500002e-10 
ssurf = 2.634703e-03 
   98900   0.61135387    99040 2.0500002e-10 
   98910   0.68082595    99040 2.0500002e-10 
   98911   0.68727303    99040 2.0500002e-10 
Loop time of 0.687407 on 1 procs for 100 steps with 99040 atoms

100.1% CPU use with 1 MPI tasks x no OpenMP threads
run 100 pre no post no
Step CPU Atoms biomass 
   98911            0    99040 2.0500002e-10 
   98920  0.061859846    99040 2.0500002e-10 
   98930   0.13077497    99040 2.0500002e-10 
   98940   0.19902301    99040 2.0500002e-10 
   98950   0.26760483    99040 2.0500002e-10 
   98960   0.33554792    99040 2.0500002e-10 
   98970   0.40361881    99040 2.0500002e-10 
   98980   0.47224784    99040 2.0500002e-10 
   98990   0.54070878    99040 2.0500002e-10 
ssurf = 2.634703e-03 
   99000   0.61160398    99040 2.0500002e-10 
   99010   0.68010283    99040 2.0500002e-10 
   99011   0.68707585    99040 2.0500002e-10 
Loop time of 0.687269 on 1 procs for 100 steps with 99040 atoms

100.1% CPU use with 1 MPI tasks x no OpenMP threads
run 100 pre no post no
Step CPU Atoms biomass 
   99011            0    99040 2.0500002e-10 
   99020  0.060451984    99040 2.0500002e-10 
   99030   0.12946296    99040 2.0500002e-10 
   99040   0.19846296    99040 2.0500002e-10 
   99050     0.267277    99040 2.0500002e-10 
   99060   0.33702111    99040 2.0500002e-10 
   99070   0.40727401    99040 2.0500002e-10 
   99080   0.47534895    99040 2.0500002e-10 
   99090   0.54365706    99040 2.0500002e-10 
ssurf = 2.634703e-03 
   99100   0.61349797    99040 2.0500002e-10 
   99110   0.68038702    99040 2.0500002e-10 
   99111   0.68672013    99040 2.0500002e-10 
Loop time of 0.686856 on 1 procs for 100 steps with 99040 atoms

100.2% CPU use with 1 MPI tasks x no OpenMP threads
run 100 pre no post no
Step CPU Atoms biomass 
   99111            0    99040 2.0500002e-10 
   99120  0.064337015    99040 2.0500002e-10 
   99130   0.13124299    99040 2.0500002e-10 
   99140   0.19899797    99040 2.0500002e-10 
   99150     0.268677    99040 2.0500002e-10 
   99160   0.33677697    99040 2.0500002e-10 
   99170   0.40477705    99040 2.0500002e-10 
   99180   0.47273302    99040 2.0500002e-10 
   99190   0.54079008    99040 2.0500002e-10 
ssurf = 2.634703e-03 
   99200   0.60953903    99040 2.0500002e-10 
   99210   0.68037605    99040 2.0500002e-10 
   99211   0.68682909    99040 2.0500002e-10 
Loop time of 0.686967 on 1 procs for 100 steps with 99040 atoms

100.2% CPU use with 1 MPI tasks x no OpenMP threads
run 100 pre no post no
Step CPU Atoms biomass 
   99211            0    99040 2.0500002e-10 
   99220  0.062320948    99040 2.0500002e-10 
   99230   0.13087106    99040 2.0500002e-10 
   99240   0.19754815    99040 2.0500002e-10 
   99250   0.26542401    99040 2.0500002e-10 
   99260   0.33393097    99040 2.0500002e-10 
   99270   0.40282798    99040 2.0500002e-10 
   99280   0.47137809    99040 2.0500002e-10 
   99290   0.53953695    99040 2.0500002e-10 
ssurf = 2.634703e-03 
   99300   0.60791516    99040 2.0500002e-10 
   99310   0.67642212    99040 2.0500002e-10 
   99311   0.68275404    99040 2.0500002e-10 
Loop time of 0.682887 on 1 procs for 100 steps with 99040 atoms

100.2% CPU use with 1 MPI tasks x no OpenMP threads
run 100 pre no post no
Step CPU Atoms biomass 
   99311            0    99040 2.0500002e-10 
   99320  0.062231064    99040 2.0500002e-10 
   99330   0.13052607    99040 2.0500002e-10 
   99340   0.19902611    99040 2.0500002e-10 
   99350   0.26888609    99040 2.0500002e-10 
   99360   0.33523393    99040 2.0500002e-10 
   99370   0.40385389    99040 2.0500002e-10 
   99380   0.47243905    99040 2.0500002e-10 
   99390    0.5406971    99040 2.0500002e-10 
ssurf = 2.634703e-03 
   99400   0.60960507    99040 2.0500002e-10 
   99410   0.67825103    99040 2.0500002e-10 
   99411   0.68444991    99040 2.0500002e-10 
Loop time of 0.684591 on 1 procs for 100 steps with 99040 atoms

99.9% CPU use with 1 MPI tasks x no OpenMP threads
run 100 pre no post no
Step CPU Atoms biomass 
   99411            0    99040 2.0500002e-10 
   99420  0.062298059    99040 2.0500002e-10 
   99430   0.13030219    99040 2.0500002e-10 
   99440   0.19834709    99040 2.0500002e-10 
   99450    0.2663312    99040 2.0500002e-10 
   99460   0.33444214    99040 2.0500002e-10 
   99470   0.40460014    99040 2.0500002e-10 
   99480   0.47167706    99040 2.0500002e-10 
   99490   0.54067516    99040 2.0500002e-10 
ssurf = 2.634703e-03 
   99500    0.6098702    99040 2.0500002e-10 
   99510   0.67801499    99040 2.0500002e-10 
   99511   0.68433213    99040 2.0500002e-10 
Loop time of 0.68448 on 1 procs for 100 steps with 99040 atoms

99.9% CPU use with 1 MPI tasks x no OpenMP threads
run 100 pre no post no
Step CPU Atoms biomass 
   99511            0    99040 2.0500002e-10 
   99520  0.062600851    99040 2.0500002e-10 
   99530   0.13095593    99040 2.0500002e-10 
   99540   0.19912696    99040 2.0500002e-10 
   99550   0.26697493    99040 2.0500002e-10 
   99560   0.33484197    99040 2.0500002e-10 
   99570   0.40315485    99040 2.0500002e-10 
   99580   0.47284985    99040 2.0500002e-10 
   99590   0.53917384    99040 2.0500002e-10 
ssurf = 2.634703e-03 
   99600     0.607373    99040 2.0500002e-10 
   99610   0.67771482    99040 2.0500002e-10 
   99611   0.68457484    99040 2.0500002e-10 
Loop time of 0.684712 on 1 procs for 100 steps with 99040 atoms

99.9% CPU use with 1 MPI tasks x no OpenMP threads
run 100 pre no post no
Step CPU Atoms biomass 
   99611            0    99040 2.0500002e-10 
   99620  0.062067032    99040 2.0500002e-10 
   99630   0.13061595    99040 2.0500002e-10 
   99640   0.19916201    99040 2.0500002e-10 
   99650   0.26807594    99040 2.0500002e-10 
   99660   0.33686805    99040 2.0500002e-10 
   99670   0.40533495    99040 2.0500002e-10 
   99680   0.47568107    99040 2.0500002e-10 
   99690   0.54574895    99040 2.0500002e-10 
ssurf = 2.634703e-03 
   99700    0.6128881    99040 2.0500002e-10 
   99710   0.68166399    99040 2.0500002e-10 
   99711   0.68795514    99040 2.0500002e-10 
Loop time of 0.688091 on 1 procs for 100 steps with 99040 atoms

100.0% CPU use with 1 MPI tasks x no OpenMP threads
run 100 pre no post no
Step CPU Atoms biomass 
   99711            0    99040 2.0500002e-10 
   99720  0.062216043    99040 2.0500002e-10 
   99730   0.13067007    99040 2.0500002e-10 
   99740   0.19912505    99040 2.0500002e-10 
   99750   0.26931405    99040 2.0500002e-10 
   99760   0.33971906    99040 2.0500002e-10 
   99770   0.40904188    99040 2.0500002e-10 
   99780   0.47750688    99040 2.0500002e-10 
   99790   0.54536605    99040 2.0500002e-10 
ssurf = 2.634703e-03 
   99800   0.61247396    99040 2.0500002e-10 
   99810   0.68083191    99040 2.0500002e-10 
   99811   0.68717289    99040 2.0500002e-10 
Loop time of 0.687301 on 1 procs for 100 steps with 99040 atoms

100.1% CPU use with 1 MPI tasks x no OpenMP threads
run 100 pre no post no
Step CPU Atoms biomass 
   99811            0    99040 2.0500002e-10 
   99820  0.063849926    99040 2.0500002e-10 
   99830    0.1333878    99040 2.0500002e-10 
   99840   0.20227599    99040 2.0500002e-10 
   99850     0.271173    99040 2.0500002e-10 
   99860   0.34085894    99040 2.0500002e-10 
   99870   0.40970898    99040 2.0500002e-10 
   99880   0.47879386    99040 2.0500002e-10 
   99890   0.54794097    99040 2.0500002e-10 
ssurf = 2.634703e-03 
   99900   0.61656094    99040 2.0500002e-10 
   99910    0.6865809    99040 2.0500002e-10 
   99911   0.69297194    99040 2.0500002e-10 
Loop time of 0.69312 on 1 procs for 100 steps with 99040 atoms

99.8% CPU use with 1 MPI tasks x no OpenMP threads
run 100 pre no post no
Step CPU Atoms biomass 
   99911            0    99040 2.0500002e-10 
   99920  0.061516047    99040 2.0500002e-10 
   99930   0.13087606    99040 2.0500002e-10 
   99940   0.19858289    99040 2.0500002e-10 
   99950   0.26784086    99040 2.0500002e-10 
   99960   0.33589387    99040 2.0500002e-10 
   99970   0.40415192    99040 2.0500002e-10 
   99980   0.47228408    99040 2.0500002e-10 
   99990   0.54037905    99040 2.0500002e-10 
ssurf = 2.634703e-03 
  100000     0.608603    99040 2.0500002e-10 
  100010   0.67678404    99040 2.0500002e-10 
  100011   0.68316793    99040 2.0500002e-10 
Loop time of 0.683299 on 1 procs for 100 steps with 99040 atoms

99.5% CPU use with 1 MPI tasks x no OpenMP threads
Total wall time: 3:26:21
