  Granular Flow Simulation 

       12 atoms 
       3 atom types 
       10 nutrients

   0.0   1.0e-04  xlo xhi 
   0.0   1.0e-04  ylo yhi 
   0.0   1.0e-04  zlo zhi 

 Atoms

     1 1 9.66e-7 290 5e-5 0.103e-4 5e-7 9.66e-7 aob
     2 2 9.66e-7 290 5e-5 0.136e-4 5e-7 9.66e-7 nob
     3 3 9.66e-7 290 5e-5 0.249e-4 5e-7 9.66e-7 comm
     4 1 9.66e-7 290 5e-5 0.332e-4 5e-7 9.66e-7 aob
     5 2 9.66e-7 290 5e-5 0.365e-4 5e-7 9.66e-7 nob
     6 3 9.66e-7 290 5e-5 0.490e-4 5e-7 9.66e-7 comm
     7 1 9.66e-7 290 5e-5 0.581e-4 5e-7 9.66e-7 aob
     8 2 9.66e-7 290 5e-5 0.614e-4 5e-7 9.66e-7 nob
     9 3 9.66e-7 290 5e-5 0.747e-4 5e-7 9.66e-7 comm
     10 1 9.66e-7 290 5e-5 0.83e-4 5e-7 9.66e-7 aob
     11 2 9.66e-7 290 5e-5 0.863e-4 5e-7 9.66e-7 nob
     12 3 9.66e-7 290 5e-5 0.940e-4 5e-7 9.66e-7 comm

 Nutrients

     1 nh3 l 0.002 0.002 0.002 0.002 0.002 0.002 0.002
     2 no2 l 1e-4 1e-4 1e-4 1e-4 1e-4 1e-4 1e-4
     3 no3 l 1e-20 1e-20 1e-20 1e-20 1e-20 1e-20 1e-20
     4 o2 l 2.81e-4 2.81e-4 2.81e-4 2.81e-4 2.81e-4 2.81e-4 2.81e-4
     5 co2 l 0.005 0.005 0.005 0.005 0.005 0.005 0.005
     6 go2 g 0.21 0.21 0.21 0.21 0.21 0.21 0.21
     7 gco2 g 3.09e-3 3.09e-3 3.09e-3 3.09e-3 3.09e-3 3.09e-3 3.09e-3
     8 gn2 g 0.787 0.787 0.787 0.787 0.787 0.787 0.787
     9 h2o l 1 1 1 1 1 1 1
     10 h l 0 0 0 0 0 0 0

 Diffusion Coeffs
     
     nh3 1.639e-9
     no2 1.7e-9
     no3 1.7e-9
     o2 2e-9
     co2 1.919e-9
     go2 0 
     gco2 0
     gn2 0
     h2o 0
     h 0 

 Ks
     
     aob 2e-6 0 0 9.38e-6 0 0 0 0 0 0
     nob 0 2.29e-9 0 3.44e-5 0 0 0 0 0 0
     comm 1.93e-06 0 0 9.05e-06 0 0 0 0 0 0

 Growth

     aob 0.0002725
     nob 0.000909167
     comm 0.000204444

 Yield
    
     aob 0.0836585366
     nob 0.023902439
     comm 0.1075609756

 Maintenance
 
     aob 0
     nob 0
     comm 0
 eD
    
     aob 0.9
     nob 2.9
     comm 0.725

 KLa
          
     nh3 0
     no2 0
     no3 0
     o2 0
     co2 0
     go2 0 
     gco2 0
     gn2 0
     h2o 0
     h 0 

 Decay

     aob 0
     nob 0
     comm 0

 Catabolism Coeffs
         
     aob -1 1 0 -1.5 0 0 0 0 1 1
     nob 0 -1 1 -0.5 0 0 0 0 0 0
     comm -1 0 1 -2 0 0 0 0 1 1

 Anabolism Coeffs
          
     aob -0.9 0.7 0 0 -1 0 0 0 1.1 -0.3
     nob 0 -2.9 2.7 0 -1 0 0 0 0.2 -1.2
     comm -0.725 0 0.525 0 -1 0 0 0 0.925 -0.475
 
 Decay Coeffs
           
     aob 0 0 0 0 1 0 0 0 0 0
     nob 0 0 0 0 1 0 0 0 0 0
     comm 0 0 0 0 1 0 0 0 0 0
 
 Nutrient Energy

    nh3 inf -79.37 -26.57 inf inf 3
    no2 inf -50.60 -32.20 inf inf 3
    no3 inf -103.70 -111.30 inf	inf 3
    o2 inf 16.4 inf inf inf 2
    co2 -386.00	-623.16	-586.85	-527.80	inf 3
    go2 inf 0 inf inf inf 2
    gco2 inf -394.36 inf inf inf 2
    gn2 inf 0 inf inf inf 2
    h2o inf -237.18 -157.3 inf inf 2
    h inf 0 inf inf inf 2

 Type Energy

    aob inf -67 inf inf inf 2
    nob inf -67 inf inf inf 2
    comm inf -67 inf inf inf 2

 Dissipation

    aob 3500
    nob 3500
    comm 3500

 Nutrient Charge
  
    nh3 na 1 0 na na
    no2 na 0 -1 na na
    no3 na 0 -1 na na
    o2 na 0 na na na
    co2 0 0 -1 -2 na
    go2 na 0 na na na
    gco2 na 0 na na na
    gn2 na 0 na na na
    h2o na 0 -1 na na
    h na 1 na na na

 Type Charge
  
    aob na 0 na na na
    nob na 0 na na na
    comm na 0 na na na

