  Granular Flow Simulation 

       1 atoms 
       1 atom types 
       1 nutrients

   0.0   1e-04  xlo xhi 
   0.0   1e-04  ylo yhi 
   0.0   1e-04  zlo zhi 

 Atoms

     1 1 1.5632e-6 150 5e-5 5e-5 5e-5 2e-5

 Nutrients

     1 cod l 0.02 0.03 0.03 0.03 0.03 0.03 0.03

 Type Name

     1 het

 Diffusion Coeffs
     
     cod 1e-9

 Ks
     
     het 4e-3

 Consumption Rate

     het 0.000069444

 Yield
    
     het 0.63
  
 Catabolism Coeffs
         
    het -1

 Anabolism Coeffs
         
    het 0	
