LAMMPS (5 Nov 2016)
# NUFEB simulation

atom_style	bio
atom_modify	map array sort 1000 5.0e-7
boundary	ff ff ff
newton		off
#processors  2 1 1

comm_modify	vel yes
read_data_bio atom.in
  orthogonal box = (0 0 0) to (0.0001 0.0001 0.0001)
  1 by 1 by 1 MPI processor grid
  reading atoms ...
  3 atoms
  10 nutrients

group AOB type 1
1 atoms in group AOB
group NOB type 2
1 atoms in group NOB
group COMM type 3
1 atoms in group COMM

neighbor	5.0e-7 bin
neigh_modify	delay 0 one 5000

#pair_style none
pair_style  gran/hooke/history 0.000200 NULL 0.000050 NULL 0.0 1

pair_coeff  * *
timestep 36

fix 1 all nve/limit 1e-8

#fix	 2 all gravity 1.47 vector 0 0 -1 # spherical 90.0 -180.0
#fix     3 all fdrag
fix 10 all viscous 0.1


fix xw all wall/gran hooke/history 2000 NULL 500.0 NULL 1.5 0 xplane  0.0   1.0e-04
fix yw all wall/gran hooke/history 2000 NULL 500.0 NULL 1.5 0 yplane  0.0   1.0e-04
fix zw all wall/gran hooke/history 2000 NULL 500.0 NULL 1.5 0 zplane  0.0   1.0e-04

variable kanc equal 50

fix xwa all walladh v_kanc xplane  0.0   1.0e-04
fix ywa all walladh v_kanc yplane  0.0   1.0e-04
fix zwa all walladh v_kanc zplane  0.0   1.0e-04

##############Ibm Variable Definitions##############

#Defining EPS density and ratio variables
variable EPSdens equal 30
variable EPSratio equal 1.25

variable ke equal 5e+10

#Defining kinetics variables
variable temp equal 298.15
variable gasTran equal 0.08205746
variable gvol equal 8e-14
variable rth equal 0.0083144
variable pressure equal 1
variable ph equal 7.0

#Defining diffusion variables
variable diffT equal 1e-7
variable tol equal 5e-10

##############Ibm functions##############

fix k1 all kinetics 25 25 25 v_temp v_rth v_gvol v_gasTran v_ph
fix g1 all diffusion exp v_diffT v_tol pp pp nd
#fix ki3 all kinetics/ph 1
fix ki2 all kinetics/thermo 1 fix open v_pressure
fix ki1 all kinetics/monod 1 v_EPSdens
fix d1 all divide 1 v_EPSdens 1 31231

#fix j1 all epsadh 1 v_ke 1
#fix e1 HET eps_extract 16 v_EPSratio v_EPSdens 1242242

##############Ibm compute##############

compute myMass all biomass
compute myNtypes all ntypes

##############Simulation outputs##############

#dump		id all custom 250 snapshot.bubblemd id type diameter x y z
dump            d0 all bio 500 biomass
thermo_style    custom step cpu atoms biomass c_myNtypes[*] c_myMass[2]
thermo		5
thermo_modify	lost ignore

run  5000
Neighbor list info ...
  2 neighbor list requests
  update every 1 steps, delay 0 steps, check yes
  max neighbors/atom: 5000, page size: 100000
  master list distance cutoff = 1.466e-06
  ghost atom cutoff = 1.466e-06
  binsize = 7.33e-07 -> bins = 137 137 137
Memory usage per processor = 18.9946 Mbytes
Step CPU Atoms biomass c_myNtypes[1] c_myNtypes[2] c_myNtypes[3] c_myMass[2] 
       0            0        3 4.1062866e-16            1            1            1 1.3687622e-16 
       5   0.19475603        3 4.1151574e-16            1            1            1 1.3680774e-16 
      10   0.38951802        3 4.1240619e-16            1            1            1 1.3673929e-16 
      15   0.59113002        3 4.1330002e-16            1            1            1 1.3667088e-16 
      20   0.78759503        3 4.1419725e-16            1            1            1 1.3660251e-16 
      25   0.99110794        3 4.1509788e-16            1            1            1 1.3653417e-16 
      30    1.1989689        3 4.1600193e-16            1            1            1 1.3646586e-16 
      35    1.3928699        3 4.1690941e-16            1            1            1 1.3639758e-16 
      40     1.583241        3 4.1782034e-16            1            1            1 1.3632934e-16 
      45    1.7884099        3 4.1873472e-16            1            1            1 1.3626114e-16 
      50      1.96685        3 4.1965256e-16            1            1            1 1.3619297e-16 
      55     2.160322        3 4.2057388e-16            1            1            1 1.3612483e-16 
      60    2.3579409        3 4.2149869e-16            1            1            1 1.3605673e-16 
      65     2.555099        3  4.22427e-16            1            1            1 1.3598866e-16 
      70    2.7577419        3 4.2335883e-16            1            1            1 1.3592062e-16 
      75    2.9628301        3 4.2429418e-16            1            1            1 1.3585262e-16 
      80     3.164506        3 4.2523307e-16            1            1            1 1.3578465e-16 
      85    3.3612781        3 4.2617551e-16            1            1            1 1.3571672e-16 
      90    3.5665939        3 4.2712151e-16            1            1            1 1.3564882e-16 
      95     3.779983        3 4.2807108e-16            1            1            1 1.3558096e-16 
     100    4.0187719        3 4.2902425e-16            1            1            1 1.3551313e-16 
     105    4.2605948        3 4.2998101e-16            1            1            1 1.3544533e-16 
     110     4.523634        3 4.3094139e-16            1            1            1 1.3537757e-16 
     115    4.7613459        3 4.3190539e-16            1            1            1 1.3530984e-16 
     120     5.001353        3 4.3287302e-16            1            1            1 1.3524214e-16 
     125     5.241596        3 4.3384431e-16            1            1            1 1.3517448e-16 
     130     5.553093        3 4.3481926e-16            1            1            1 1.3510685e-16 
     135     5.924382        3 4.3579788e-16            1            1            1 1.3503926e-16 
     140     6.193737        3 4.3678019e-16            1            1            1 1.349717e-16 
     145     6.492727        3 4.3776621e-16            1            1            1 1.3490417e-16 
     150    6.7736099        4 4.3875593e-16            2            1            1 1.3483668e-16 
     155     7.033534        5 4.3974938e-16            2            1            2 1.3476922e-16 
     160     7.317941        5 4.4074657e-16            2            1            2 1.3470179e-16 
     165     7.606771        5 4.4174751e-16            2            1            2 1.346344e-16 
     170    7.8529611        5 4.4275222e-16            2            1            2 1.3456705e-16 
     175    8.1399391        5 4.437607e-16            2            1            2 1.3449972e-16 
     180    8.4036019        5 4.4477298e-16            2            1            2 1.3443243e-16 
     185    8.6934021        5 4.4578905e-16            2            1            2 1.3436517e-16 
     190    8.9418569        5 4.4680895e-16            2            1            2 1.3429795e-16 
     195    9.1914449        5 4.4783268e-16            2            1            2 1.3423076e-16 
     200      9.46527        5 4.4886024e-16            2            1            2 1.3416361e-16 
     205     9.739053        5 4.4989167e-16            2            1            2 1.3409649e-16 
     210    10.032696        5 4.5092697e-16            2            1            2 1.340294e-16 
     215    10.328717        5 4.5196615e-16            2            1            2 1.3396234e-16 
     220    10.650807        5 4.5300922e-16            2            1            2 1.3389532e-16 
     225    10.943622        5 4.5405621e-16            2            1            2 1.3382833e-16 
     230    11.233796        5 4.5510712e-16            2            1            2 1.3376138e-16 
     235    11.492838        5 4.5616197e-16            2            1            2 1.3369446e-16 
     240    11.820131        5 4.5722077e-16            2            1            2 1.3362757e-16 
     245    12.126143        5 4.5828354e-16            2            1            2 1.3356072e-16 
     250    12.447515        5 4.5935028e-16            2            1            2 1.334939e-16 
     255    12.741785        5 4.6042102e-16            2            1            2 1.3342711e-16 
     260    12.972299        5 4.6149576e-16            2            1            2 1.3336036e-16 
     265    13.241216        5 4.6257452e-16            2            1            2 1.3329364e-16 
     270    13.576302        5 4.6365732e-16            2            1            2 1.3322695e-16 
     275    13.787865        5 4.6474416e-16            2            1            2 1.3316029e-16 
     280    13.999181        5 4.6583507e-16            2            1            2 1.3309367e-16 
     285    14.210917        5 4.6693005e-16            2            1            2 1.3302709e-16 
     290    14.415203        5 4.6802913e-16            2            1            2 1.3296053e-16 
     295    14.634299        5 4.691323e-16            2            1            2 1.3289401e-16 
     300    14.852629        5 4.702396e-16            2            1            2 1.3282753e-16 
     305    15.065098        5 4.7135103e-16            2            1            2 1.3276107e-16 
     310    15.269153        5 4.724666e-16            2            1            2 1.3269465e-16 
     315    15.470769        5 4.7358634e-16            2            1            2 1.3262827e-16 
     320    15.675268        5 4.7471025e-16            2            1            2 1.3256191e-16 
     325    15.894092        5 4.7583835e-16            2            1            2 1.3249559e-16 
     330    16.107049        5 4.7697066e-16            2            1            2 1.324293e-16 
     335    16.349626        5 4.7810719e-16            2            1            2 1.3236305e-16 
     340    16.553357        5 4.7924795e-16            2            1            2 1.3229683e-16 
     345    16.791681        5 4.8039295e-16            2            1            2 1.3223064e-16 
     350    17.015907        5 4.8154223e-16            2            1            2 1.3216449e-16 
     355    17.230669        5 4.8269578e-16            2            1            2 1.3209836e-16 
     360    17.456921        5 4.8385362e-16            2            1            2 1.3203228e-16 
     365    17.738347        5 4.8501577e-16            2            1            2 1.3196622e-16 
     370    17.976191        5 4.8618225e-16            2            1            2 1.319002e-16 
     375    18.210849        5 4.8735306e-16            2            1            2 1.3183421e-16 
     380     18.42684        5 4.8852822e-16            2            1            2 1.3176825e-16 
     385    18.682768        5 4.8970776e-16            2            1            2 1.3170233e-16 
     390    18.925313        5 4.9089167e-16            2            1            2 1.3163644e-16 
     395    19.168686        5 4.9207998e-16            2            1            2 1.3157058e-16 
     400    19.369015        5 4.9327271e-16            2            1            2 1.3150475e-16 
     405    19.574413        5 4.9446986e-16            2            1            2 1.3143896e-16 
     410    19.785725        5 4.9567146e-16            2            1            2 1.313732e-16 
     415    19.990022        5 4.9687752e-16            2            1            2 1.3130748e-16 
     420    20.199465        5 4.9808806e-16            2            1            2 1.3124178e-16 
     425    20.400004        5 4.9930308e-16            2            1            2 1.3117612e-16 
     430    20.618217        5 5.0052261e-16            2            1            2 1.311105e-16 
     435    20.834631        5 5.0174666e-16            2            1            2 1.310449e-16 
     440    21.049515        5 5.0297525e-16            2            1            2 1.3097934e-16 
     445    21.252329        5 5.0420839e-16            2            1            2 1.3091381e-16 
     450    21.461044        5 5.054461e-16            2            1            2 1.3084831e-16 
     455    21.666882        5 5.0668839e-16            2            1            2 1.3078285e-16 
     460     21.87179        5 5.0793528e-16            2            1            2 1.3071742e-16 
     465    22.095304        5 5.091868e-16            2            1            2 1.3065202e-16 
     470    22.345011        5 5.1044294e-16            2            1            2 1.3058666e-16 
     475    22.556252        5 5.1170373e-16            2            1            2 1.3052133e-16 
     480    22.764621        5 5.1296919e-16            2            1            2 1.3045603e-16 
     485    22.988961        5 5.1423932e-16            2            1            2 1.3039076e-16 
     490    23.219501        5 5.1551416e-16            2            1            2 1.3032552e-16 
     495     23.44254        5 5.167937e-16            2            1            2 1.3026032e-16 
     500     23.69233        5 5.1807798e-16            2            1            2 1.3019515e-16 
     505    23.924073        5  5.19367e-16            2            1            2 1.3013002e-16 
     510      24.1497        5 5.2066078e-16            2            1            2 1.3006491e-16 
     515    24.362648        5 5.2195935e-16            2            1            2 1.2999984e-16 
     520    24.588707        5 5.232627e-16            2            1            2 1.299348e-16 
     525    24.806274        5 5.2457088e-16            2            1            2 1.298698e-16 
     530    25.085086        5 5.2588387e-16            2            1            2 1.2980482e-16 
     535    25.338585        5 5.2720172e-16            2            1            2 1.2973988e-16 
     540    25.670595        5 5.2852443e-16            2            1            2 1.2967497e-16 
     545    25.992367        5 5.2985201e-16            2            1            2 1.296101e-16 
     550    26.261112        5 5.3118449e-16            2            1            2 1.2954525e-16 
     555    26.490576        5 5.3252189e-16            2            1            2 1.2948044e-16 
     560    26.790286        5 5.3386422e-16            2            1            2 1.2941566e-16 
     565    27.017645        5 5.3521149e-16            2            1            2 1.2935091e-16 
     570    27.268239        5 5.3656372e-16            2            1            2 1.292862e-16 
     575    27.503883        5 5.3792094e-16            2            1            2 1.2922152e-16 
     580    27.747037        5 5.3928316e-16            2            1            2 1.2915687e-16 
     585    27.977452        5 5.4065039e-16            2            1            2 1.2909225e-16 
     590    28.187616        5 5.4202266e-16            2            1            2 1.2902767e-16 
     595    28.425019        5 5.4339998e-16            2            1            2 1.2896311e-16 
     600    28.650287        5 5.4478237e-16            2            1            2 1.2889859e-16 
     605     28.86074        5 5.4616984e-16            2            1            2 1.2883411e-16 
     610    29.079068        5 5.4756241e-16            2            1            2 1.2876965e-16 
     615    29.292104        5 5.4896011e-16            2            1            2 1.2870523e-16 
     620    29.502654        5 5.5036295e-16            2            1            2 1.2864084e-16 
     625    29.730368        5 5.5177094e-16            2            1            2 1.2857648e-16 
     630    29.955593        5 5.5318411e-16            2            1            2 1.2851215e-16 
     635    30.173494        5 5.5460248e-16            2            1            2 1.2844786e-16 
     640    30.398147        5 5.5602605e-16            2            1            2 1.2838359e-16 
     645    30.617813        5 5.5745485e-16            2            1            2 1.2831936e-16 
     650    30.852281        5 5.588889e-16            2            1            2 1.2825516e-16 
     655    31.076702        5 5.6032822e-16            2            1            2  1.28191e-16 
     660    31.298312        5 5.6177281e-16            2            1            2 1.2812686e-16 
     665    31.525694        5 5.6322271e-16            2            1            2 1.2806276e-16 
     670    31.756069        5 5.6467794e-16            2            1            2 1.2799869e-16 
     675    31.976278        5 5.661385e-16            2            1            2 1.2793465e-16 
     680     32.18567        5 5.6760441e-16            2            1            2 1.2787065e-16 
     685    32.431599        5 5.6907571e-16            2            1            2 1.2780668e-16 
     690    32.651439        5 5.7055239e-16            2            1            2 1.2774273e-16 
     695     32.88024        5 5.7203449e-16            2            1            2 1.2767882e-16 
     700    33.129254        5 5.7352203e-16            2            1            2 1.2761495e-16 
     705    33.356533        5 5.7501501e-16            2            1            2 1.275511e-16 
     710    33.575923        5 5.7651347e-16            2            1            2 1.2748729e-16 
     715    33.794265        5 5.7801741e-16            2            1            2 1.2742351e-16 
     720    34.066374        5 5.7952686e-16            2            1            2 1.2735976e-16 
     725    34.304153        5 5.8104184e-16            2            1            2 1.2729604e-16 
     730    34.559444        5 5.8256236e-16            2            1            2 1.2723235e-16 
     735    34.805344        5 5.8408845e-16            2            1            2 1.271687e-16 
     740    35.011765        5 5.8562013e-16            2            1            2 1.2710507e-16 
     745    35.261693        5 5.8715741e-16            2            1            2 1.2704148e-16 
     750    35.469563        5 5.8870031e-16            2            1            2 1.2697792e-16 
     755    35.678326        5 5.9024886e-16            2            1            2 1.269144e-16 
     760    35.913396        5 5.9180307e-16            2            1            2 1.268509e-16 
     765    36.175799        5 5.9336296e-16            2            1            2 1.2678744e-16 
     770     36.39736        5 5.9492855e-16            2            1            2 1.2672401e-16 
     775    36.616989        5 5.9649987e-16            2            1            2 1.2666061e-16 
     780    36.870006        5 5.9807692e-16            2            1            2 1.2659724e-16 
     785    37.124613        5 5.9965974e-16            2            1            2 1.265339e-16 
     790     37.33942        5 6.0124834e-16            2            1            2 1.264706e-16 
     795    37.564135        5 6.0284275e-16            2            1            2 1.2640732e-16 
     800    37.797669        5 6.0444297e-16            2            1            2 1.2634408e-16 
     805    38.015477        5 6.0604904e-16            2            1            2 1.2628087e-16 
     810    38.229013        5 6.0766097e-16            2            1            2 1.2621769e-16 
     815     38.43756        5 6.0927878e-16            2            1            2 1.2615455e-16 
     820    38.643697        5 6.109025e-16            2            1            2 1.2609143e-16 
     825    38.862044        5 6.1253214e-16            2            1            2 1.2602835e-16 
     830    39.071758        5 6.1416772e-16            2            1            2 1.259653e-16 
     835    39.303376        5 6.1580927e-16            2            1            2 1.2590228e-16 
     840    39.527705        5 6.1745681e-16            2            1            2 1.2583929e-16 
     845    39.746999        5 6.1911035e-16            2            1            2 1.2577633e-16 
     850    39.963955        5 6.2076992e-16            2            1            2 1.257134e-16 
     855    40.175949        5 6.2243554e-16            2            1            2 1.2565051e-16 
     860    40.380967        5 6.2410723e-16            2            1            2 1.2558765e-16 
     865    40.623742        5 6.2578501e-16            2            1            2 1.2552482e-16 
     870    40.839667        5 6.2746889e-16            2            1            2 1.2546202e-16 
     875     41.11205        5 6.2915892e-16            2            1            2 1.2539925e-16 
     880    41.321253        5 6.3085509e-16            2            1            2 1.2533651e-16 
     885    41.551977        5 6.3255745e-16            2            1            2 1.252738e-16 
     890    41.779732        5  6.34266e-16            2            1            2 1.2521113e-16 
     895     41.98534        5 6.3598076e-16            2            1            2 1.2514849e-16 
     900    42.184175        5 6.3770177e-16            2            1            2 1.2508587e-16 
     905    42.398052        5 6.3942904e-16            2            1            2 1.2502329e-16 
     910    42.603968        5 6.411626e-16            2            1            2 1.2496074e-16 
     915    42.815417        5 6.4290246e-16            2            1            2 1.2489823e-16 
     920    43.064855        5 6.4464864e-16            2            1            2 1.2483574e-16 
     925    43.283687        5 6.4640118e-16            2            1            2 1.2477329e-16 
     930     43.50192        5 6.4816009e-16            2            1            2 1.2471086e-16 
     935    43.712724        5 6.4992539e-16            2            1            2 1.2464847e-16 
     940    43.927925        5 6.516971e-16            2            1            2 1.2458611e-16 
     945    44.194664        5 6.5347526e-16            2            1            2 1.2452378e-16 
     950    44.407963        5 6.5525987e-16            2            1            2 1.2446148e-16 
     955       44.618        6 6.5705097e-16            2            1            3 1.2439921e-16 
     960    44.829183        6 6.5884858e-16            2            1            3 1.2433697e-16 
     965    45.071916        6 6.6065271e-16            2            1            3 1.2427477e-16 
     970    45.266668        6 6.6246339e-16            2            1            3 1.2421259e-16 
     975    45.467971        6 6.6428065e-16            2            1            3 1.2415045e-16 
     980    45.690833        6 6.661045e-16            2            1            3 1.2408834e-16 
     985    45.934778        6 6.6793497e-16            2            1            3 1.2402625e-16 
     990    46.148215        7 6.6977209e-16            3            1            3 1.239642e-16 
     995    46.350199        7 6.7161587e-16            3            1            3 1.2390218e-16 
    1000     46.59091        7 6.7346633e-16            3            1            3 1.238402e-16 
    1005    46.816396        7 6.7532351e-16            3            1            3 1.2377824e-16 
    1010    47.028268        7 6.7718743e-16            3            1            3 1.2371631e-16 
    1015    47.270446        7 6.790581e-16            3            1            3 1.2365442e-16 
    1020    47.519817        7 6.8093556e-16            3            1            3 1.2359255e-16 
    1025    47.735725        7 6.8281982e-16            3            1            3 1.2353072e-16 
    1030    47.978367        7 6.8471091e-16            3            1            3 1.2346892e-16 
    1035    48.203817        7 6.8660885e-16            3            1            3 1.2340715e-16 
    1040    48.420533        7 6.8851368e-16            3            1            3 1.2334541e-16 
    1045     48.67178        7 6.904254e-16            3            1            3 1.232837e-16 
    1050    48.900619        7 6.9234404e-16            3            1            3 1.2322202e-16 
    1055    49.156702        7 6.9426964e-16            3            1            3 1.2316037e-16 
    1060    49.384199        7 6.9620221e-16            3            1            3 1.2309875e-16 
    1065    49.608951        7 6.9814177e-16            3            1            3 1.2303717e-16 
    1070    49.872475        7 7.0008836e-16            3            1            3 1.2297561e-16 
    1075    50.122426        7 7.0204199e-16            3            1            3 1.2291409e-16 
    1080    50.374754        7 7.040027e-16            3            1            3 1.2285259e-16 
    1085    50.600678        7 7.059705e-16            3            1            3 1.2279113e-16 
    1090    50.898681        7 7.0794541e-16            3            1            3 1.227297e-16 
    1095    51.149845        7 7.0992748e-16            3            1            3 1.2266829e-16 
    1100    51.371228        7 7.1191671e-16            3            1            3 1.2260692e-16 
    1105    51.628823        7 7.1391314e-16            3            1            3 1.2254558e-16 
    1110    51.856682        7 7.1591678e-16            3            1            3 1.2248427e-16 
    1115    52.084545        7 7.1792767e-16            3            1            3  1.22423e-16 
    1120    52.307242        7 7.1994583e-16            3            1            3 1.2236175e-16 
    1125    52.535423        7 7.2197129e-16            3            1            3 1.2230053e-16 
    1130    52.768923        7 7.2400407e-16            3            1            3 1.2223934e-16 
    1135    53.006017        7 7.2604419e-16            3            1            3 1.2217819e-16 
    1140     53.24548        7 7.2809168e-16            3            1            3 1.2211706e-16 
    1145    53.475906        7 7.3014657e-16            3            1            3 1.2205597e-16 
    1150    53.733116        7 7.3220888e-16            3            1            3 1.219949e-16 
    1155    54.006449        7 7.3427864e-16            3            1            3 1.2193387e-16 
    1160    54.233595        7 7.3635588e-16            3            1            3 1.2187286e-16 
    1165    54.448966        7 7.3844061e-16            3            1            3 1.2181189e-16 
    1170    54.663782        7 7.4053288e-16            3            1            3 1.2175095e-16 
    1175    54.875361        7 7.4263269e-16            3            1            3 1.2169004e-16 
    1180    55.090439        7 7.4474009e-16            3            1            3 1.2162915e-16 
    1185    55.317564        7 7.4685509e-16            3            1            3 1.215683e-16 
    1190    55.557483        7 7.4897772e-16            3            1            3 1.2150748e-16 
    1195    55.773014        7 7.5110801e-16            3            1            3 1.2144669e-16 
    1200    56.008902        7 7.5324598e-16            3            1            3 1.2138593e-16 
    1205    56.241262        7 7.5539167e-16            3            1            3 1.213252e-16 
    1210    56.492035        7 7.5754509e-16            3            1            3 1.212645e-16 
    1215    56.733305        7 7.5970629e-16            3            1            3 1.2120384e-16 
    1220    56.988837        7 7.6187527e-16            3            1            3 1.211432e-16 
    1225     57.21643        7 7.6405207e-16            3            1            3 1.2108259e-16 
    1230    57.446788        7 7.6623672e-16            3            1            3 1.2102201e-16 
    1235    57.659076        7 7.6842925e-16            3            1            3 1.2096146e-16 
    1240    57.869297        7 7.7062967e-16            3            1            3 1.2090095e-16 
    1245    58.087281        7 7.7283803e-16            3            1            3 1.2084046e-16 
    1250    58.311043        7 7.7505434e-16            3            1            3   1.2078e-16 
    1255    58.529489        7 7.7727863e-16            3            1            3 1.2071958e-16 
    1260    58.744333        7 7.7951094e-16            3            1            3 1.2065918e-16 
    1265    58.959553        7 7.8175129e-16            3            1            3 1.2059882e-16 
    1270    59.173541        7 7.8399971e-16            3            1            3 1.2053848e-16 
    1275    59.382761        8 7.8625622e-16            4            1            3 1.2047818e-16 
    1280    59.598423        8 7.8852085e-16            4            1            3 1.204179e-16 
    1285    59.818445        8 7.9079364e-16            4            1            3 1.2035766e-16 
    1290    60.028179        8 7.9307461e-16            4            1            3 1.2029744e-16 
    1295    60.233761        8 7.9536379e-16            4            1            3 1.2023726e-16 
    1300    60.479253        8 7.9766121e-16            4            1            3 1.201771e-16 
    1305    60.698388        8 7.9996689e-16            4            1            3 1.2011698e-16 
    1310    60.924704        8 8.0228087e-16            4            1            3 1.2005688e-16 
    1315    61.148646        8 8.0460317e-16            4            1            3 1.1999682e-16 
    1320    61.376331        8 8.0693383e-16            4            1            3 1.1993678e-16 
    1325    61.599676        8 8.0927287e-16            4            1            3 1.1987678e-16 
    1330    61.820796        8 8.1162032e-16            4            1            3 1.198168e-16 
    1335    62.047946        8 8.1397621e-16            4            1            3 1.1975686e-16 
    1340    62.277781        8 8.1634057e-16            4            1            3 1.1969695e-16 
    1345    62.500355        8 8.1871343e-16            4            1            3 1.1963706e-16 
    1350    62.729237        8 8.2109482e-16            4            1            3 1.1957721e-16 
    1355    62.941577        8 8.2348477e-16            4            1            3 1.1951738e-16 
    1360    63.200306        8 8.2588331e-16            4            1            3 1.1945759e-16 
    1365    63.443699        8 8.2829047e-16            4            1            3 1.1939782e-16 
    1370    63.691628        8 8.3070627e-16            4            1            3 1.1933809e-16 
    1375    63.900215        8 8.3313076e-16            4            1            3 1.1927838e-16 
    1380      64.0957        8 8.3556395e-16            4            1            3 1.1921871e-16 
    1385    64.336735        8 8.3800588e-16            4            1            3 1.1915906e-16 
    1390    64.554626        8 8.4045658e-16            4            1            3 1.1909945e-16 
    1395    64.772881        8 8.4291609e-16            4            1            3 1.1903986e-16 
    1400    64.997531        8 8.4538442e-16            4            1            3 1.1898031e-16 
    1405    65.208498        8 8.4786161e-16            4            1            3 1.1892078e-16 
    1410    65.408904        8 8.503477e-16            4            1            3 1.1886129e-16 
    1415    65.621104        8 8.5284271e-16            4            1            3 1.1880182e-16 
    1420    65.843595        8 8.5534668e-16            4            1            3 1.1874238e-16 
    1425    66.050197        8 8.5785963e-16            4            1            3 1.1868298e-16 
    1430      66.2505        9 8.603816e-16            4            1            4 1.186236e-16 
    1435    66.489966        9 8.6291261e-16            4            1            4 1.1856425e-16 
    1440    66.691104        9 8.6545271e-16            4            1            4 1.1850493e-16 
    1445    66.900467        9 8.6800192e-16            4            1            4 1.1844565e-16 
    1450    67.112787        9 8.7056027e-16            4            1            4 1.1838639e-16 
    1455    67.352447        9 8.7312779e-16            4            1            4 1.1832716e-16 
    1460     67.56104        9 8.7570453e-16            4            1            4 1.1826796e-16 
    1465    67.841233        9 8.782905e-16            4            1            4 1.1820879e-16 
    1470     68.09607        9 8.8088574e-16            4            1            4 1.1814965e-16 
    1475    68.310894        9 8.8349029e-16            4            1            4 1.1809054e-16 
    1480    68.512828        9 8.8610417e-16            4            1            4 1.1803146e-16 
    1485    68.722805        9 8.8872743e-16            4            1            4 1.1797241e-16 
    1490    68.942064        9 8.9136008e-16            4            1            4 1.1791339e-16 
    1495    69.152988        9 8.9400216e-16            4            1            4 1.1785439e-16 
    1500    69.363932        9 8.9665372e-16            4            1            4 1.1779543e-16 
    1505    69.576374        9 8.9931477e-16            4            1            4 1.177365e-16 
    1510    69.798716        9 9.0198536e-16            4            1            4 1.176776e-16 
    1515    70.031907        9 9.0466551e-16            4            1            4 1.1761872e-16 
    1520     70.26488        9 9.0735526e-16            4            1            4 1.1755988e-16 
    1525    70.498203        9 9.1005464e-16            4            1            4 1.1750106e-16 
    1530    70.720294        9 9.1276369e-16            4            1            4 1.1744228e-16 
    1535    70.930861        9 9.1548244e-16            4            1            4 1.1738352e-16 
    1540    71.166796        9 9.1821093e-16            4            1            4 1.1732479e-16 
    1545    71.413215        9 9.2094918e-16            4            1            4 1.1726609e-16 
    1550    71.647071        9 9.2369723e-16            4            1            4 1.1720743e-16 
    1555    71.906224        9 9.2645512e-16            4            1            4 1.1714879e-16 
    1560    72.130441        9 9.2922288e-16            4            1            4 1.1709018e-16 
    1565    72.344145        9 9.3200055e-16            4            1            4 1.170316e-16 
    1570    72.566361        9 9.3478815e-16            4            1            4 1.1697305e-16 
    1575    72.802069        9 9.3758572e-16            4            1            4 1.1691453e-16 
    1580     73.06456        9 9.4039331e-16            4            1            4 1.1685603e-16 
    1585    73.275262        9 9.4321094e-16            4            1            4 1.1679757e-16 
    1590    73.488434        9 9.4603864e-16            4            1            4 1.1673914e-16 
    1595    73.701781        9 9.4887646e-16            4            1            4 1.1668073e-16 
    1600     73.91233        9 9.5172443e-16            4            1            4 1.1662236e-16 
    1605    74.118893        9 9.5458258e-16            4            1            4 1.1656401e-16 
    1610    74.327674        9 9.5745095e-16            4            1            4 1.1650569e-16 
    1615    74.536938        9 9.6032958e-16            4            1            4 1.1644741e-16 
    1620    74.756388        9 9.632185e-16            4            1            4 1.1638915e-16 
    1625    75.022173        9 9.6611774e-16            4            1            4 1.1633092e-16 
    1630    75.227202        9 9.6902735e-16            4            1            4 1.1627272e-16 
    1635    75.434373        9 9.7194735e-16            4            1            4 1.1621455e-16 
    1640    75.655796        9 9.7487779e-16            4            1            4 1.161564e-16 
    1645      75.8654        9 9.7781871e-16            4            1            4 1.1609829e-16 
    1650    76.068853        9 9.8077012e-16            4            1            4 1.1604021e-16 
    1655    76.272963        9 9.8373209e-16            4            1            4 1.1598215e-16 
    1660    76.539209        9 9.8670463e-16            4            1            4 1.1592413e-16 
    1665    76.794702        9 9.8968779e-16            4            1            4 1.1586613e-16 
    1670     77.02309        9 9.9268161e-16            4            1            4 1.1580816e-16 
    1675      77.2491        9 9.9568612e-16            4            1            4 1.1575022e-16 
    1680    77.458903        9 9.9870136e-16            4            1            4 1.1569231e-16 
    1685    77.682453        9 1.0017274e-15            4            1            4 1.1563443e-16 
    1690    77.890773        9 1.0047642e-15            4            1            4 1.1557658e-16 
    1695    78.097802        9 1.0078118e-15            4            1            4 1.1551876e-16 
    1700     78.32625        9 1.0108704e-15            4            1            4 1.1546096e-16 
    1705    78.545477        9 1.0139398e-15            4            1            4 1.154032e-16 
    1710    78.754904        9 1.0170202e-15            4            1            4 1.1534546e-16 
    1715    78.973009        9 1.0201116e-15            4            1            4 1.1528775e-16 
    1720    79.184087        9 1.023214e-15            4            1            4 1.1523008e-16 
    1725    79.391808        9 1.0263275e-15            4            1            4 1.1517243e-16 
    1730    79.620478        9 1.0294522e-15            4            1            4 1.1511481e-16 
    1735    79.879867        9 1.0325879e-15            4            1            4 1.1505721e-16 
    1740     80.12889        9 1.0357349e-15            4            1            4 1.1499965e-16 
    1745    80.376742        9 1.038893e-15            4            1            4 1.1494212e-16 
    1750    80.584558        9 1.0420625e-15            4            1            4 1.1488461e-16 
    1755    80.803506        9 1.0452432e-15            4            1            4 1.1482713e-16 
    1760    81.023168        9 1.0484353e-15            4            1            4 1.1476969e-16 
    1765    81.239772        9 1.0516388e-15            4            1            4 1.1471227e-16 
    1770    81.449133        9 1.0548537e-15            4            1            4 1.1465488e-16 
    1775    81.689257        9  1.05808e-15            4            1            4 1.1459751e-16 
    1780    81.911568        9 1.0613179e-15            4            1            4 1.1454018e-16 
    1785    82.131366        9 1.0645673e-15            4            1            4 1.1448288e-16 
    1790    82.362853        9 1.0678282e-15            4            1            4 1.144256e-16 
    1795    82.587876        9 1.0711008e-15            4            1            4 1.1436835e-16 
    1800    82.832946        9 1.0743851e-15            4            1            4 1.1431114e-16 
    1805    83.041573        9 1.0776811e-15            4            1            4 1.1425395e-16 
    1810    83.264009        9 1.0809888e-15            4            1            4 1.1419678e-16 
    1815    83.468369        9 1.0843083e-15            4            1            4 1.1413965e-16 
    1820    83.678583        9 1.0876396e-15            4            1            4 1.1408255e-16 
    1825    83.926472        9 1.0909828e-15            4            1            4 1.1402547e-16 
    1830    84.190805        9 1.094338e-15            4            1            4 1.1396843e-16 
    1835    84.442841       10 1.097705e-15            4            1            5 1.1391141e-16 
    1840    84.708709       10 1.1010841e-15            4            1            5 1.1385442e-16 
    1845    84.975848       10 1.1044752e-15            4            1            5 1.1379746e-16 
    1850    85.211673       10 1.1078783e-15            4            1            5 1.1374052e-16 
    1855    85.424582       10 1.1112936e-15            4            1            5 1.1368362e-16 
    1860    85.634727       10 1.1147211e-15            4            1            5 1.1362674e-16 
    1865    85.885962       10 1.1181607e-15            4            1            5 1.135699e-16 
    1870    86.111789       10 1.1216126e-15            4            1            5 1.1351308e-16 
    1875     86.36483       10 1.1250768e-15            4            1            5 1.1345629e-16 
    1880    86.601139       10 1.1285533e-15            4            1            5 1.1339952e-16 
    1885    86.823802       10 1.1320422e-15            4            1            5 1.1334279e-16 
    1890    87.074514       10 1.1355435e-15            4            1            5 1.1328608e-16 
    1895    87.301906       10 1.1390573e-15            4            1            5 1.1322941e-16 
    1900    87.553273       10 1.1425836e-15            4            1            5 1.1317276e-16 
    1905    87.758863       11 1.1461224e-15            5            1            5 1.1311614e-16 
    1910    87.969197       11 1.1496738e-15            5            1            5 1.1305955e-16 
    1915    88.266992       11 1.1532378e-15            5            1            5 1.1300298e-16 
    1920    88.504516       11 1.1568146e-15            5            1            5 1.1294645e-16 
    1925    88.734104       11 1.160404e-15            5            1            5 1.1288994e-16 
    1930    89.018625       11 1.1640063e-15            5            1            5 1.1283346e-16 
    1935    89.257186       11 1.1676213e-15            5            1            5 1.1277701e-16 
    1940    89.462318       11 1.1712492e-15            5            1            5 1.1272059e-16 
    1945    89.680237       11  1.17489e-15            5            1            5 1.1266419e-16 
    1950    89.904682       11 1.1785437e-15            5            1            5 1.1260783e-16 
    1955    90.116348       11 1.1822105e-15            5            1            5 1.1255149e-16 
    1960    90.335258       11 1.1858902e-15            5            1            5 1.1249518e-16 
    1965    90.548928       11 1.1895831e-15            5            1            5 1.124389e-16 
    1970    90.755982       11 1.1932891e-15            5            1            5 1.1238265e-16 
    1975    90.961414       11 1.1970083e-15            5            1            5 1.1232642e-16 
    1980    91.176442       11 1.2007406e-15            5            1            5 1.1227023e-16 
    1985    91.389648       11 1.2044863e-15            5            1            5 1.1221406e-16 
    1990    91.597247       11 1.2082453e-15            5            1            5 1.1215792e-16 
    1995    91.805977       11 1.2120176e-15            5            1            5 1.121018e-16 
    2000    92.039162       11 1.2158033e-15            5            1            5 1.1204572e-16 
    2005    92.243964       11 1.2196025e-15            5            1            5 1.1198966e-16 
    2010     92.45481       11 1.2234152e-15            5            1            5 1.1193363e-16 
    2015    92.675075       11 1.2272414e-15            5            1            5 1.1187763e-16 
    2020    92.880651       12 1.2310812e-15            6            1            5 1.1182166e-16 
    2025    93.103848       12 1.2349347e-15            6            1            5 1.1176572e-16 
    2030    93.329509       12 1.2388018e-15            6            1            5 1.117098e-16 
    2035    93.557753       12 1.2426827e-15            6            1            5 1.1165391e-16 
    2040    93.785936       12 1.2465774e-15            6            1            5 1.1159805e-16 
    2045    93.999185       12 1.2504859e-15            6            1            5 1.1154222e-16 
    2050    94.216911       13 1.2544083e-15            7            1            5 1.1148641e-16 
    2055    94.418539       13 1.2583446e-15            7            1            5 1.1143064e-16 
    2060    94.638346       13 1.2622949e-15            7            1            5 1.1137489e-16 
    2065    94.845433       13 1.2662593e-15            7            1            5 1.1131917e-16 
    2070    95.055485       13 1.2702377e-15            7            1            5 1.1126348e-16 
    2075    95.328189       13 1.2742302e-15            7            1            5 1.1120781e-16 
    2080    95.560906       13 1.2782369e-15            7            1            5 1.1115217e-16 
    2085    95.801594       13 1.2822578e-15            7            1            5 1.1109656e-16 
    2090    96.020762       13 1.286293e-15            7            1            5 1.1104098e-16 
    2095    96.252949       13 1.2903425e-15            7            1            5 1.1098543e-16 
    2100    96.487299       13 1.2944064e-15            7            1            5 1.109299e-16 
    2105    96.718268       13 1.2984848e-15            7            1            5 1.108744e-16 
    2110    96.947062       13 1.3025775e-15            7            1            5 1.1081893e-16 
    2115     97.17131       13 1.3066849e-15            7            1            5 1.1076349e-16 
    2120    97.407879       13 1.3108067e-15            7            1            5 1.1070808e-16 
    2125    97.625959       13 1.3149433e-15            7            1            5 1.1065269e-16 
    2130     97.84399       14 1.3190945e-15            7            1            6 1.1059733e-16 
    2135    98.078319       14 1.3232604e-15            7            1            6  1.10542e-16 
    2140     98.29623       14 1.3274411e-15            7            1            6 1.1048669e-16 
    2145    98.516212       14 1.3316366e-15            7            1            6 1.1043142e-16 
    2150    98.730629       14 1.335847e-15            7            1            6 1.1037617e-16 
    2155    98.951279       14 1.3400724e-15            7            1            6 1.1032095e-16 
    2160    99.180472       14 1.3443127e-15            7            1            6 1.1026575e-16 
    2165    99.401038       14 1.3485681e-15            7            1            6 1.1021059e-16 
    2170    99.618057       14 1.3528385e-15            7            1            6 1.1015545e-16 
    2175    99.828309       14 1.3571241e-15            7            1            6 1.1010034e-16 
    2180    100.03962       14 1.3614249e-15            7            1            6 1.1004525e-16 
    2185    100.26244       14 1.365741e-15            7            1            6 1.099902e-16 
    2190    100.51947       14 1.3700724e-15            7            1            6 1.0993517e-16 
    2195    100.79741       14 1.3744191e-15            7            1            6 1.0988017e-16 
    2200    101.00687       14 1.3787812e-15            7            1            6 1.098252e-16 
    2205    101.22189       14 1.3831588e-15            7            1            6 1.0977025e-16 
    2210    101.44206       15 1.3875519e-15            7            1            7 1.0971533e-16 
    2215    101.65739       15 1.3919606e-15            7            1            7 1.0966044e-16 
    2220     101.8708       15 1.3963849e-15            7            1            7 1.0960558e-16 
    2225    102.08569       15 1.4008248e-15            7            1            7 1.0955074e-16 
    2230     102.3057       15 1.4052806e-15            7            1            7 1.0949594e-16 
    2235    102.52401       15 1.4097521e-15            7            1            7 1.0944116e-16 
    2240    102.74859       15 1.4142394e-15            7            1            7 1.093864e-16 
    2245    102.96466       15 1.4187427e-15            7            1            7 1.0933168e-16 
    2250    103.17112       15 1.4232619e-15            7            1            7 1.0927698e-16 
    2255     103.3905       15 1.4277971e-15            7            1            7 1.0922231e-16 
    2260    103.62054       15 1.4323484e-15            7            1            7 1.0916766e-16 
    2265    103.88658       15 1.4369158e-15            7            1            7 1.0911305e-16 
    2270    104.11875       15 1.4414994e-15            7            1            7 1.0905846e-16 
    2275    104.32296       15 1.4460992e-15            7            1            7 1.0900389e-16 
    2280    104.52662       15 1.4507154e-15            7            1            7 1.0894936e-16 
    2285    104.73286       15 1.4553478e-15            7            1            7 1.0889485e-16 
    2290    104.94447       15 1.4599967e-15            7            1            7 1.0884037e-16 
    2295    105.15187       15 1.4646621e-15            7            1            7 1.0878592e-16 
    2300    105.36473       15 1.4693439e-15            7            1            7 1.0873149e-16 
    2305    105.62776       15 1.4740424e-15            7            1            7 1.086771e-16 
    2310    105.85617       15 1.4787575e-15            7            1            7 1.0862272e-16 
    2315    106.08768       15 1.4834892e-15            7            1            7 1.0856838e-16 
    2320    106.32175       15 1.4882378e-15            7            1            7 1.0851406e-16 
    2325     106.5503       15 1.4930031e-15            7            1            7 1.0845977e-16 
    2330    106.76102       15 1.4977853e-15            7            1            7 1.0840551e-16 
    2335    106.97733       15 1.5025845e-15            7            1            7 1.0835128e-16 
    2340    107.18824       15 1.5074006e-15            7            1            7 1.0829707e-16 
    2345    107.42759       15 1.5122338e-15            7            1            7 1.0824289e-16 
    2350     107.6125       15 1.5170841e-15            7            1            7 1.0818873e-16 
    2355    107.81718       15 1.5219515e-15            7            1            7 1.0813461e-16 
    2360    108.02144       15 1.5268362e-15            7            1            7 1.0808051e-16 
    2365    108.22664       15 1.5317382e-15            7            1            7 1.0802643e-16 
    2370    108.43301       15 1.5366575e-15            7            1            7 1.0797239e-16 
    2375    108.63966       15 1.5415942e-15            7            1            7 1.0791837e-16 
    2380    108.84776       15 1.5465484e-15            7            1            7 1.0786438e-16 
    2385    109.05885       15 1.5515202e-15            7            1            7 1.0781041e-16 
    2390    109.27965       15 1.5565095e-15            7            1            7 1.0775648e-16 
    2395    109.48752       15 1.5615165e-15            7            1            7 1.0770257e-16 
    2400    109.68785       15 1.5665411e-15            7            1            7 1.0764868e-16 
    2405    109.89739       15 1.5715836e-15            7            1            7 1.0759483e-16 
    2410    110.11047       15 1.5766439e-15            7            1            7  1.07541e-16 
    2415    110.31781       15 1.5817221e-15            7            1            7 1.0748719e-16 
    2420    110.54682       15 1.5868182e-15            7            1            7 1.0743342e-16 
    2425    110.80494       15 1.5919324e-15            7            1            7 1.0737967e-16 
    2430    111.00457       15 1.5970647e-15            7            1            7 1.0732595e-16 
    2435    111.20801       15 1.6022151e-15            7            1            7 1.0727225e-16 
    2440    111.40886       15 1.6073838e-15            7            1            7 1.0721858e-16 
    2445    111.59959       15 1.6125707e-15            7            1            7 1.0716494e-16 
    2450    111.79685       15 1.6177759e-15            7            1            7 1.0711133e-16 
    2455    111.99719       15 1.6229996e-15            7            1            7 1.0705774e-16 
    2460    112.20352       15 1.6282417e-15            7            1            7 1.0700418e-16 
    2465    112.39872       15 1.6335024e-15            7            1            7 1.0695064e-16 
    2470    112.58919       15 1.6387817e-15            7            1            7 1.0689714e-16 
    2475    112.75793       15 1.6440796e-15            7            1            7 1.0684366e-16 
    2480    112.93195       16 1.6493963e-15            8            1            7 1.067902e-16 
    2485    113.11054       16 1.6547318e-15            8            1            7 1.0673678e-16 
    2490    113.29006       16 1.6600861e-15            8            1            7 1.0668337e-16 
    2495    113.47898       16 1.6654593e-15            8            1            7   1.0663e-16 
    2500    113.64251       16 1.6708516e-15            8            1            7 1.0657665e-16 
    2505    113.82563       16 1.6762629e-15            8            1            7 1.0652333e-16 
    2510    114.01672       16 1.6816933e-15            8            1            7 1.0647004e-16 
    2515     114.2455       16 1.6871429e-15            8            1            7 1.0641677e-16 
    2520    114.45418       16 1.6926118e-15            8            1            7 1.0636353e-16 
    2525    114.64996       16   1.6981e-15            8            1            7 1.0631032e-16 
    2530    114.85679       16 1.7036076e-15            8            1            7 1.0625713e-16 
    2535    115.04885       16 1.7091346e-15            8            1            7 1.0620397e-16 
    2540    115.21646       16 1.7146812e-15            8            1            7 1.0615084e-16 
    2545    115.40533       16 1.7202474e-15            8            1            7 1.0609773e-16 
    2550    115.58429       16 1.7258333e-15            8            1            7 1.0604465e-16 
    2555    115.77039       16 1.7314388e-15            8            1            7 1.059916e-16 
    2560    115.92882       16 1.7370642e-15            8            1            7 1.0593857e-16 
    2565     116.0973       16 1.7427095e-15            8            1            7 1.0588557e-16 
    2570    116.25097       16 1.7483747e-15            8            1            7 1.0583259e-16 
    2575    116.42248       16 1.7540599e-15            8            1            7 1.0577964e-16 
    2580    116.60073       16 1.7597652e-15            8            1            7 1.0572672e-16 
    2585    116.79304       16 1.7654907e-15            8            1            7 1.0567383e-16 
    2590     116.9572       16 1.7712363e-15            8            1            7 1.0562096e-16 
    2595    117.12708       16 1.7770023e-15            8            1            7 1.0556812e-16 
    2600    117.32747       16 1.7827886e-15            8            1            7 1.055153e-16 
    2605    117.55144       16 1.7885954e-15            8            1            7 1.0546251e-16 
    2610    117.74642       16 1.7944227e-15            8            1            7 1.0540975e-16 
    2615    117.95864       16 1.8002705e-15            8            1            7 1.0535701e-16 
    2620    118.16859       16 1.806139e-15            8            1            7 1.053043e-16 
    2625    118.37481       16 1.8120282e-15            8            1            7 1.0525162e-16 
    2630    118.57772       16 1.8179382e-15            8            1            7 1.0519896e-16 
    2635      118.778       16 1.8238691e-15            8            1            7 1.0514633e-16 
    2640    118.97878       16 1.8298209e-15            8            1            7 1.0509373e-16 
    2645    119.16958       16 1.8357938e-15            8            1            7 1.0504115e-16 
    2650    119.35062       16 1.8417877e-15            8            1            7 1.049886e-16 
    2655    119.54275       16 1.8478028e-15            8            1            7 1.0493607e-16 
    2660    119.70828       16 1.8538391e-15            8            1            7 1.0488357e-16 
    2665    119.88569       16 1.8598967e-15            8            1            7 1.048311e-16 
    2670     120.0653       16 1.8659757e-15            8            1            7 1.0477865e-16 
    2675    120.25311       16 1.8720761e-15            8            1            7 1.0472623e-16 
    2680    120.43131       16 1.8781981e-15            8            1            7 1.0467384e-16 
    2685    120.60628       16 1.8843417e-15            8            1            7 1.0462147e-16 
    2690    120.77851       16 1.890507e-15            8            1            7 1.0456912e-16 
    2695    120.97142       16 1.896694e-15            8            1            7 1.0451681e-16 
    2700    121.17184       16 1.9029029e-15            8            1            7 1.0446452e-16 
    2705    121.37561       16 1.9091337e-15            8            1            7 1.0441226e-16 
    2710    121.55259       16 1.9153864e-15            8            1            7 1.0436002e-16 
    2715    121.72492       16 1.9216613e-15            8            1            7 1.0430781e-16 
    2720    121.91023       16 1.9279582e-15            8            1            7 1.0425562e-16 
    2725    122.12278       17 1.9342774e-15            8            1            8 1.0420346e-16 
    2730    122.33538       17 1.9406189e-15            8            1            8 1.0415133e-16 
    2735     122.5392       17 1.9469828e-15            8            1            8 1.0409922e-16 
    2740    122.73035       17 1.9533691e-15            8            1            8 1.0404714e-16 
    2745    122.92986       17 1.9597779e-15            8            1            8 1.0399509e-16 
    2750    123.13214       17 1.9662093e-15            8            1            8 1.0394306e-16 
    2755    123.34873       17 1.9726635e-15            8            1            8 1.0389106e-16 
    2760    123.54378       17 1.9791404e-15            8            1            8 1.0383908e-16 
    2765    123.73822       17 1.9856401e-15            8            1            8 1.0378713e-16 
    2770    123.92869       17 1.9921628e-15            8            1            8 1.037352e-16 
    2775    124.11101       17 1.9987085e-15            8            1            8 1.036833e-16 
    2780    124.29463       17 2.0052772e-15            8            1            8 1.0363143e-16 
    2785    124.46526       17 2.0118692e-15            8            1            8 1.0357959e-16 
    2790    124.63375       17 2.0184843e-15            8            1            8 1.0352776e-16 
    2795    124.83014       17 2.0251228e-15            8            1            8 1.0347597e-16 
    2800    125.01201       17 2.0317848e-15            8            1            8 1.034242e-16 
    2805    125.18451       17 2.0384702e-15            8            1            8 1.0337246e-16 
    2810    125.35827       17 2.0451792e-15            8            1            8 1.0332074e-16 
    2815    125.53359       17 2.0519118e-15            8            1            8 1.0326905e-16 
    2820    125.70615       18 2.0586682e-15            9            1            8 1.0321738e-16 
    2825    125.86847       19 2.0654484e-15            9            1            9 1.0316574e-16 
    2830    126.04894       19 2.0722525e-15            9            1            9 1.0311413e-16 
    2835    126.22436       19 2.0790806e-15            9            1            9 1.0306254e-16 
    2840    126.40689       19 2.0859328e-15            9            1            9 1.0301098e-16 
    2845    126.59734       19 2.0928091e-15            9            1            9 1.0295944e-16 
    2850    126.77729       19 2.0997097e-15            9            1            9 1.0290793e-16 
    2855    126.93706       19 2.1066346e-15            9            1            9 1.0285645e-16 
    2860    127.10934       19 2.1135839e-15            9            1            9 1.0280499e-16 
    2865    127.28535       19 2.1205577e-15            9            1            9 1.0275356e-16 
    2870    127.46858       19 2.127556e-15            9            1            9 1.0270215e-16 
    2875      127.648       19 2.1345791e-15            9            1            9 1.0265077e-16 
    2880    127.80599       20 2.1416269e-15            9            1           10 1.0259941e-16 
    2885    127.99655       20 2.1486995e-15            9            1           10 1.0254808e-16 
    2890    128.19347       20 2.1557971e-15            9            1           10 1.0249677e-16 
    2895    128.36005       20 2.1629197e-15            9            1           10 1.024455e-16 
    2900    128.56296       20 2.1700674e-15            9            1           10 1.0239424e-16 
    2905    128.74055       20 2.1772403e-15            9            1           10 1.0234301e-16 
    2910    128.91975       20 2.1844384e-15            9            1           10 1.0229181e-16 
    2915    129.10897       20 2.1916619e-15            9            1           10 1.0224064e-16 
    2920    129.29783       21 2.1989109e-15           10            1           10 1.0218948e-16 
    2925    129.47754       21 2.2061854e-15           10            1           10 1.0213836e-16 
    2930    129.64765       21 2.2134856e-15           10            1           10 1.0208726e-16 
    2935    129.83326       22 2.2208114e-15           11            1           10 1.0203619e-16 
    2940    130.00802       22 2.2281631e-15           11            1           10 1.0198514e-16 
    2945    130.21317       22 2.2355407e-15           11            1           10 1.0193411e-16 
    2950    130.41046       22 2.2429443e-15           11            1           10 1.0188312e-16 
    2955    130.61516       22 2.2503739e-15           11            1           10 1.0183214e-16 
    2960    130.81991       22 2.2578298e-15           11            1           10 1.017812e-16 
    2965    131.03228       22 2.2653118e-15           11            1           10 1.0173028e-16 
    2970    131.23377       22 2.2728203e-15           11            1           10 1.0167938e-16 
    2975    131.43482       22 2.2803552e-15           11            1           10 1.0162851e-16 
    2980    131.63447       22 2.2879166e-15           11            1           10 1.0157767e-16 
    2985    131.82141       22 2.2955047e-15           11            1           10 1.0152685e-16 
    2990    132.03246       22 2.3031195e-15           11            1           10 1.0147605e-16 
    2995    132.21868       23 2.3107612e-15           11            1           11 1.0142528e-16 
    3000    132.43618       24 2.3184297e-15           12            1           11 1.0137454e-16 
    3005    132.63592       24 2.3261252e-15           12            1           11 1.0132382e-16 
    3010    132.82923       24 2.3338479e-15           12            1           11 1.0127313e-16 
    3015    133.02898       24 2.3415977e-15           12            1           11 1.0122246e-16 
    3020    133.21517       24 2.3493749e-15           12            1           11 1.0117182e-16 
    3025    133.38243       24 2.3571794e-15           12            1           11 1.0112121e-16 
    3030    133.56414       24 2.3650114e-15           12            1           11 1.0107061e-16 
    3035    133.76053       24 2.372871e-15           12            1           11 1.0102005e-16 
    3040    133.93706       24 2.3807583e-15           12            1           11 1.0096951e-16 
    3045    134.11618       24 2.3886733e-15           12            1           11 1.0091899e-16 
    3050    134.31132       25 2.3966162e-15           13            1           11 1.008685e-16 
    3055    134.49167       25 2.4045871e-15           13            1           11 1.0081804e-16 
    3060    134.67602       25 2.4125861e-15           13            1           11 1.007676e-16 
    3065    134.86256       25 2.4206132e-15           13            1           11 1.0071719e-16 
    3070    135.04915       25 2.4286685e-15           13            1           11 1.006668e-16 
    3075    135.22966       26 2.4367522e-15           14            1           11 1.0061643e-16 
    3080    135.44437       26 2.4448644e-15           14            1           11 1.005661e-16 
    3085    135.63864       26 2.4530052e-15           14            1           11 1.0051578e-16 
    3090    135.83047       26 2.4611746e-15           14            1           11 1.0046549e-16 
    3095    136.02611       26 2.4693727e-15           14            1           11 1.0041523e-16 
    3100    136.21718       26 2.4775997e-15           14            1           11 1.0036499e-16 
    3105    136.41129       26 2.4858557e-15           14            1           11 1.0031478e-16 
    3110    136.58596       26 2.4941407e-15           14            1           11 1.0026459e-16 
    3115    136.75839       26 2.5024549e-15           14            1           11 1.0021443e-16 
    3120    136.94531       26 2.5107984e-15           14            1           11 1.0016429e-16 
    3125     137.1551       26 2.5191712e-15           14            1           11 1.0011418e-16 
    3130    137.35628       26 2.5275735e-15           14            1           11 1.0006409e-16 
    3135    137.55487       26 2.5360054e-15           14            1           11 1.0001403e-16 
    3140    137.72971       26 2.5444669e-15           14            1           11 9.9963996e-17 
    3145     137.9222       26 2.5529583e-15           14            1           11 9.9913984e-17 
    3150    138.09162       27 2.5614795e-15           14            1           12 9.9863997e-17 
    3155    138.28335       27 2.5700307e-15           14            1           12 9.9814035e-17 
    3160    138.46512       27 2.578612e-15           14            1           12 9.9764098e-17 
    3165    138.64204       27 2.5872234e-15           14            1           12 9.9714186e-17 
    3170     138.8093       27 2.5958652e-15           14            1           12 9.9664299e-17 
    3175    138.99433       27 2.6045374e-15           14            1           12 9.9614437e-17 
    3180    139.17325       27 2.6132401e-15           14            1           12  9.95646e-17 
    3185    139.34361       27 2.6219734e-15           14            1           12 9.9514788e-17 
    3190    139.51173       27 2.6307375e-15           14            1           12 9.9465001e-17 
    3195    139.68608       27 2.6395324e-15           14            1           12 9.9415238e-17 
    3200    139.84648       27 2.6483582e-15           14            1           12 9.9365501e-17 
    3205    140.01073       27 2.6572151e-15           14            1           12 9.9315788e-17 
    3210    140.18462       27 2.6661032e-15           14            1           12 9.9266101e-17 
    3215    140.35835       27 2.6750225e-15           14            1           12 9.9216438e-17 
    3220    140.52544       27 2.6839732e-15           14            1           12  9.91668e-17 
    3225    140.69109       27 2.6929554e-15           14            1           12 9.9117187e-17 
    3230    140.85828       28 2.7019692e-15           15            1           12 9.9067598e-17 
    3235    141.02763       28 2.7110146e-15           15            1           12 9.9018035e-17 
    3240    141.19195       28 2.7200919e-15           15            1           12 9.8968496e-17 
    3245    141.37659       28 2.7292012e-15           15            1           12 9.8918982e-17 
    3250    141.56049       28 2.7383425e-15           15            1           12 9.8869493e-17 
    3255    141.74677       28 2.7475159e-15           15            1           12 9.8820029e-17 
    3260    141.95846       28 2.7567216e-15           15            1           12 9.8770589e-17 
    3265    142.15856       28 2.7659597e-15           15            1           12 9.8721174e-17 
    3270    142.33799       28 2.7752303e-15           15            1           12 9.8671784e-17 
    3275    142.52976       28 2.7845334e-15           15            1           12 9.8622418e-17 
    3280    142.72847       28 2.7938693e-15           15            1           12 9.8573078e-17 
    3285    142.89587       28 2.8032381e-15           15            1           12 9.8523762e-17 
    3290    143.09466       28 2.8126397e-15           15            1           12 9.847447e-17 
    3295    143.26232       28 2.8220745e-15           15            1           12 9.8425203e-17 
    3300    143.44325       28 2.8315424e-15           15            1           12 9.8375961e-17 
    3305    143.63481       28 2.8410436e-15           15            1           12 9.8326744e-17 
    3310    143.80615       30 2.8505783e-15           15            1           14 9.8277551e-17 
    3315    143.97517       30 2.8601464e-15           15            1           14 9.8228383e-17 
    3320    144.13577       30 2.8697482e-15           15            1           14 9.8179239e-17 
    3325    144.31169       30 2.8793838e-15           15            1           14 9.813012e-17 
    3330    144.47641       30 2.8890533e-15           15            1           14 9.8081026e-17 
    3335    144.65304       30 2.8987567e-15           15            1           14 9.8031956e-17 
    3340    144.81677       30 2.9084943e-15           15            1           14 9.798291e-17 
    3345     144.9971       30 2.9182661e-15           15            1           14 9.7933889e-17 
    3350    145.17711       30 2.9280722e-15           15            1           14 9.7884893e-17 
    3355    145.35545       30 2.9379129e-15           15            1           14 9.7835921e-17 
    3360    145.53509       30 2.9477881e-15           15            1           14 9.7786974e-17 
    3365    145.70291       30 2.9576981e-15           15            1           14 9.7738051e-17 
    3370    145.87788       30 2.9676429e-15           15            1           14 9.7689153e-17 
    3375    146.06952       30 2.9776226e-15           15            1           14 9.7640279e-17 
    3380    146.26732       30 2.9876375e-15           15            1           14 9.759143e-17 
    3385    146.46312       30 2.9976875e-15           15            1           14 9.7542605e-17 
    3390    146.64212       30 3.0077729e-15           15            1           14 9.7493804e-17 
    3395    146.81591       30 3.0178937e-15           15            1           14 9.7445028e-17 
    3400    146.99565       30 3.0280501e-15           15            1           14 9.7396276e-17 
    3405    147.17074       30 3.0382422e-15           15            1           14 9.7347549e-17 
    3410    147.33728       30 3.0484702e-15           15            1           14 9.7298846e-17 
    3415    147.49156       30 3.0587341e-15           15            1           14 9.7250167e-17 
    3420    147.66411       30 3.069034e-15           15            1           14 9.7201513e-17 
    3425    147.82863       30 3.0793702e-15           15            1           14 9.7152883e-17 
    3430    147.99841       30 3.0897427e-15           15            1           14 9.7104278e-17 
    3435    148.16979       30 3.1001517e-15           15            1           14 9.7055696e-17 
    3440     148.3361       30 3.1105972e-15           15            1           14 9.7007139e-17 
    3445    148.49956       30 3.1210794e-15           15            1           14 9.6958607e-17 
    3450    148.65585       30 3.1315985e-15           15            1           14 9.6910098e-17 
    3455    148.82776       30 3.1421546e-15           15            1           14 9.6861614e-17 
    3460    149.01587       30 3.1527477e-15           15            1           14 9.6813154e-17 
    3465    149.20145       30 3.1633781e-15           15            1           14 9.6764719e-17 
    3470    149.39797       30 3.1740459e-15           15            1           14 9.6716307e-17 
    3475    149.57872       30 3.1847511e-15           15            1           14 9.666792e-17 
    3480    149.75842       30 3.1954939e-15           15            1           14 9.6619557e-17 
    3485    149.94829       30 3.2062745e-15           15            1           14 9.6571219e-17 
    3490    150.13711       30 3.217093e-15           15            1           14 9.6522904e-17 
    3495      150.339       30 3.2279495e-15           15            1           14 9.6474614e-17 
    3500    150.53043       30 3.2388442e-15           15            1           14 9.6426347e-17 
    3505    150.74418       30 3.2497771e-15           15            1           14 9.6378105e-17 
    3510    150.94405       30 3.2607484e-15           15            1           14 9.6329887e-17 
    3515    151.13322       30 3.2717583e-15           15            1           14 9.6281693e-17 
    3520    151.30584       30 3.2828069e-15           15            1           14 9.6233524e-17 
    3525    151.48711       31 3.2938943e-15           15            1           15 9.6185378e-17 
    3530     151.6838       31 3.3050206e-15           15            1           15 9.6137257e-17 
    3535    151.88088       31 3.3161861e-15           15            1           15 9.6089159e-17 
    3540    152.08901       31 3.3273907e-15           15            1           15 9.6041086e-17 
    3545    152.26936       31 3.3386348e-15           15            1           15 9.5993036e-17 
    3550    152.45818       31 3.3499183e-15           15            1           15 9.5945011e-17 
    3555    152.62593       31 3.3612415e-15           15            1           15 9.589701e-17 
    3560    152.80878       31 3.3726044e-15           15            1           15 9.5849033e-17 
    3565    152.99472       31 3.3840073e-15           15            1           15 9.5801079e-17 
    3570    153.19087       31 3.3954502e-15           15            1           15 9.575315e-17 
    3575    153.39096       31 3.4069334e-15           15            1           15 9.5705245e-17 
    3580    153.55958       31 3.4184568e-15           15            1           15 9.5657363e-17 
    3585    153.74706       31 3.4300208e-15           15            1           15 9.5609506e-17 
    3590    153.93038       31 3.4416254e-15           15            1           15 9.5561673e-17 
    3595     154.1198       31 3.4532707e-15           15            1           15 9.5513863e-17 
    3600    154.30237       32 3.4649569e-15           15            1           16 9.5466078e-17 
    3605    154.48486       32 3.4766842e-15           15            1           16 9.5418316e-17 
    3610     154.6531       32 3.4884527e-15           15            1           16 9.5370578e-17 
    3615    154.83551       32 3.5002625e-15           15            1           16 9.5322864e-17 
    3620    155.02803       32 3.5121138e-15           15            1           16 9.5275174e-17 
    3625    155.20297       32 3.5240067e-15           15            1           16 9.5227508e-17 
    3630    155.38655       33 3.5359414e-15           15            1           17 9.5179866e-17 
    3635    155.56573       33 3.547918e-15           15            1           17 9.5132247e-17 
    3640     155.7418       33 3.5599367e-15           15            1           17 9.5084653e-17 
    3645    155.91442       33 3.5719976e-15           15            1           17 9.5037082e-17 
    3650    156.08318       33 3.5841008e-15           15            1           17 9.4989535e-17 
    3655    156.26846       34 3.5962465e-15           16            1           17 9.4942012e-17 
    3660    156.47248       34 3.6084349e-15           16            1           17 9.4894512e-17 
    3665    156.67409       34 3.6206661e-15           16            1           17 9.4847036e-17 
    3670     156.8724       34 3.6329403e-15           16            1           17 9.4799584e-17 
    3675    157.08495       34 3.6452576e-15           16            1           17 9.4752156e-17 
    3680    157.27892       34 3.6576181e-15           16            1           17 9.4704752e-17 
    3685    157.48285       34 3.670022e-15           16            1           17 9.4657371e-17 
    3690    157.68011       34 3.6824695e-15           16            1           17 9.4610014e-17 
    3695    157.87006       34 3.6949606e-15           16            1           17 9.456268e-17 
    3700    158.06243       34 3.7074957e-15           16            1           17 9.4515371e-17 
    3705    158.25791       34 3.7200747e-15           16            1           17 9.4468085e-17 
    3710    158.46705       34 3.732698e-15           16            1           17 9.4420822e-17 
    3715    158.66114       34 3.7453655e-15           16            1           17 9.4373584e-17 
    3720     158.8375       34 3.7580776e-15           16            1           17 9.4326369e-17 
    3725    159.02194       35 3.7708342e-15           17            1           17 9.4279177e-17 
    3730    159.18993       35 3.7836357e-15           17            1           17 9.4232009e-17 
    3735      159.384       35 3.7964821e-15           17            1           17 9.4184865e-17 
    3740    159.55293       35 3.8093736e-15           17            1           17 9.4137744e-17 
    3745    159.72384       36 3.8223104e-15           18            1           17 9.4090647e-17 
    3750    159.88814       37 3.8352925e-15           19            1           17 9.4043574e-17 
    3755    160.05367       37 3.8483203e-15           19            1           17 9.3996524e-17 
    3760    160.23151       37 3.8613938e-15           19            1           17 9.3949497e-17 
    3765    160.42645       37 3.8745132e-15           19            1           17 9.3902494e-17 
    3770    160.59418       37 3.8876787e-15           19            1           17 9.3855515e-17 
    3775    160.77362       37 3.9008903e-15           19            1           17 9.3808559e-17 
    3780    160.94576       37 3.9141484e-15           19            1           17 9.3761627e-17 
    3785     161.1131       37 3.927453e-15           19            1           17 9.3714718e-17 
    3790    161.27351       37 3.9408043e-15           19            1           17 9.3667832e-17 
    3795     161.4653       37 3.9542025e-15           19            1           17 9.362097e-17 
    3800    161.63106       37 3.9676477e-15           19            1           17 9.3574132e-17 
    3805    161.80424       37 3.9811401e-15           19            1           17 9.3527317e-17 
    3810    161.97541       37 3.9946798e-15           19            1           17 9.3480525e-17 
    3815    162.16032       38 4.0082671e-15           20            1           17 9.3433757e-17 
    3820    162.33856       38 4.0219021e-15           20            1           17 9.3387012e-17 
    3825    162.52023       39 4.035585e-15           21            1           17 9.334029e-17 
    3830    162.70805       39 4.0493159e-15           21            1           17 9.3293592e-17 
    3835    162.88787       39 4.0630949e-15           21            1           17 9.3246917e-17 
    3840     163.0819       39 4.0769224e-15           21            1           17 9.3200266e-17 
    3845    163.25382       39 4.0907983e-15           21            1           17 9.3153638e-17 
    3850    163.43656       40 4.104723e-15           22            1           17 9.3107033e-17 
    3855    163.61841       40 4.1186965e-15           22            1           17 9.3060452e-17 
    3860    163.79944       40 4.1327191e-15           22            1           17 9.3013893e-17 
    3865     163.9955       40 4.1467909e-15           22            1           17 9.2967359e-17 
    3870    164.18689       40 4.1609121e-15           22            1           17 9.2920847e-17 
    3875     164.3727       40 4.1750829e-15           22            1           17 9.2874359e-17 
    3880    164.55136       40 4.1893034e-15           22            1           17 9.2827894e-17 
    3885    164.72678       40 4.2035738e-15           22            1           17 9.2781452e-17 
    3890    164.89487       40 4.2178942e-15           22            1           17 9.2735033e-17 
    3895    165.06865       41 4.232265e-15           22            1           18 9.2688638e-17 
    3900    165.25374       41 4.2466861e-15           22            1           18 9.2642266e-17 
[...]
    4045    172.14284       44 4.6876507e-15           23            1           20 9.130752e-17 
    4050    172.52096       44 4.7036697e-15           23            1           20 9.1261839e-17 
    4055    172.87382       44 4.7197448e-15           23            1           20 9.121618e-17 
    4060    173.22227       44 4.7358764e-15           23            1           20 9.1170545e-17 
    4065    173.57008       44 4.7520645e-15           23            1           20 9.1124932e-17 
    4070    173.93878       44 4.7683094e-15           23            1           20 9.1079343e-17 
    4075    174.30595       44 4.7846113e-15           23            1           20 9.1033776e-17 
    4080    174.68284       44 4.8009704e-15           23            1           20 9.0988231e-17 
    4085    175.04709       45 4.8173868e-15           24            1           20 9.094271e-17 
    4090    175.37926       45 4.8338609e-15           24            1           20 9.0897211e-17 
    4095    175.73197       45 4.8503927e-15           24            1           20 9.0851736e-17 
    4100    176.10658       45 4.8669825e-15           24            1           20 9.0806282e-17 
    4105    176.43034       45 4.8836305e-15           24            1           20 9.0760852e-17 
    4110    176.82184       46 4.9003368e-15           24            1           21 9.0715444e-17 
    4115    177.17896       46 4.9171018e-15           24            1           21 9.067006e-17 
    4120    177.53536       46 4.9339256e-15           24            1           21 9.0624697e-17 
    4125    177.86248       46 4.9508084e-15           24            1           21 9.0579358e-17 
    4130    178.18247       47 4.9677504e-15           24            1           22 9.0534041e-17 
    4135    178.51505       49 4.9847518e-15           24            1           24 9.0488747e-17 
    4140    180.60094       50 5.0018128e-15           25            1           24 9.0443475e-17 
    4145    181.00098       50 5.0189336e-15           25            1           24 9.0398226e-17 
    4150    181.39651       51 5.0361145e-15           26            1           24   9.0353e-17 
    4155     181.7485       51 5.0533556e-15           26            1           24 9.0307797e-17 
    4160    182.12415       51 5.0706572e-15           26            1           24 9.0262616e-17 
    4165    182.45298       51 5.0880194e-15           26            1           24 9.0217457e-17 
    4170    182.78093       51 5.1054426e-15           26            1           24 9.0172322e-17 
    4175     183.1395       51 5.1229268e-15           26            1           24 9.0127208e-17 
    4180    183.50602       53 5.1404723e-15           28            1           24 9.0082118e-17 
    4185     183.8513       53 5.1580794e-15           28            1           24 9.003705e-17 
    4190    184.18495       53 5.1757483e-15           28            1           24 8.9992004e-17 
    4195    184.53994       53 5.193479e-15           28            1           24 8.9946981e-17 
    4200    184.86922       53 5.211272e-15           28            1           24 8.9901981e-17 
    4205    185.23402       53 5.2291273e-15           28            1           24 8.9857003e-17 
    4210    185.60365       53 5.2470453e-15           28            1           24 8.9812048e-17 
    4215     185.9585       53 5.2650261e-15           28            1           24 8.9767115e-17 
    4220    186.27137       54 5.2830699e-15           28            1           25 8.9722204e-17 
    4225    186.61305       55 5.3011771e-15           29            1           25 8.9677316e-17 
    4230    186.97193       55 5.3193477e-15           29            1           25 8.9632451e-17 
    4235    187.33623       55 5.337582e-15           29            1           25 8.9587608e-17 
    4240    187.70262       55 5.3558802e-15           29            1           25 8.9542787e-17 
    4245    188.11327       55 5.3742426e-15           29            1           25 8.9497989e-17 
    4250    188.53148       55 5.3926694e-15           29            1           25 8.9453213e-17 
    4255    188.92214       55 5.4111608e-15           29            1           25 8.940846e-17 
    4260    189.31702       55 5.4297171e-15           29            1           25 8.9363729e-17 
    4265    189.76432       55 5.4483384e-15           29            1           25 8.931902e-17 
    4270    190.17732       55 5.467025e-15           29            1           25 8.9274334e-17 
    4275    190.61388       55 5.4857771e-15           29            1           25 8.922967e-17 
    4280    191.03606       55 5.5045949e-15           29            1           25 8.9185028e-17 
    4285    191.47173       55 5.5234787e-15           29            1           25 8.9140409e-17 
    4290    191.92262       55 5.5424288e-15           29            1           25 8.9095812e-17 
    4295    192.36361       55 5.5614453e-15           29            1           25 8.9051238e-17 
    4300    192.81064       55 5.5805284e-15           29            1           25 8.9006685e-17 
    4305    193.24927       55 5.5996784e-15           29            1           25 8.8962155e-17 
    4310    193.67334       55 5.6188956e-15           29            1           25 8.8917648e-17 
    4315    194.07572       56 5.6381802e-15           29            1           26 8.8873162e-17 
    4320     194.4816       56 5.6575323e-15           29            1           26 8.8828699e-17 
    4325    194.91659       56 5.6769524e-15           29            1           26 8.8784258e-17 
    4330    195.37329       56 5.6964404e-15           29            1           26 8.873984e-17 
    4335    195.81351       57 5.7159968e-15           30            1           26 8.8695443e-17 
    4340    196.26318       57 5.7356218e-15           30            1           26 8.8651069e-17 
    4345    196.70512       57 5.7553156e-15           30            1           26 8.8606717e-17 
    4350    197.15035       57 5.7750784e-15           30            1           26 8.8562387e-17 
    4355    197.60124       57 5.7949104e-15           30            1           26 8.8518079e-17 
    4360     198.0648       57 5.8148121e-15           30            1           26 8.8473794e-17 
    4365    198.49698       57 5.8347834e-15           30            1           26 8.8429531e-17 
    4370    198.92095       57 5.8548248e-15           30            1           26 8.8385289e-17 
    4375    199.36876       57 5.8749364e-15           30            1           26 8.834107e-17 
    4380    199.78144       57 5.8951185e-15           30            1           26 8.8296874e-17 
    4385    200.20582       57 5.9153714e-15           30            1           26 8.8252699e-17 
    4390     200.5632       57 5.9356953e-15           30            1           26 8.8208546e-17 
    4395    200.96652       57 5.9560904e-15           30            1           26 8.8164416e-17 
    4400    201.35641       57 5.976557e-15           30            1           26 8.8120307e-17 
    4405    201.81058       57 5.9970953e-15           30            1           26 8.8076221e-17 
    4410    202.27809       57 6.0177056e-15           30            1           26 8.8032156e-17 
    4415    202.67466       57 6.0383882e-15           30            1           26 8.7988114e-17 
    4420     203.0642       59 6.0591433e-15           31            1           27 8.7944094e-17 
    4425    203.43745       59 6.0799711e-15           31            1           27 8.7900096e-17 
    4430    203.84741       59 6.1008719e-15           31            1           27 8.7856119e-17 
    4435    204.28941       59 6.121846e-15           31            1           27 8.7812165e-17 
    4440    204.70551       59 6.1428936e-15           31            1           27 8.7768233e-17 
    4445    205.19551       59 6.1640149e-15           31            1           27 8.7724323e-17 
    4450    205.66761       59 6.1852103e-15           31            1           27 8.7680435e-17 
    4455    206.15865       59  6.20648e-15           31            1           27 8.7636569e-17 
    4460    206.58293       59 6.2278242e-15           31            1           27 8.7592724e-17 
    4465    207.02362       61 6.2492433e-15           32            1           28 8.7548902e-17 
    4470    207.44691       61 6.2707374e-15           32            1           28 8.7505102e-17 
    4475    207.87882       61 6.2923068e-15           32            1           28 8.7461323e-17 
    4480    208.33066       61 6.3139518e-15           32            1           28 8.7417567e-17 
    4485    208.79853       61 6.3356727e-15           32            1           28 8.7373832e-17 
    4490     209.2723       61 6.3574697e-15           32            1           28 8.7330119e-17 
    4495    209.72413       61 6.3793431e-15           32            1           28 8.7286428e-17 
    4500    210.17766       61 6.4012932e-15           32            1           28 8.7242759e-17 
    4505    210.61931       61 6.4233202e-15           32            1           28 8.7199112e-17 
    4510    211.09548       61 6.4454244e-15           32            1           28 8.7155487e-17 
    4515    211.59673       61 6.467606e-15           32            1           28 8.7111884e-17 
    4520    212.10422       61 6.4898654e-15           32            1           28 8.7068302e-17 
    4525    212.61017       61 6.5122028e-15           32            1           28 8.7024743e-17 
    4530    213.10627       61 6.5346185e-15           32            1           28 8.6981205e-17 
    4535    213.57095       61 6.5571127e-15           32            1           28 8.6937689e-17 
    4540    214.04593       61 6.5796858e-15           32            1           28 8.6894194e-17 
    4545    214.52897       61 6.6023379e-15           32            1           28 8.6850722e-17 
    4550    214.96774       62 6.6250695e-15           32            1           29 8.6807271e-17 
    4555    215.48976       63 6.6478807e-15           32            1           30 8.6763842e-17 
    4560     215.9758       64 6.6707718e-15           33            1           30 8.6720435e-17 
    4565    216.41911       65 6.6937432e-15           34            1           30 8.6677049e-17 
    4570     216.8668       65 6.716795e-15           34            1           30 8.6633686e-17 
    4575    217.30471       66 6.7399276e-15           34            1           31 8.6590344e-17 
    4580    217.73975       66 6.7631413e-15           34            1           31 8.6547023e-17 
    4585    218.25007       66 6.7864363e-15           34            1           31 8.6503725e-17 
    4590    218.79827       66 6.809813e-15           34            1           31 8.6460448e-17 
    4595    219.33332       66 6.8332716e-15           34            1           31 8.6417193e-17 
    4600    219.87936       66 6.8568123e-15           34            1           31 8.637396e-17 
    4605    220.42802       66 6.8804356e-15           34            1           31 8.6330748e-17 
    4610    220.98611       66 6.9041417e-15           34            1           31 8.6287558e-17 
    4615    221.54424       67 6.9279308e-15           35            1           31 8.6244389e-17 
    4620    222.08749       67 6.9518032e-15           35            1           31 8.6201242e-17 
    4625    222.60995       67 6.9757593e-15           35            1           31 8.6158117e-17 
    4630    223.13773       67 6.9997994e-15           35            1           31 8.6115014e-17 
    4635    223.64931       67 7.0239237e-15           35            1           31 8.6071932e-17 
    4640    224.20606       67 7.0481325e-15           35            1           31 8.6028872e-17 
    4645    224.75017       67 7.0724261e-15           35            1           31 8.5985833e-17 
    4650    225.25449       67 7.0968049e-15           35            1           31 8.5942816e-17 
    4655    225.72481       67 7.1212691e-15           35            1           31 8.589982e-17 
    4660    226.24366       67 7.1458189e-15           35            1           31 8.5856847e-17 
    4665    226.76535       67 7.1704549e-15           35            1           31 8.5813894e-17 
    4670    227.26855       67 7.1951771e-15           35            1           31 8.5770964e-17 
    4675    227.76966       68 7.2199859e-15           35            1           32 8.5728054e-17 
    4680    228.27692       69 7.2448817e-15           35            1           33 8.5685167e-17 
    4685    228.79432       69 7.2698647e-15           35            1           33 8.5642301e-17 
    4690    229.28517       69 7.2949352e-15           35            1           33 8.5599456e-17 
    4695    229.78659       69 7.3200935e-15           35            1           33 8.5556633e-17 
    4700    230.18506       69 7.3453401e-15           35            1           33 8.5513832e-17 
    4705    230.54852       69 7.370675e-15           35            1           33 8.5471052e-17 
    4710    230.72644       69 7.3960988e-15           35            1           33 8.5428293e-17 
    4715    230.89962       69 7.4216116e-15           35            1           33 8.5385556e-17 
    4720    231.05341       70 7.4472138e-15           36            1           33 8.534284e-17 
    4725    231.21689       70 7.4729058e-15           36            1           33 8.5300146e-17 
    4730    231.38422       70 7.4986877e-15           36            1           33 8.5257473e-17 
    4735    231.54009       70  7.52456e-15           36            1           33 8.5214822e-17 
    4740    231.70423       71 7.5505229e-15           36            1           34 8.5172191e-17 
    4745    231.87514       71 7.5765769e-15           36            1           34 8.5129582e-17 
    4750    232.20371       71 7.6027221e-15           36            1           34 8.5086995e-17 
    4755    232.62612       71 7.6289589e-15           36            1           34 8.5044428e-17 
    4760    233.07983       71 7.6552876e-15           36            1           34 8.5001884e-17 
    4765    233.51894       71 7.6817085e-15           36            1           34 8.495936e-17 
    4770    233.96528       72 7.708222e-15           37            1           34 8.4916858e-17 
    4775     234.4187       72 7.7348284e-15           37            1           34 8.4874378e-17 
    4780    234.84457       72 7.761528e-15           37            1           34 8.4831919e-17 
    4785    235.32151       73 7.7883211e-15           37            1           35 8.4789481e-17 
    4790    235.75707       74 7.8152081e-15           38            1           35 8.4747064e-17 
    4795    236.23399       74 7.8421893e-15           38            1           35 8.4704669e-17 
    4800    236.66542       74 7.869265e-15           38            1           35 8.4662296e-17 
    4805    237.09567       74 7.8964355e-15           38            1           35 8.4619944e-17 
    4810    237.56055       74 7.9237012e-15           38            1           35 8.4577613e-17 
    4815     238.0123       74 7.9510624e-15           38            1           35 8.4535303e-17 
    4820    238.44887       74 7.9785195e-15           38            1           35 8.4493015e-17 
    4825    238.91435       74 8.0060728e-15           38            1           35 8.4450748e-17 
    4830     239.3554       75 8.0337225e-15           39            1           35 8.4408503e-17 
    4835    239.81961       75 8.0614692e-15           39            1           35 8.4366278e-17 
    4840    240.26985       75 8.089313e-15           39            1           35 8.4324076e-17 
    4845    240.71832       75 8.1172543e-15           39            1           35 8.4281894e-17 
    4850    241.14992       75 8.1452935e-15           39            1           35 8.4239734e-17 
    4855    241.59002       75 8.173431e-15           39            1           35 8.4197595e-17 
    4860     242.0574       75 8.201667e-15           39            1           35 8.4155478e-17 
    4865    242.53166       75 8.2300019e-15           39            1           35 8.4113382e-17 
    4870    242.97198       75 8.2584361e-15           39            1           35 8.4071307e-17 
    4875    243.44662       75 8.2869698e-15           39            1           35 8.4029254e-17 
    4880    243.89626       77 8.3156035e-15           41            1           35 8.3987222e-17 
    4885    244.35963       78 8.3443375e-15           42            1           35 8.3945211e-17 
    4890    244.70281       78 8.3731722e-15           42            1           35 8.3903222e-17 
    4895     244.8656       78 8.4021078e-15           42            1           35 8.3861254e-17 
    4900    245.04291       79 8.4311449e-15           43            1           35 8.3819306e-17 
    4905    245.19577       79 8.4602837e-15           43            1           35 8.377738e-17 
    4910    245.36808       81 8.4895245e-15           44            1           36 8.3735475e-17 
    4915    245.54153       82 8.5188678e-15           44            1           37 8.3693591e-17 
    4920    245.72651       82 8.5483139e-15           44            1           37 8.3651727e-17 
    4925    245.90345       83 8.5778631e-15           44            1           38 8.3609885e-17 
    4930    246.21696       83 8.6075158e-15           44            1           38 8.3568064e-17 
    4935    246.68113       83 8.6372724e-15           44            1           38 8.3526264e-17 
    4940    247.17891       84 8.6671332e-15           44            1           39 8.3484485e-17 
    4945    247.63628       84 8.6970987e-15           44            1           39 8.3442727e-17 
    4950    248.14278       84 8.727169e-15           44            1           39 8.3400991e-17 
    4955     248.6424       84 8.7573447e-15           44            1           39 8.3359276e-17 
    4960      249.115       84 8.7876261e-15           44            1           39 8.3317582e-17 
    4965    249.56717       84 8.8180135e-15           44            1           39 8.327591e-17 
    4970     250.0545       84 8.8485073e-15           44            1           39 8.3234259e-17 
    4975    250.56423       86 8.879108e-15           45            1           40 8.3192629e-17 
    4980    251.04212       87 8.9098158e-15           46            1           40 8.315102e-17 
    4985    251.50103       87 8.9406312e-15           46            1           40 8.3109433e-17 
    4990    252.01026       87 8.9715544e-15           46            1           40 8.3067867e-17 
    4995    252.48561       87 9.002586e-15           46            1           40 8.3026323e-17 
    5000    253.00816       87 9.0337263e-15           46            1           40  8.29848e-17 
Loop time of 253.008 on 1 procs for 5000 steps with 87 atoms

Performance: 61468364.941 tau/day, 19.762 timesteps/s
93.5% CPU use with 1 MPI tasks x no OpenMP threads

MPI task timing breakdown:
Section |  min time  |  avg time  |  max time  |%varavg| %total
---------------------------------------------------------------
Pair    | 0.093991   | 0.093991   | 0.093991   |   0.0 |  0.04
Neigh   | 16.434     | 16.434     | 16.434     |   0.0 |  6.50
Comm    | 0.12779    | 0.12779    | 0.12779    |   0.0 |  0.05
Output  | 0.12867    | 0.12867    | 0.12867    |   0.0 |  0.05
Modify  | 236.19     | 236.19     | 236.19     |   0.0 | 93.35
Other   |            | 0.03842    |            |       |  0.02

Nlocal:    87 ave 87 max 87 min
Histogram: 1 0 0 0 0 0 0 0 0 0
Nghost:    0 ave 0 max 0 min
Histogram: 1 0 0 0 0 0 0 0 0 0
Neighs:    375 ave 375 max 375 min
Histogram: 1 0 0 0 0 0 0 0 0 0

Total # of neighbors = 375
Ave neighs/atom = 4.31034
Neighbor list builds = 5000
Dangerous builds = 0


Total wall time: 0:04:22
