  Granular Flow Simulation 

       5  atoms 
          5 atom types 

   0.000000e-05   8.000000e-05  xlo xhi 
   0.000000e-05   8.000000e-05  ylo yhi 
   0.000000e-05   8.000000e-05  zlo zhi 

 Atoms

     1 1 1.0839e-6 150 4e-05 3.5e-05 8.6e-07 1.4307e-6 0.0 0.0 0.0 0.0 0.0
     2 2 1.2839e-6 150 4e-05 4e-05 9.26e-07 1.2839e-6 0.0 0.0 0.0 0.0 0.0
     3 3 1.0283e-6 150 4e-05 4.5e-05 8.6e-07 1.0283e-6 0.0 0.0 0.0 0.0 0.0
     4 4 1.0539e-6 150 3.5e-05 4e-05 9.6e-07 1.0539e-6 0.0 0.0 0.0 0.0 0.0
     5 5 1.4839e-6 150 4.5e-05 4e-05 10.6e-07 1.4839e-6 0.0 0.0 0.0 0.0 0.0


