ITEM: TIMESTEP
0
ITEM: NUMBER OF ATOMS
5
ITEM: BOX BOUNDS ff ff ff
0 8e-05
0 8e-05
0 8e-05
ITEM: ATOMS id type diameter mass x y z sub no2 no3 o2 nh4 
1 1 1.0839e-06 1.00013e-16 4e-05 3.5e-05 8.6e-07 0 0 0 0 0 
4 4 1.0539e-06 9.19365e-17 3.5e-05 4e-05 9.6e-07 0 0 0 0 0 
2 2 1.2839e-06 1.6622e-16 4e-05 4e-05 9.26e-07 0 0 0 0 0 
3 3 1.0283e-06 8.53983e-17 4e-05 4.5e-05 8.6e-07 0 0 0 0 0 
5 5 1.4839e-06 2.56628e-16 4.5e-05 4e-05 1.06e-06 0 0 0 0 0 
ITEM: TIMESTEP
2000
ITEM: NUMBER OF ATOMS
6
ITEM: BOX BOUNDS ff ff ff
0 8e-05
0 8e-05
0 8e-05
ITEM: ATOMS id type diameter mass x y z sub no2 no3 o2 nh4 
1 1 1.1282e-06 1.12784e-16 4.00167e-05 3.49933e-05 8.68727e-07 0.0752225 0.000379111 0.089817 0.00914792 0.00767312 
4 4 1.05252e-06 9.15755e-17 3.5e-05 4e-05 9.4e-07 0.0793055 0.00241785 0.0899039 0.00539116 0.00593958 
2 2 1.30747e-06 1.75544e-16 4e-05 4e-05 9.06e-07 0.0793055 0.00241785 0.0899039 0.00539116 0.00593958 
3 3 1.03021e-06 8.58757e-17 4e-05 4.5e-05 8.4e-07 0.0797469 8.3426e-05 0.0902267 0.0089191 0.00767282 
5 5 1.4839e-06 2.56628e-16 4.5e-05 4e-05 1.04e-06 0.0752225 0.000379111 0.089817 0.00914792 0.00767312 
6 4 8.78857e-07 1.06629e-17 3.91966e-05 3.5322e-05 4.39428e-07 0 0 0 0 0 
ITEM: TIMESTEP
4000
ITEM: NUMBER OF ATOMS
6
ITEM: BOX BOUNDS ff ff ff
0 8e-05
0 8e-05
0 8e-05
ITEM: ATOMS id type diameter mass x y z sub no2 no3 o2 nh4 
1 1 1.17316e-06 1.26812e-16 4.00334e-05 3.49866e-05 8.77467e-07 0.0746341 0.000378924 0.089952 0.0091085 0.00759921 
4 4 1.05114e-06 9.12158e-17 3.5e-05 4e-05 9.2e-07 0.0792052 0.00251988 0.0900449 0.00517478 0.00578361 
2 2 1.33102e-06 1.852e-16 4e-05 4e-05 8.86e-07 0.0792052 0.00251988 0.0900449 0.00517478 0.00578361 
3 3 1.03171e-06 8.62514e-17 4e-05 4.5e-05 8.2e-07 0.0797102 8.48095e-05 0.0903741 0.00887549 0.00759895 
5 5 1.4839e-06 2.56628e-16 4.5e-05 4e-05 1.02e-06 0.0746341 0.000378924 0.089952 0.0091085 0.00759921 
6 4 8.78857e-07 1.06629e-17 3.91966e-05 3.5322e-05 4.39428e-07 0 0 0 0 0 
ITEM: TIMESTEP
6000
ITEM: NUMBER OF ATOMS
6
ITEM: BOX BOUNDS ff ff ff
0 8e-05
0 8e-05
0 8e-05
ITEM: ATOMS id type diameter mass x y z sub no2 no3 o2 nh4 
1 1 1.21998e-06 1.42611e-16 4.00501e-05 3.49799e-05 8.86208e-07 0.0739429 0.000388074 0.0899613 0.00906638 0.00757586 
4 4 1.04976e-06 9.08575e-17 3.5e-05 4e-05 9e-07 0.0790855 0.00263692 0.0900621 0.00494561 0.00567382 
2 2 1.35481e-06 1.95312e-16 4e-05 4e-05 8.66e-07 0.0790855 0.00263692 0.0900621 0.00494561 0.00567382 
3 3 1.03326e-06 8.66404e-17 4e-05 4.5e-05 8e-07 0.0796658 8.83191e-05 0.0904058 0.00882351 0.00757558 
5 5 1.4839e-06 2.56628e-16 4.5e-05 4e-05 1e-06 0.0739429 0.000388074 0.0899613 0.00906638 0.00757586 
6 4 8.78857e-07 1.06629e-17 3.91966e-05 3.5322e-05 4.39428e-07 0 0 0 0 0 
ITEM: TIMESTEP
8000
ITEM: NUMBER OF ATOMS
7
ITEM: BOX BOUNDS ff ff ff
0 8e-05
0 8e-05
0 8e-05
ITEM: ATOMS id type diameter mass x y z sub no2 no3 o2 nh4 
1 1 1.27227e-06 1.61745e-16 4.00668e-05 3.49732e-05 8.94949e-07 0.0721371 0.00116146 0.0900211 0.00737651 0.00681039 
4 4 1.04838e-06 9.05007e-17 3.5e-05 4e-05 8.8e-07 0.07871 0.000272178 0.0902451 0.00882665 0.00753207 
2 2 1.15261e-06 1.20265e-16 3.98004e-05 4.02219e-05 1.35788e-06 0.079595 0.00038757 0.0914154 0.00576657 0.00645299 
3 3 1.03675e-06 8.75208e-17 4e-05 4.5e-05 7.8e-07 0.079595 0.00038757 0.0914154 0.00576657 0.00645299 
5 5 1.4839e-06 2.56628e-16 4.5e-05 4e-05 9.8e-07 0.0721371 0.00116146 0.0900211 0.00737651 0.00681039 
6 4 8.78857e-07 1.06629e-17 3.91966e-05 3.5322e-05 4.39428e-07 0 0 0 0 0 
7 2 1.03037e-06 8.59146e-17 4.0179e-05 3.9801e-05 5.02322e-07 0.0721371 0.00116146 0.0900211 0.00737651 0.00681039 
ITEM: TIMESTEP
10000
ITEM: NUMBER OF ATOMS
7
ITEM: BOX BOUNDS ff ff ff
0 8e-05
0 8e-05
0 8e-05
ITEM: ATOMS id type diameter mass x y z sub no2 no3 o2 nh4 
1 1 1.33062e-06 1.85035e-16 4.00835e-05 3.49665e-05 9.0369e-07 0.0709589 0.00120994 0.0900175 0.00723084 0.00674432 
4 4 1.04701e-06 9.01453e-17 3.5e-05 4e-05 8.6e-07 0.0784912 0.00028209 0.0902583 0.00876472 0.00750731 
2 2 1.17378e-06 1.27014e-16 3.9793e-05 4.02301e-05 1.37453e-06 0.0795125 0.000406903 0.0914874 0.00554997 0.00637318 
3 3 1.04225e-06 8.89219e-17 4e-05 4.5e-05 7.6e-07 0.0795125 0.000406903 0.0914874 0.00554997 0.00637318 
5 5 1.4839e-06 2.56628e-16 4.5e-05 4e-05 9.6e-07 0.0709589 0.00120994 0.0900175 0.00723084 0.00674432 
6 4 8.78857e-07 1.06629e-17 3.91966e-05 3.5322e-05 4.39428e-07 0 0 0 0 0 
7 2 1.0498e-06 9.08679e-17 4.01896e-05 3.97892e-05 4.90614e-07 0.0709589 0.00120994 0.0900175 0.00723084 0.00674432 
ITEM: TIMESTEP
12000
ITEM: NUMBER OF ATOMS
8
ITEM: BOX BOUNDS ff ff ff
0 8e-05
0 8e-05
0 8e-05
ITEM: ATOMS id type diameter mass x y z sub no2 no3 o2 nh4 
6 4 8.78857e-07 1.06629e-17 3.91966e-05 3.5322e-05 4.39428e-07 0 0 0 0 0 
7 2 1.06955e-06 9.60921e-17 4.02023e-05 3.97751e-05 4.94802e-07 0.0696237 0.00126043 0.0900106 0.00707856 0.00667515 
1 1 1.39174e-06 2.11722e-16 4.01002e-05 3.49598e-05 9.12431e-07 0.0696237 0.00126043 0.0900106 0.00707856 0.00667515 
4 4 1.04564e-06 8.97912e-17 3.5e-05 4e-05 8.4e-07 0.0782534 0.000293958 0.0902698 0.00870073 0.0074816 
5 5 1.4839e-06 2.56628e-16 4.5e-05 4e-05 9.4e-07 0.0696237 0.00126043 0.0900106 0.00707856 0.00667515 
3 3 1.04797e-06 9.03921e-17 4e-05 4.5e-05 7.4e-07 0.079428 0.000427469 0.0915607 0.00532552 0.00629073 
2 2 1.19523e-06 1.34105e-16 3.97855e-05 4.02385e-05 1.39105e-06 0.079428 0.000427469 0.0915607 0.00532552 0.00629073 
8 4 9.99008e-07 1.56612e-17 4.10028e-05 3.486e-05 1.78074e-06 0 0 0 0 0 
ITEM: TIMESTEP
14000
ITEM: NUMBER OF ATOMS
9
ITEM: BOX BOUNDS ff ff ff
0 8e-05
0 8e-05
0 8e-05
ITEM: ATOMS id type diameter mass x y z sub no2 no3 o2 nh4 
6 4 8.78857e-07 1.06629e-17 3.91966e-05 3.5322e-05 4.39428e-07 0 0 0 0 0 
7 2 1.0896e-06 1.016e-16 4.02134e-05 3.97627e-05 5.05923e-07 0.0680982 0.00131113 0.0900021 0.00691894 0.00660263 
1 1 1.13981e-06 1.16301e-16 4.00964e-05 3.44154e-05 6.50222e-07 0.0680982 0.00131113 0.0900021 0.00691894 0.00660263 
4 4 1.04427e-06 8.94386e-17 3.5e-05 4e-05 8.2e-07 0.077983 0.00030603 0.0902813 0.00863433 0.0074549 
5 5 1.4839e-06 2.56628e-16 4.5e-05 4e-05 9.2e-07 0.0680982 0.00131113 0.0900021 0.00691894 0.00660263 
3 3 1.05389e-06 9.19342e-17 4e-05 4.5e-05 7.2e-07 0.0793322 0.000448845 0.091636 0.00509375 0.00620554 
2 2 1.21695e-06 1.41548e-16 3.97778e-05 4.02471e-05 1.40737e-06 0.0793322 0.000448845 0.091636 0.00509375 0.00620554 
8 4 9.99008e-07 1.56612e-17 4.10028e-05 3.486e-05 1.78074e-06 0 0 0 0 0 
9 1 1.17061e-06 1.25987e-16 4.01041e-05 3.55195e-05 1.22618e-06 0.0680982 0.00131113 0.0900021 0.00691894 0.00660263 
ITEM: TIMESTEP
16000
ITEM: NUMBER OF ATOMS
9
ITEM: BOX BOUNDS ff ff ff
0 8e-05
0 8e-05
0 8e-05
ITEM: ATOMS id type diameter mass x y z sub no2 no3 o2 nh4 
6 4 8.78857e-07 1.06629e-17 3.91966e-05 3.5322e-05 4.39428e-07 0 0 0 0 0 
7 2 1.10997e-06 1.07405e-16 4.02242e-05 3.97508e-05 5.17828e-07 0.0663579 0.00136159 0.0899918 0.00675177 0.00652666 
1 1 1.19223e-06 1.33096e-16 4.00965e-05 3.4432e-05 6.5889e-07 0.0663579 0.00136159 0.0899918 0.00675177 0.00652666 
4 4 1.0429e-06 8.90873e-17 3.5e-05 4e-05 8e-07 0.0776753 0.000318166 0.0902928 0.0085656 0.00742722 
5 5 1.4839e-06 2.56628e-16 4.5e-05 4e-05 9e-07 0.0663579 0.00136159 0.0899918 0.00675177 0.00652666 
3 3 1.06003e-06 9.35499e-17 4e-05 4.5e-05 7e-07 0.079223 0.000471001 0.0917132 0.00485521 0.00611779 
2 2 1.23892e-06 1.49354e-16 3.97698e-05 4.02559e-05 1.42347e-06 0.079223 0.000471001 0.0917132 0.00485521 0.00611779 
8 4 9.99008e-07 1.56612e-17 4.10028e-05 3.486e-05 1.78074e-06 0 0 0 0 0 
9 1 1.22445e-06 1.44181e-16 4.0104e-05 3.55029e-05 1.21749e-06 0.0663579 0.00136159 0.0899918 0.00675177 0.00652666 
ITEM: TIMESTEP
18000
ITEM: NUMBER OF ATOMS
9
ITEM: BOX BOUNDS ff ff ff
0 8e-05
0 8e-05
0 8e-05
ITEM: ATOMS id type diameter mass x y z sub no2 no3 o2 nh4 
6 4 8.78857e-07 1.06629e-17 3.91966e-05 3.5322e-05 4.39428e-07 0 0 0 0 0 
7 2 1.13065e-06 1.13519e-16 4.02348e-05 3.97389e-05 5.29892e-07 0.0643767 0.00141145 0.0899794 0.00657689 0.00644715 
1 1 1.24702e-06 1.52305e-16 4.00964e-05 3.44143e-05 6.4964e-07 0.0643767 0.00141145 0.0899794 0.00657689 0.00644715 
4 4 1.04153e-06 8.87374e-17 3.5e-05 4e-05 7.8e-07 0.0773256 0.000330285 0.0903042 0.00849465 0.00739859 
5 5 1.4839e-06 2.56628e-16 4.5e-05 4e-05 8.8e-07 0.0643767 0.00141145 0.0899794 0.00657689 0.00644715 
3 3 1.06638e-06 9.52409e-17 4e-05 4.5e-05 6.8e-07 0.0790987 0.000493925 0.0917919 0.00461063 0.0060277 
2 2 1.26113e-06 1.57533e-16 3.97617e-05 4.02649e-05 1.43936e-06 0.0790987 0.000493925 0.0917919 0.00461063 0.0060277 
8 4 9.99008e-07 1.56612e-17 4.10028e-05 3.486e-05 1.78074e-06 0 0 0 0 0 
9 1 1.28072e-06 1.64989e-16 4.01041e-05 3.55206e-05 1.22674e-06 0.0643767 0.00141145 0.0899794 0.00657689 0.00644715 
ITEM: TIMESTEP
20000
ITEM: NUMBER OF ATOMS
9
ITEM: BOX BOUNDS ff ff ff
0 8e-05
0 8e-05
0 8e-05
ITEM: ATOMS id type diameter mass x y z sub no2 no3 o2 nh4 
6 4 8.78857e-07 1.06629e-17 3.91966e-05 3.5322e-05 4.39428e-07 0 0 0 0 0 
7 2 1.15163e-06 1.19958e-16 4.02424e-05 3.97305e-05 5.39787e-07 0.0621281 0.00146029 0.0899648 0.00639415 0.00636402 
1 1 1.30425e-06 1.7425e-16 4.00963e-05 3.43962e-05 6.41307e-07 0.0621281 0.00146029 0.0899648 0.00639415 0.00636402 
4 4 1.04017e-06 8.83889e-17 3.5e-05 4e-05 7.6e-07 0.0769296 0.00034231 0.0903155 0.00842163 0.00736908 
5 5 1.4839e-06 2.56628e-16 4.5e-05 4e-05 8.6e-07 0.0621281 0.00146029 0.0899648 0.00639415 0.00636402 
3 3 1.07294e-06 9.70086e-17 4e-05 4.5e-05 6.6e-07 0.0789575 0.000517604 0.0918717 0.0043609 0.00593561 
2 2 1.28357e-06 1.66093e-16 3.97534e-05 4.02741e-05 1.45506e-06 0.0789575 0.000517604 0.0918717 0.0043609 0.00593561 
8 4 9.99008e-07 1.56612e-17 4.10028e-05 3.486e-05 1.78074e-06 0 0 0 0 0 
9 1 1.3395e-06 1.88762e-16 4.01042e-05 3.55384e-05 1.23599e-06 0.0621281 0.00146029 0.0899648 0.00639415 0.00636402 
ITEM: TIMESTEP
22000
ITEM: NUMBER OF ATOMS
10
ITEM: BOX BOUNDS ff ff ff
0 8e-05
0 8e-05
0 8e-05
ITEM: ATOMS id type diameter mass x y z sub no2 no3 o2 nh4 
6 4 8.78857e-07 1.06629e-17 3.91966e-05 3.5322e-05 4.39428e-07 0 0 0 0 0 
1 1 1.36426e-06 1.99425e-16 4.00904e-05 3.43783e-05 6.39435e-07 0.0634057 0.00157761 0.0899812 0.00621148 0.00628055 
7 2 1.17291e-06 1.26733e-16 4.0248e-05 3.97242e-05 5.48209e-07 0.0634057 0.00157761 0.0899812 0.00621148 0.00628055 
4 4 1.0388e-06 8.80418e-17 3.5e-05 4e-05 7.4e-07 0.073408 0.000315715 0.0902905 0.00834621 0.00733876 
5 5 1.4839e-06 2.56628e-16 4.5e-05 4e-05 8.4e-07 0.0634057 0.00157761 0.0899812 0.00621148 0.00628055 
3 3 1.07969e-06 9.88524e-17 4e-05 4.5e-05 6.4e-07 0.0783938 0.00054079 0.0919449 0.00410672 0.0058411 
9 1 1.06297e-06 9.43308e-17 3.95887e-05 3.5876e-05 1.42743e-06 0.073408 0.000315715 0.0902905 0.00834621 0.00733876 
2 2 1.30622e-06 1.75042e-16 3.9745e-05 4.02835e-05 1.47062e-06 0.0783938 0.00054079 0.0919449 0.00410672 0.0058411 
8 4 9.99008e-07 1.56612e-17 4.10028e-05 3.486e-05 1.78074e-06 0 0 0 0 0 
10 1 1.1539e-06 1.20668e-16 4.06702e-05 3.51962e-05 1.02979e-06 0.0634057 0.00157761 0.0899812 0.00621148 0.00628055 
ITEM: TIMESTEP
24000
ITEM: NUMBER OF ATOMS
11
ITEM: BOX BOUNDS ff ff ff
0 8e-05
0 8e-05
0 8e-05
ITEM: ATOMS id type diameter mass x y z sub no2 no3 o2 nh4 
6 4 8.78857e-07 1.06629e-17 3.91966e-05 3.5322e-05 4.39428e-07 0 0 0 0 0 
1 1 1.0667e-06 9.53273e-17 3.99492e-05 3.4424e-05 6.42723e-07 0.06959 0.000289467 0.0902608 0.00826906 0.00730772 
7 2 1.1945e-06 1.3386e-16 4.02539e-05 3.97177e-05 5.56787e-07 0.0650168 0.0017058 0.09 0.00602266 0.00619421 
4 4 1.03744e-06 8.7696e-17 3.5e-05 4e-05 7.2e-07 0.06959 0.000289467 0.0902608 0.00826906 0.00730772 
5 5 1.4839e-06 2.56628e-16 4.5e-05 4e-05 8.2e-07 0.0650168 0.0017058 0.09 0.00602266 0.00619421 
3 3 1.08663e-06 1.00771e-16 4e-05 4.5e-05 6.2e-07 0.0777887 0.000564871 0.0920182 0.00384945 0.00574539 
9 1 1.10362e-06 1.05571e-16 3.96049e-05 3.58659e-05 1.42138e-06 0.06959 0.000289467 0.0902608 0.00826906 0.00730772 
2 2 1.32906e-06 1.84382e-16 3.97365e-05 4.02929e-05 1.48606e-06 0.0777887 0.000564871 0.0920182 0.00384945 0.00574539 
8 4 9.99008e-07 1.56612e-17 4.10028e-05 3.486e-05 1.78074e-06 0 0 0 0 0 
10 1 1.20746e-06 1.38264e-16 4.06708e-05 3.5212e-05 1.01845e-06 0.0650168 0.0017058 0.09 0.00602266 0.00619421 
11 1 1.18884e-06 1.31965e-16 4.02316e-05 3.43075e-05 1.35706e-06 0.0650168 0.0017058 0.09 0.00602266 0.00619421 
ITEM: TIMESTEP
26000
ITEM: NUMBER OF ATOMS
15
ITEM: BOX BOUNDS ff ff ff
0 8e-05
0 8e-05
0 8e-05
ITEM: ATOMS id type diameter mass x y z sub no2 no3 o2 nh4 
6 4 8.78857e-07 1.06629e-17 3.91966e-05 3.5322e-05 4.39428e-07 0 0 0 0 0 
1 1 1.10701e-06 1.06548e-16 3.99386e-05 3.44264e-05 6.26323e-07 0.0682878 0.000291713 0.0902619 0.00819118 0.00727604 
7 2 1.21638e-06 1.41352e-16 4.02599e-05 3.9711e-05 5.65542e-07 0.0628894 0.0017684 0.089986 0.00581896 0.00610131 
4 4 1.03608e-06 8.73516e-17 3.5e-05 4e-05 7e-07 0.0682878 0.000291713 0.0902619 0.00819118 0.00727604 
5 5 1.4839e-06 2.56628e-16 4.5e-05 4e-05 8e-07 0.0628894 0.0017684 0.089986 0.00581896 0.00610131 
3 3 1.09376e-06 1.02767e-16 4e-05 4.5e-05 6e-07 0.0774962 0.000590439 0.0920964 0.00359208 0.00564979 
9 1 1.14532e-06 1.17997e-16 3.96116e-05 3.58634e-05 1.42787e-06 0.0682878 0.000291713 0.0902619 0.00819118 0.00727604 
2 2 1.35205e-06 1.94117e-16 3.97279e-05 4.03025e-05 1.50136e-06 0.0774962 0.000590439 0.0920964 0.00359208 0.00564979 
8 4 9.99008e-07 1.56612e-17 4.10028e-05 3.486e-05 1.78074e-06 0 0 0 0 0 
10 1 1.26375e-06 1.58516e-16 4.0671e-05 3.52264e-05 1.00457e-06 0.0628894 0.0017684 0.089986 0.00581896 0.00610131 
11 1 1.24426e-06 1.51295e-16 4.02323e-05 3.42968e-05 1.37397e-06 0.0628894 0.0017684 0.089986 0.00581896 0.00610131 
12 4 8.32596e-07 9.06615e-18 4.07332e-05 3.43597e-05 4.16298e-07 0 0 0 0 0 
13 4 9.24901e-07 1.24281e-17 4.00589e-05 3.60059e-05 4.62451e-07 0 0 0 0 0 
14 4 1.02758e-06 1.70436e-17 3.97416e-05 3.56294e-05 5.13788e-07 0 0 0 0 0 
15 4 9.55535e-07 1.37044e-17 4.0789e-05 3.34138e-05 8.31412e-07 0 0 0 0 0 
ITEM: TIMESTEP
28000
ITEM: NUMBER OF ATOMS
15
ITEM: BOX BOUNDS ff ff ff
0 8e-05
0 8e-05
0 8e-05
ITEM: ATOMS id type diameter mass x y z sub no2 no3 o2 nh4 
6 4 8.78857e-07 1.06629e-17 3.91966e-05 3.5322e-05 4.39428e-07 0 0 0 0 0 
1 1 1.14877e-06 1.19068e-16 3.99247e-05 3.44281e-05 6.12076e-07 0.0668399 0.000292591 0.0902612 0.00811241 0.00724388 
7 2 1.23855e-06 1.49222e-16 4.02661e-05 3.97042e-05 5.7446e-07 0.0604588 0.0018297 0.0899694 0.00560778 0.00600491 
4 4 1.03472e-06 8.70085e-17 3.5e-05 4e-05 6.8e-07 0.0668399 0.000292591 0.0902612 0.00811241 0.00724388 
5 5 1.4839e-06 2.56628e-16 4.5e-05 4e-05 7.8e-07 0.0604588 0.0018297 0.0899694 0.00560778 0.00600491 
3 3 1.10106e-06 1.04838e-16 4e-05 4.5e-05 5.8e-07 0.0771693 0.000616603 0.0921729 0.00333591 0.00555435 
9 1 1.18853e-06 1.31863e-16 3.96089e-05 3.58683e-05 1.44706e-06 0.0668399 0.000292591 0.0902612 0.00811241 0.00724388 
2 2 1.37516e-06 2.04246e-16 3.97192e-05 4.03122e-05 1.51653e-06 0.0771693 0.000616603 0.0921729 0.00333591 0.00555435 
8 4 9.99008e-07 1.56612e-17 4.10028e-05 3.486e-05 1.78074e-06 0 0 0 0 0 
10 1 1.32251e-06 1.81672e-16 4.06743e-05 3.5242e-05 9.92555e-07 0.0604588 0.0018297 0.0899694 0.00560778 0.00600491 
11 1 1.30212e-06 1.73397e-16 4.0232e-05 3.42851e-05 1.39015e-06 0.0604588 0.0018297 0.0899694 0.00560778 0.00600491 
12 4 8.32596e-07 9.06615e-18 4.07332e-05 3.43597e-05 4.16298e-07 0 0 0 0 0 
13 4 9.24901e-07 1.24281e-17 4.00589e-05 3.60059e-05 4.62451e-07 0 0 0 0 0 
14 4 1.02758e-06 1.70436e-17 3.97416e-05 3.56294e-05 5.13788e-07 0 0 0 0 0 
15 4 9.55535e-07 1.37044e-17 4.0789e-05 3.34138e-05 8.31412e-07 0 0 0 0 0 
ITEM: TIMESTEP
30000
ITEM: NUMBER OF ATOMS
16
ITEM: BOX BOUNDS ff ff ff
0 8e-05
0 8e-05
0 8e-05
ITEM: ATOMS id type diameter mass x y z sub no2 no3 o2 nh4 
6 4 8.78857e-07 1.06629e-17 3.91966e-05 3.5322e-05 4.39428e-07 0 0 0 0 0 
1 1 1.20086e-06 1.3601e-16 3.99104e-05 3.44291e-05 5.98097e-07 0.0637636 0.00032124 0.0902345 0.00801843 0.00719132 
7 2 1.26084e-06 1.57424e-16 4.0279e-05 3.96968e-05 5.61068e-07 0.057269 0.00191567 0.0899322 0.00538349 0.00589319 
4 4 1.03337e-06 8.66668e-17 3.5e-05 4e-05 6.6e-07 0.0637636 0.00032124 0.0902345 0.00801843 0.00719132 
5 5 1.4839e-06 2.56628e-16 4.5e-05 4e-05 7.6e-07 0.057269 0.00191567 0.0899322 0.00538349 0.00589319 
3 3 1.10667e-06 1.06451e-16 4e-05 4.5e-05 5.6e-07 0.0763917 0.000654738 0.0922293 0.00306395 0.00545386 
9 1 1.24242e-06 1.50626e-16 3.96062e-05 3.58732e-05 1.46625e-06 0.0637636 0.00032124 0.0902345 0.00801843 0.00719132 
2 2 1.06641e-06 9.52494e-17 3.97969e-05 4.00007e-05 1.12173e-06 0.0763917 0.000654738 0.0922293 0.00306395 0.00545386 
8 4 9.99008e-07 1.56612e-17 4.10028e-05 3.486e-05 1.78074e-06 0 0 0 0 0 
10 1 1.38402e-06 2.08215e-16 4.0681e-05 3.52582e-05 9.83042e-07 0.057269 0.00191567 0.0899322 0.00538349 0.00589319 
11 1 1.36267e-06 1.9873e-16 4.02307e-05 3.42725e-05 1.40569e-06 0.057269 0.00191567 0.0899322 0.00538349 0.00589319 
12 4 8.32596e-07 9.06615e-18 4.07332e-05 3.43597e-05 4.16298e-07 0 0 0 0 0 
13 4 9.24901e-07 1.24281e-17 4.00589e-05 3.60059e-05 4.62451e-07 0 0 0 0 0 
14 4 1.02758e-06 1.70436e-17 3.97416e-05 3.56294e-05 5.13788e-07 0 0 0 0 0 
15 4 9.55535e-07 1.37044e-17 4.0789e-05 3.34138e-05 8.31412e-07 0 0 0 0 0 
16 2 1.15278e-06 1.20318e-16 3.9619e-05 4.0668e-05 1.97038e-06 0.0763917 0.000654738 0.0922293 0.00306395 0.00545386 
ITEM: TIMESTEP
32000
ITEM: NUMBER OF ATOMS
18
ITEM: BOX BOUNDS ff ff ff
0 8e-05
0 8e-05
0 8e-05
ITEM: ATOMS id type diameter mass x y z sub no2 no3 o2 nh4 
12 4 8.32596e-07 9.06615e-18 4.07332e-05 3.43597e-05 4.16298e-07 0 0 0 0 0 
6 4 8.78857e-07 1.06629e-17 3.91966e-05 3.5322e-05 4.39428e-07 0 0 0 0 0 
13 4 9.24901e-07 1.24281e-17 4.00589e-05 3.60059e-05 4.62451e-07 0 0 0 0 0 
15 4 9.55535e-07 1.37044e-17 4.0789e-05 3.34138e-05 8.31412e-07 0 0 0 0 0 
1 1 1.24583e-06 1.51869e-16 3.98942e-05 3.44279e-05 5.88835e-07 0.0631921 0.000288141 0.0902498 0.00795154 0.00717766 
17 1 1.1833e-06 1.3013e-16 4.06912e-05 3.52993e-05 6.50161e-07 0.0545849 0.00194585 0.0899262 0.00516436 0.00580217 
14 4 1.02758e-06 1.70436e-17 3.97416e-05 3.56294e-05 5.13788e-07 0 0 0 0 0 
7 2 1.28355e-06 1.66083e-16 4.02926e-05 3.96892e-05 5.48617e-07 0.0545849 0.00194585 0.0899262 0.00516436 0.00580217 
4 4 1.03201e-06 8.63264e-17 3.5e-05 4e-05 6.4e-07 0.0631921 0.000288141 0.0902498 0.00795154 0.00717766 
5 5 1.4839e-06 2.56628e-16 4.5e-05 4e-05 7.4196e-07 0.0545849 0.00194585 0.0899262 0.00516436 0.00580217 
3 3 1.11431e-06 1.0867e-16 4e-05 4.5e-05 5.5716e-07 0.0763463 0.000677222 0.0923171 0.00282146 0.0053604 
11 1 1.16121e-06 1.22977e-16 4.00133e-05 3.36389e-05 1.54763e-06 0.0545849 0.00194585 0.0899262 0.00516436 0.00580217 
9 1 1.28895e-06 1.68188e-16 3.96035e-05 3.58782e-05 1.48545e-06 0.0631921 0.000288141 0.0902498 0.00795154 0.00717766 
2 2 1.08414e-06 1.00079e-16 3.97843e-05 4.00079e-05 1.13549e-06 0.0763463 0.000677222 0.0923171 0.00282146 0.0053604 
8 4 9.99008e-07 1.56612e-17 4.10028e-05 3.486e-05 1.78074e-06 0 0 0 0 0 
10 1 1.11271e-06 1.08203e-16 4.0677e-05 3.52385e-05 1.61477e-06 0.0545849 0.00194585 0.0899262 0.00516436 0.00580217 
16 2 1.17195e-06 1.26419e-16 3.96159e-05 4.06803e-05 1.98589e-06 0.0763463 0.000677222 0.0923171 0.00282146 0.0053604 
18 1 1.09987e-06 1.04499e-16 4.04279e-05 3.48583e-05 1.27609e-06 0.0545849 0.00194585 0.0899262 0.00516436 0.00580217 
ITEM: TIMESTEP
34000
ITEM: NUMBER OF ATOMS
18
ITEM: BOX BOUNDS ff ff ff
0 8e-05
0 8e-05
0 8e-05
ITEM: ATOMS id type diameter mass x y z sub no2 no3 o2 nh4 
12 4 8.32596e-07 9.06615e-18 4.07332e-05 3.43597e-05 4.16298e-07 0 0 0 0 0 
6 4 8.78857e-07 1.06629e-17 3.91966e-05 3.5322e-05 4.39428e-07 0 0 0 0 0 
13 4 9.24901e-07 1.24281e-17 4.00589e-05 3.60059e-05 4.62451e-07 0 0 0 0 0 
15 4 9.55535e-07 1.37044e-17 4.0789e-05 3.34138e-05 8.31412e-07 0 0 0 0 0 
1 1 1.29216e-06 1.69449e-16 3.98758e-05 3.44214e-05 5.84331e-07 0.0612358 0.000284206 0.0902415 0.0078732 0.00714522 
17 1 1.23741e-06 1.4881e-16 4.07025e-05 3.53057e-05 6.34955e-07 0.0511728 0.0020003 0.0899001 0.0049326 0.00569605 
14 4 1.02758e-06 1.70436e-17 3.97416e-05 3.56294e-05 5.13788e-07 0 0 0 0 0 
7 2 1.3065e-06 1.75155e-16 4.03072e-05 3.96811e-05 5.37474e-07 0.0511728 0.0020003 0.0899001 0.0049326 0.00569605 
4 4 1.03066e-06 8.59874e-17 3.5e-05 4e-05 6.2e-07 0.0612358 0.000284206 0.0902415 0.0078732 0.00714522 
5 5 1.4839e-06 2.56628e-16 4.5e-05 4e-05 7.4196e-07 0.0511728 0.0020003 0.0899001 0.0049326 0.00569605 
3 3 1.12207e-06 1.10955e-16 4e-05 4.5e-05 5.6104e-07 0.0759048 0.000705061 0.0923822 0.00258401 0.00527063 
11 1 1.21431e-06 1.40631e-16 4.00121e-05 3.36452e-05 1.54503e-06 0.0511728 0.0020003 0.0899001 0.0049326 0.00569605 
9 1 1.33688e-06 1.87657e-16 3.96007e-05 3.58831e-05 1.50464e-06 0.0612358 0.000284206 0.0902415 0.0078732 0.00714522 
2 2 1.10188e-06 1.05073e-16 3.97712e-05 4.00147e-05 1.14898e-06 0.0759048 0.000705061 0.0923822 0.00258401 0.00527063 
8 4 9.99008e-07 1.56612e-17 4.10028e-05 3.486e-05 1.78074e-06 0 0 0 0 0 
10 1 1.16359e-06 1.23735e-16 4.06747e-05 3.52564e-05 1.62328e-06 0.0511728 0.0020003 0.0899001 0.0049326 0.00569605 
16 2 1.19112e-06 1.32727e-16 3.96129e-05 4.06925e-05 2.00139e-06 0.0759048 0.000705061 0.0923822 0.00258401 0.00527063 
18 1 1.15016e-06 1.195e-16 4.04141e-05 3.48441e-05 1.27331e-06 0.0511728 0.0020003 0.0899001 0.0049326 0.00569605 
ITEM: TIMESTEP
36000
ITEM: NUMBER OF ATOMS
18
ITEM: BOX BOUNDS ff ff ff
0 8e-05
0 8e-05
0 8e-05
ITEM: ATOMS id type diameter mass x y z sub no2 no3 o2 nh4 
12 4 8.32596e-07 9.06615e-18 4.07332e-05 3.43597e-05 4.16298e-07 0 0 0 0 0 
6 4 8.78857e-07 1.06629e-17 3.91966e-05 3.5322e-05 4.39428e-07 0 0 0 0 0 
13 4 9.24901e-07 1.24281e-17 4.00589e-05 3.60059e-05 4.62451e-07 0 0 0 0 0 
15 4 9.55535e-07 1.37044e-17 4.0789e-05 3.34138e-05 8.31412e-07 0 0 0 0 0 
1 1 1.33985e-06 1.88914e-16 3.98576e-05 3.44149e-05 5.79188e-07 0.0590991 0.000278918 0.09023 0.00779608 0.00711304 
17 1 1.29345e-06 1.69955e-16 4.07148e-05 3.53122e-05 6.20644e-07 0.047413 0.00205212 0.0898703 0.00469494 0.00558705 
14 4 1.02758e-06 1.70436e-17 3.97416e-05 3.56294e-05 5.13788e-07 0 0 0 0 0 
7 2 1.3297e-06 1.8465e-16 4.03227e-05 3.96727e-05 5.28138e-07 0.047413 0.00205212 0.0898703 0.00469494 0.00558705 
4 4 1.02931e-06 8.56496e-17 3.5e-05 4e-05 6e-07 0.0590991 0.000278918 0.09023 0.00779608 0.00711304 
5 5 1.4839e-06 2.56628e-16 4.5e-05 4e-05 7.4196e-07 0.047413 0.00205212 0.0898703 0.00469494 0.00558705 
3 3 1.12992e-06 1.13302e-16 4e-05 4.5e-05 5.6496e-07 0.0754173 0.000733353 0.0924416 0.00235778 0.00518452 
11 1 1.2693e-06 1.60613e-16 4.00085e-05 3.36368e-05 1.56278e-06 0.047413 0.00205212 0.0898703 0.00469494 0.00558705 
9 1 1.38622e-06 2.09214e-16 3.95951e-05 3.58895e-05 1.52262e-06 0.0590991 0.000278918 0.09023 0.00779608 0.00711304 
2 2 1.11959e-06 1.10223e-16 3.97575e-05 4.00211e-05 1.16206e-06 0.0754173 0.000733353 0.0924416 0.00235778 0.00518452 
8 4 9.99008e-07 1.56612e-17 4.10028e-05 3.486e-05 1.78074e-06 0 0 0 0 0 
10 1 1.21628e-06 1.41317e-16 4.06731e-05 3.52742e-05 1.63236e-06 0.047413 0.00205212 0.0898703 0.00469494 0.00558705 
16 2 1.21027e-06 1.39232e-16 3.96101e-05 4.07049e-05 2.01687e-06 0.0754173 0.000733353 0.0924416 0.00235778 0.00518452 
18 1 1.20224e-06 1.3648e-16 4.04005e-05 3.48295e-05 1.27176e-06 0.047413 0.00205212 0.0898703 0.00469494 0.00558705 
ITEM: TIMESTEP
38000
ITEM: NUMBER OF ATOMS
19
ITEM: BOX BOUNDS ff ff ff
0 8e-05
0 8e-05
0 8e-05
ITEM: ATOMS id type diameter mass x y z sub no2 no3 o2 nh4 
12 4 8.32596e-07 9.06615e-18 4.07332e-05 3.43597e-05 4.16298e-07 0 0 0 0 0 
6 4 8.78857e-07 1.06629e-17 3.91966e-05 3.5322e-05 4.39428e-07 0 0 0 0 0 
13 4 9.24901e-07 1.24281e-17 4.00589e-05 3.60059e-05 4.62451e-07 0 0 0 0 0 
15 4 9.55535e-07 1.37044e-17 4.0789e-05 3.34138e-05 8.31412e-07 0 0 0 0 0 
1 1 1.38886e-06 2.10412e-16 3.98395e-05 3.44086e-05 5.73382e-07 0.056791 0.00027227 0.0902153 0.00772075 0.00708137 
17 1 1.35127e-06 1.93782e-16 4.07282e-05 3.53191e-05 6.07538e-07 0.0433325 0.00210125 0.0898372 0.00445212 0.00547552 
14 4 1.02758e-06 1.70436e-17 3.97416e-05 3.56294e-05 5.13788e-07 0 0 0 0 0 
7 2 1.35311e-06 1.94577e-16 4.03393e-05 3.9664e-05 5.21258e-07 0.0433325 0.00210125 0.0898372 0.00445212 0.00547552 
4 4 1.02796e-06 8.53133e-17 3.5e-05 4e-05 5.8e-07 0.056791 0.00027227 0.0902153 0.00772075 0.00708137 
5 5 1.4839e-06 2.56628e-16 4.5e-05 4e-05 7.4196e-07 0.0433325 0.00210125 0.0898372 0.00445212 0.00547552 
3 3 1.13786e-06 1.15707e-16 4e-05 4.5e-05 5.6892e-07 0.0748896 0.000761979 0.0924944 0.00214509 0.0051029 
11 1 1.32604e-06 1.8313e-16 4.00049e-05 3.36284e-05 1.58059e-06 0.0433325 0.00210125 0.0898372 0.00445212 0.00547552 
9 1 1.16428e-06 1.23954e-16 3.96067e-05 3.56751e-05 2.16289e-06 0.056791 0.00027227 0.0902153 0.00772075 0.00708137 
2 2 1.13725e-06 1.15521e-16 3.9743e-05 4.0027e-05 1.17458e-06 0.0748896 0.000761979 0.0924944 0.00214509 0.0051029 
8 4 9.99008e-07 1.56612e-17 4.10028e-05 3.486e-05 1.78074e-06 0 0 0 0 0 
10 1 1.27066e-06 1.61129e-16 4.0671e-05 3.52918e-05 1.64162e-06 0.0433325 0.00210125 0.0898372 0.00445212 0.00547552 
16 2 1.22936e-06 1.45924e-16 3.96076e-05 4.07173e-05 2.03235e-06 0.0748896 0.000761979 0.0924944 0.00214509 0.0051029 
18 1 1.25599e-06 1.55613e-16 4.03871e-05 3.48147e-05 1.27147e-06 0.0433325 0.00210125 0.0898372 0.00445212 0.00547552 
19 1 1.11567e-06 1.09068e-16 3.95897e-05 3.61e-05 9.13429e-07 0.056791 0.00027227 0.0902153 0.00772075 0.00708137 
ITEM: TIMESTEP
40000
ITEM: NUMBER OF ATOMS
21
ITEM: BOX BOUNDS ff ff ff
0 8e-05
0 8e-05
0 8e-05
ITEM: ATOMS id type diameter mass x y z sub no2 no3 o2 nh4 
12 4 8.32596e-07 9.06615e-18 4.07332e-05 3.43597e-05 4.16298e-07 0 0 0 0 0 
6 4 8.78857e-07 1.06629e-17 3.91966e-05 3.5322e-05 4.39428e-07 0 0 0 0 0 
13 4 9.24901e-07 1.24281e-17 4.00589e-05 3.60059e-05 4.62451e-07 0 0 0 0 0 
15 4 9.55535e-07 1.37044e-17 4.0789e-05 3.34138e-05 8.31412e-07 0 0 0 0 0 
1 1 1.20739e-06 1.38241e-16 3.97585e-05 3.4387e-05 7.00057e-07 0.0543228 0.000264464 0.0901972 0.00764771 0.00705041 
17 1 1.12492e-06 1.11802e-16 4.07591e-05 3.53486e-05 1.27879e-06 0.0389878 0.00214829 0.0898011 0.00420506 0.00536188 
14 4 1.02758e-06 1.70436e-17 3.97416e-05 3.56294e-05 5.13788e-07 0 0 0 0 0 
7 2 1.37672e-06 2.04942e-16 4.03568e-05 3.9655e-05 5.17536e-07 0.0389878 0.00214829 0.0898011 0.00420506 0.00536188 
4 4 1.02661e-06 8.49782e-17 3.5e-05 4e-05 5.6e-07 0.0543228 0.000264464 0.0901972 0.00764771 0.00705041 
5 5 1.4839e-06 2.56628e-16 4.5e-05 4e-05 7.4196e-07 0.0389878 0.00214829 0.0898011 0.00420506 0.00536188 
3 3 1.14585e-06 1.18162e-16 4e-05 4.5e-05 5.7292e-07 0.0743261 0.000790869 0.09254 0.00194776 0.00502644 
11 1 1.38433e-06 2.08355e-16 4.00054e-05 3.36116e-05 1.59141e-06 0.0389878 0.00214829 0.0898011 0.00420506 0.00536188 
9 1 1.20641e-06 1.37903e-16 3.9601e-05 3.56772e-05 2.16391e-06 0.0543228 0.000264464 0.0901972 0.00764771 0.00705041 
2 2 1.15482e-06 1.20956e-16 3.97277e-05 4.00322e-05 1.18635e-06 0.0743261 0.000790869 0.09254 0.00194776 0.00502644 
8 4 9.99008e-07 1.56612e-17 4.10028e-05 3.486e-05 1.78074e-06 0 0 0 0 0 
10 1 1.32651e-06 1.83323e-16 4.06682e-05 3.53059e-05 1.65459e-06 0.0389878 0.00214829 0.0898011 0.00420506 0.00536188 
16 2 1.24835e-06 1.5279e-16 3.96053e-05 4.07298e-05 2.0478e-06 0.0743261 0.000790869 0.09254 0.00194776 0.00502644 
18 1 1.31119e-06 1.77048e-16 4.03794e-05 3.47964e-05 1.2703e-06 0.0389878 0.00214829 0.0898011 0.00420506 0.00536188 
19 1 1.15604e-06 1.21341e-16 3.958e-05 3.61103e-05 9.27612e-07 0.0543228 0.000264464 0.0901972 0.00764771 0.00705041 
20 1 1.06864e-06 9.58488e-17 3.98914e-05 3.44248e-05 1.22426e-06 0.0543228 0.000264464 0.0901972 0.00764771 0.00705041 
21 1 1.11432e-06 1.08672e-16 4.07167e-05 3.53045e-05 6.64144e-07 0.0389878 0.00214829 0.0898011 0.00420506 0.00536188 
ITEM: TIMESTEP
42000
ITEM: NUMBER OF ATOMS
26
ITEM: BOX BOUNDS ff ff ff
0 8e-05
0 8e-05
0 8e-05
ITEM: ATOMS id type diameter mass x y z sub no2 no3 o2 nh4 
12 4 8.32596e-07 9.06615e-18 4.07332e-05 3.43597e-05 4.16298e-07 0 0 0 0 0 
6 4 8.78857e-07 1.06629e-17 3.91966e-05 3.5322e-05 4.39428e-07 0 0 0 0 0 
13 4 9.24901e-07 1.24281e-17 4.00589e-05 3.60059e-05 4.62451e-07 0 0 0 0 0 
15 4 9.55535e-07 1.37044e-17 4.0789e-05 3.34138e-05 8.31412e-07 0 0 0 0 0 
1 1 1.24966e-06 1.53274e-16 3.97492e-05 3.43794e-05 6.84637e-07 0.0491721 0.000236343 0.0901411 0.00757665 0.00702034 
21 1 1.16311e-06 1.2358e-16 4.07229e-05 3.53079e-05 6.45648e-07 0.0377698 0.00225681 0.0897905 0.00396503 0.00525113 
14 4 1.02758e-06 1.70436e-17 3.97416e-05 3.56294e-05 5.13788e-07 0 0 0 0 0 
19 1 1.19651e-06 1.34537e-16 3.95705e-05 3.61207e-05 9.41817e-07 0.0491721 0.000236343 0.0901411 0.00757665 0.00702034 
23 2 1.1329e-06 1.142e-16 4.06669e-05 3.93822e-05 5.49344e-07 0.0377698 0.00225681 0.0897905 0.00396503 0.00525113 
7 2 1.08943e-06 1.01553e-16 4.00861e-05 3.99048e-05 8.8523e-07 0.0377698 0.00225681 0.0897905 0.00396503 0.00525113 
4 4 1.02527e-06 8.46445e-17 3.5e-05 4e-05 5.4e-07 0.0491721 0.000236343 0.0901411 0.00757665 0.00702034 
5 5 1.4839e-06 2.56628e-16 4.5e-05 4e-05 7.4196e-07 0.0377698 0.00225681 0.0897905 0.00396503 0.00525113 
3 3 1.15387e-06 1.2066e-16 4e-05 4.5e-05 5.7694e-07 0.0734163 0.000819662 0.0925733 0.00176569 0.00495505 
11 1 1.20474e-06 1.37331e-16 4.05303e-05 3.35546e-05 1.12581e-06 0.0377698 0.00225681 0.0897905 0.00396503 0.00525113 
20 1 1.10605e-06 1.06272e-16 3.98819e-05 3.44163e-05 1.23966e-06 0.0491721 0.000236343 0.0901411 0.00757665 0.00702034 
18 1 1.3686e-06 2.01336e-16 4.03729e-05 3.47783e-05 1.27348e-06 0.0377698 0.00225681 0.0897905 0.00396503 0.00525113 
17 1 1.17417e-06 1.2714e-16 4.07676e-05 3.53639e-05 1.26904e-06 0.0377698 0.00225681 0.0897905 0.00396503 0.00525113 
2 2 1.17225e-06 1.26517e-16 3.97116e-05 4.0036e-05 1.19758e-06 0.0734163 0.000819662 0.0925733 0.00176569 0.00495505 
8 4 9.99008e-07 1.56612e-17 4.10028e-05 3.486e-05 1.78074e-06 0 0 0 0 0 
10 1 1.38459e-06 2.08473e-16 4.06646e-05 3.53167e-05 1.67104e-06 0.0377698 0.00225681 0.0897905 0.00396503 0.00525113 
22 1 1.07334e-06 9.71173e-17 3.95296e-05 3.36804e-05 2.00906e-06 0.0491721 0.000236343 0.0901411 0.00757665 0.00702034 