  Granular Flow Simulation 

       25000  atoms 
          1  atom types 

   -0.0002  0.0102  xlo xhi 
   0  2.000000e-02  ylo yhi 
   -0.0002  0.0102  zlo zhi 

 Atoms

     1   1 1.000000e-04  1100   1.072540e-04   2.504500e-05   9.596740e-03
     2   1 1.000000e-04  1100   2.860120e-04   4.293640e-05   4.162300e-03
     3   1 1.000000e-04  1100   3.038990e-04   3.351810e-05   9.454430e-03
     4   1 1.000000e-04  1100   5.148500e-04   5.903790e-05   5.709390e-03
     5   1 1.000000e-04  1100   6.440520e-04   1.042230e-05   7.075360e-03
     6   1 1.000000e-04  1100   7.978410e-04   4.972690e-05   2.540320e-03
     7   1 1.000000e-04  1100   8.027280e-04   1.179320e-06   8.121250e-03
     8   1 1.000000e-04  1100   9.056740e-04   1.334130e-05   8.666210e-03
     9   1 1.000000e-04  1100   1.005930e-03   1.066890e-06   3.551410e-03
    10   1 1.000000e-04  1100   1.057640e-03   5.942400e-05   4.348120e-03
    11   1 1.000000e-04  1100   1.138830e-03   5.950480e-05   8.347730e-03
    12   1 1.000000e-04  1100   1.169350e-03   4.448220e-05   6.869590e-03
    13   1 1.000000e-04  1100   1.275020e-03   5.354000e-05   4.310140e-03
    14   1 1.000000e-04  1100   1.293440e-03   5.684870e-05   7.607540e-03
    15   1 1.000000e-04  1100   1.307480e-03   1.948610e-05   8.796270e-03
    16   1 1.000000e-04  1100   1.344350e-03   1.358140e-05   2.884150e-04
    17   1 1.000000e-04  1100   1.325910e-03   9.209930e-06   1.189800e-03
    18   1 1.000000e-04  1100   1.498370e-03   1.965990e-05   1.454800e-03
    19   1 1.000000e-04  1100   1.622340e-03   4.532510e-05   5.044770e-03
    20   1 1.000000e-04  1100   1.608550e-03   8.177520e-07   8.313770e-03
    21   1 1.000000e-04  1100   1.653000e-03   1.908500e-05   1.905680e-03
    22   1 1.000000e-04  1100   2.395180e-03   3.100940e-05   4.714610e-03
    23   1 1.000000e-04  1100   2.508540e-03   1.680730e-05   1.354830e-04
    24   1 1.000000e-04  1100   2.472140e-03   1.150860e-05   3.511860e-03
    25   1 1.000000e-04  1100   2.632450e-03   4.884070e-05   6.488060e-03
    26   1 1.000000e-04  1100   2.691010e-03   1.695570e-06   6.774940e-03
    27   1 1.000000e-04  1100   2.897860e-03   1.450590e-05   8.843830e-03
    28   1 1.000000e-04  1100   3.037950e-03   5.588170e-05   3.292570e-03
    29   1 1.000000e-04  1100   3.182400e-03   1.742750e-06   6.598050e-04
    30   1 1.000000e-04  1100   3.396680e-03   4.091080e-05   9.952030e-04
    31   1 1.000000e-04  1100   3.408080e-03   4.909500e-05   6.185420e-03
    32   1 1.000000e-04  1100   3.539620e-03   5.044700e-05   7.543770e-03
    33   1 1.000000e-04  1100   4.063010e-03   2.334470e-05   6.857920e-03
    34   1 1.000000e-04  1100   4.296520e-03   3.151150e-05   8.907580e-03
    35   1 1.000000e-04  1100   4.314980e-03   2.086200e-05   9.208750e-03
    36   1 1.000000e-04  1100   4.441060e-03   5.201310e-05   9.005880e-03
    37   1 1.000000e-04  1100   4.563710e-03   4.617150e-05   6.214710e-03
    38   1 1.000000e-04  1100   4.587600e-03   3.216010e-05   1.818700e-03
    39   1 1.000000e-04  1100   4.897290e-03   4.399950e-05   5.183460e-03
    40   1 1.000000e-04  1100   4.993690e-03   2.144380e-05   6.381890e-03
    41   1 1.000000e-04  1100   5.068440e-03   4.184090e-05   5.160100e-03
    42   1 1.000000e-04  1100   5.236430e-03   5.992720e-05   3.905220e-03
    43   1 1.000000e-04  1100   5.196570e-03   5.275290e-05   6.352590e-03
    44   1 1.000000e-04  1100   5.360070e-03   4.272970e-05   5.231330e-03
    45   1 1.000000e-04  1100   5.325960e-03   5.130750e-05   9.199870e-03
    46   1 1.000000e-04  1100   5.752510e-03   2.516360e-05   4.410140e-03
    47   1 1.000000e-04  1100   6.059420e-03   3.242800e-05   6.519430e-03
    48   1 1.000000e-04  1100   6.134430e-03   4.268860e-05   6.372300e-03
    49   1 1.000000e-04  1100   6.348190e-03   1.173030e-05   1.893970e-03
    50   1 1.000000e-04  1100   6.412050e-03   4.650870e-05   7.524240e-03
    51   1 1.000000e-04  1100   6.860060e-03   2.206460e-06   9.450470e-04
    52   1 1.000000e-04  1100   6.832670e-03   2.747640e-05   7.148490e-03
    53   1 1.000000e-04  1100   6.882390e-03   4.374200e-05   6.767770e-03
    54   1 1.000000e-04  1100   6.965290e-03   3.519000e-05   2.745020e-03
    55   1 1.000000e-04  1100   6.934430e-03   3.535780e-05   3.167220e-03
    56   1 1.000000e-04  1100   7.121890e-03   3.003620e-05   5.887760e-03
    57   1 1.000000e-04  1100   7.335230e-03   1.950450e-06   8.870240e-03
    58   1 1.000000e-04  1100   7.358220e-03   2.238470e-05   9.380360e-03
    59   1 1.000000e-04  1100   7.461110e-03   5.308200e-05   2.129800e-03
    60   1 1.000000e-04  1100   7.531000e-03   5.686590e-05   5.633860e-03
    61   1 1.000000e-04  1100   7.569380e-03   2.811450e-05   8.837890e-03
    62   1 1.000000e-04  1100   7.606900e-03   3.243750e-05   4.240500e-03
    63   1 1.000000e-04  1100   7.601710e-03   4.894360e-05   6.289460e-03
    64   1 1.000000e-04  1100   7.832110e-03   4.719870e-06   6.859510e-03
    65   1 1.000000e-04  1100   7.919730e-03   1.048730e-05   5.627310e-04
    66   1 1.000000e-04  1100   7.942530e-03   4.332650e-05   7.377610e-03
    67   1 1.000000e-04  1100   8.034570e-03   7.575590e-06   2.807690e-03
    68   1 1.000000e-04  1100   8.098000e-03   3.181950e-05   2.290610e-03
    69   1 1.000000e-04  1100   8.133900e-03   4.819130e-05   6.217890e-03
    70   1 1.000000e-04  1100   8.200190e-03   4.425050e-05   1.757590e-04
    71   1 1.000000e-04  1100   8.585850e-03   4.069030e-05   3.340260e-03
    72   1 1.000000e-04  1100   8.621340e-03   2.615630e-05   1.250970e-03
    73   1 1.000000e-04  1100   8.778910e-03   2.020110e-05   3.234100e-03
    74   1 1.000000e-04  1100   8.896420e-03   9.098560e-06   3.377550e-03
    75   1 1.000000e-04  1100   8.980760e-03   4.457090e-07   4.322290e-03
    76   1 1.000000e-04  1100   9.156090e-03   1.796340e-05   4.811730e-03
    77   1 1.000000e-04  1100   9.233150e-03   4.763150e-05   5.012190e-03
    78   1 1.000000e-04  1100   9.301350e-03   5.970350e-05   3.328380e-04
    79   1 1.000000e-04  1100   9.401410e-03   5.266460e-05   3.895210e-03
    80   1 1.000000e-04  1100   9.601870e-03   5.588530e-05   4.325450e-03
    81   1 1.000000e-04  1100   9.806410e-03   1.987170e-05   5.020310e-05
    82   1 1.000000e-04  1100   2.379040e-05   8.681870e-05   5.748210e-03
    83   1 1.000000e-04  1100   1.153460e-04   9.608180e-05   4.525230e-03
    84   1 1.000000e-04  1100   3.273020e-04   1.193750e-04   9.383420e-03
    85   1 1.000000e-04  1100   3.889110e-04   1.188560e-04   9.294220e-03
    86   1 1.000000e-04  1100   5.430630e-04   1.175480e-04   8.674450e-03
    87   1 1.000000e-04  1100   6.872140e-04   1.160230e-04   3.953930e-03
    88   1 1.000000e-04  1100   7.559150e-04   8.952390e-05   2.874330e-03
    89   1 1.000000e-04  1100   8.354200e-04   6.525910e-05   2.401010e-03
    90   1 1.000000e-04  1100   7.952260e-04   6.796110e-05   8.882470e-03
    91   1 1.000000e-04  1100   9.183570e-04   8.839470e-05   1.208800e-03
    92   1 1.000000e-04  1100   1.208550e-03   1.194960e-04   5.742740e-03
    93   1 1.000000e-04  1100   1.341030e-03   7.534420e-05   8.940900e-04
    94   1 1.000000e-04  1100   1.850290e-03   6.051530e-05   6.018330e-03
    95   1 1.000000e-04  1100   1.963500e-03   1.122200e-04   3.242640e-03
    96   1 1.000000e-04  1100   2.003250e-03   9.053100e-05   2.445440e-03
    97   1 1.000000e-04  1100   2.136970e-03   9.009800e-05   2.567380e-04
    98   1 1.000000e-04  1100   2.149630e-03   7.017270e-05   2.999850e-03
    99   1 1.000000e-04  1100   2.129880e-03   6.715570e-05   9.373540e-03
   100   1 1.000000e-04  1100   2.307210e-03   9.371690e-05   1.596900e-03
   101   1 1.000000e-04  1100   2.376610e-03   1.138560e-04   7.443560e-03
   102   1 1.000000e-04  1100   2.572930e-03   9.882470e-05   1.336920e-03
   103   1 1.000000e-04  1100   2.607730e-03   6.574390e-05   1.822590e-03
   104   1 1.000000e-04  1100   2.702000e-03   9.002790e-05   5.937590e-03
   105   1 1.000000e-04  1100   2.890570e-03   6.832420e-05   9.442700e-03
   106   1 1.000000e-04  1100   3.161320e-03   8.524230e-05   2.549780e-03
   107   1 1.000000e-04  1100   3.275220e-03   7.907710e-05   3.757650e-03
   108   1 1.000000e-04  1100   3.329140e-03   7.063400e-05   2.706560e-03
   109   1 1.000000e-04  1100   3.344760e-03   9.336810e-05   7.727020e-03
   110   1 1.000000e-04  1100   3.420600e-03   9.863690e-05   4.508130e-03
   111   1 1.000000e-04  1100   3.664670e-03   8.903630e-05   9.778410e-03
   112   1 1.000000e-04  1100   3.767920e-03   1.012270e-04   7.292500e-03
   113   1 1.000000e-04  1100   3.855590e-03   8.090100e-05   7.337140e-03
   114   1 1.000000e-04  1100   3.927150e-03   9.336430e-05   1.885710e-03
   115   1 1.000000e-04  1100   4.089360e-03   9.489480e-05   7.331520e-03
   116   1 1.000000e-04  1100   4.097040e-03   1.063050e-04   2.765300e-04
   117   1 1.000000e-04  1100   4.096590e-03   1.042700e-04   6.534800e-03
   118   1 1.000000e-04  1100   4.409490e-03   1.168100e-04   4.197560e-03
   119   1 1.000000e-04  1100   4.507710e-03   8.965570e-05   3.721730e-03
   120   1 1.000000e-04  1100   4.613620e-03   7.190120e-05   9.714480e-03
   121   1 1.000000e-04  1100   4.709520e-03   1.066530e-04   3.790010e-03
   122   1 1.000000e-04  1100   4.821620e-03   1.129630e-04   8.824840e-03
   123   1 1.000000e-04  1100   5.112390e-03   8.342640e-05   8.353980e-03
   124   1 1.000000e-04  1100   5.361990e-03   6.373510e-05   2.726340e-03
   125   1 1.000000e-04  1100   5.391740e-03   1.024040e-04   4.983860e-03
   126   1 1.000000e-04  1100   5.460220e-03   9.477500e-05   5.329250e-03
   127   1 1.000000e-04  1100   5.451050e-03   1.068130e-04   7.345190e-03
   128   1 1.000000e-04  1100   5.530870e-03   6.554640e-05   3.929080e-03
   129   1 1.000000e-04  1100   5.672870e-03   1.008590e-04   1.594820e-03
   130   1 1.000000e-04  1100   5.727720e-03   7.314910e-05   2.807730e-03
   131   1 1.000000e-04  1100   5.753350e-03   6.297320e-05   8.661850e-03
   132   1 1.000000e-04  1100   5.795800e-03   7.468290e-05   2.082600e-03
   133   1 1.000000e-04  1100   5.999520e-03   7.432410e-05   9.934350e-03
   134   1 1.000000e-04  1100   6.129260e-03   7.314290e-05   1.339240e-04
   135   1 1.000000e-04  1100   6.235180e-03   9.085390e-05   3.649350e-03
   136   1 1.000000e-04  1100   6.290210e-03   1.105630e-04   2.239360e-04
   137   1 1.000000e-04  1100   6.371820e-03   7.439370e-05   6.956470e-03
   138   1 1.000000e-04  1100   6.359240e-03   1.034420e-04   8.501020e-03
   139   1 1.000000e-04  1100   6.432410e-03   8.547630e-05   5.769270e-03
   140   1 1.000000e-04  1100   6.838220e-03   9.704580e-05   8.359160e-03
   141   1 1.000000e-04  1100   7.837130e-03   1.161570e-04   5.821390e-03
   142   1 1.000000e-04  1100   8.001210e-03   6.223900e-05   4.631130e-03
   143   1 1.000000e-04  1100   8.042980e-03   1.062710e-04   9.790920e-03
   144   1 1.000000e-04  1100   8.155850e-03   7.719550e-05   2.767290e-04
   145   1 1.000000e-04  1100   8.209320e-03   1.136530e-04   4.940570e-03
   146   1 1.000000e-04  1100   8.245730e-03   8.074960e-05   7.032350e-03
   147   1 1.000000e-04  1100   8.326910e-03   6.569250e-05   1.425100e-03
   148   1 1.000000e-04  1100   8.608370e-03   7.687790e-05   2.316130e-03
   149   1 1.000000e-04  1100   8.633730e-03   8.993590e-05   4.122360e-03
   150   1 1.000000e-04  1100   8.680730e-03   1.018540e-04   6.193110e-03
   151   1 1.000000e-04  1100   8.811980e-03   6.320870e-05   4.791760e-03
   152   1 1.000000e-04  1100   8.971870e-03   8.593170e-05   4.659950e-03
   153   1 1.000000e-04  1100   8.957930e-03   6.348560e-05   5.168540e-03
   154   1 1.000000e-04  1100   8.993460e-03   1.027560e-04   9.881150e-03
   155   1 1.000000e-04  1100   9.068310e-03   1.124040e-04   5.141410e-03
   156   1 1.000000e-04  1100   9.072550e-03   1.125050e-04   6.272980e-03
   157   1 1.000000e-04  1100   9.238650e-03   1.139270e-04   5.184620e-03
   158   1 1.000000e-04  1100   9.370470e-03   1.122190e-04   9.119230e-03
   159   1 1.000000e-04  1100   9.743810e-03   8.144270e-05   7.234070e-03
   160   1 1.000000e-04  1100   9.951630e-03   9.871850e-05   1.871160e-03
   161   1 1.000000e-04  1100   3.598120e-05   1.533570e-04   5.801170e-04
   162   1 1.000000e-04  1100   1.139900e-04   1.353990e-04   3.653980e-03
   163   1 1.000000e-04  1100   2.251530e-04   1.290240e-04   5.313360e-04
   164   1 1.000000e-04  1100   1.898560e-04   1.326200e-04   8.589550e-03
   165   1 1.000000e-04  1100   1.881670e-04   1.655920e-04   8.751660e-03
   166   1 1.000000e-04  1100   7.590200e-04   1.367660e-04   4.651990e-03
   167   1 1.000000e-04  1100   8.519000e-04   1.575840e-04   1.523370e-03
   168   1 1.000000e-04  1100   1.194390e-03   1.616270e-04   1.744670e-03
   169   1 1.000000e-04  1100   1.320260e-03   1.716190e-04   7.177320e-03
   170   1 1.000000e-04  1100   1.446190e-03   1.431710e-04   7.410880e-03
   171   1 1.000000e-04  1100   1.479180e-03   1.250530e-04   7.759720e-03
   172   1 1.000000e-04  1100   1.657210e-03   1.417320e-04   2.407500e-03
   173   1 1.000000e-04  1100   1.626930e-03   1.274160e-04   9.783340e-03
   174   1 1.000000e-04  1100   1.691770e-03   1.503180e-04   6.728340e-04
   175   1 1.000000e-04  1100   1.792880e-03   1.621050e-04   6.541160e-03
   176   1 1.000000e-04  1100   1.912210e-03   1.773850e-04   7.225090e-03
   177   1 1.000000e-04  1100   1.952100e-03   1.665420e-04   7.943790e-03
   178   1 1.000000e-04  1100   2.043490e-03   1.737720e-04   6.112610e-03
   179   1 1.000000e-04  1100   2.072870e-03   1.590140e-04   1.818210e-03
   180   1 1.000000e-04  1100   2.183280e-03   1.352740e-04   9.782640e-04
   181   1 1.000000e-04  1100   2.208090e-03   1.589310e-04   1.939180e-03
   182   1 1.000000e-04  1100   2.287360e-03   1.344110e-04   1.038070e-03
   183   1 1.000000e-04  1100   2.294650e-03   1.527470e-04   7.818510e-03
   184   1 1.000000e-04  1100   2.317240e-03   1.276950e-04   8.334620e-03
   185   1 1.000000e-04  1100   2.480260e-03   1.304940e-04   2.820920e-03
   186   1 1.000000e-04  1100   2.545520e-03   1.276540e-04   7.931850e-03
   187   1 1.000000e-04  1100   2.605290e-03   1.296870e-04   9.021500e-03
   188   1 1.000000e-04  1100   2.656440e-03   1.761060e-04   1.150470e-03
   189   1 1.000000e-04  1100   2.678610e-03   1.498060e-04   8.294710e-03
   190   1 1.000000e-04  1100   3.097450e-03   1.663680e-04   3.087460e-03
   191   1 1.000000e-04  1100   3.095900e-03   1.698150e-04   3.567400e-03
   192   1 1.000000e-04  1100   3.128500e-03   1.516930e-04   7.676180e-03
   193   1 1.000000e-04  1100   3.606130e-03   1.427260e-04   7.729510e-03
   194   1 1.000000e-04  1100   3.775980e-03   1.321830e-04   7.721260e-03
   195   1 1.000000e-04  1100   3.822890e-03   1.533970e-04   3.404620e-03
   196   1 1.000000e-04  1100   3.888930e-03   1.216600e-04   1.453110e-03
   197   1 1.000000e-04  1100   3.949750e-03   1.222810e-04   7.060210e-03
   198   1 1.000000e-04  1100   4.093510e-03   1.343520e-04   9.565720e-03
   199   1 1.000000e-04  1100   4.192370e-03   1.290500e-04   2.394090e-03
   200   1 1.000000e-04  1100   4.254300e-03   1.534290e-04   6.700510e-04
   201   1 1.000000e-04  1100   4.358990e-03   1.239780e-04   9.818340e-03
   202   1 1.000000e-04  1100   4.413470e-03   1.656320e-04   6.010270e-03
   203   1 1.000000e-04  1100   4.627230e-03   1.689030e-04   2.126010e-03
   204   1 1.000000e-04  1100   4.589190e-03   1.212910e-04   2.889560e-03
   205   1 1.000000e-04  1100   4.595100e-03   1.252140e-04   4.583950e-03
   206   1 1.000000e-04  1100   4.806340e-03   1.557320e-04   8.993510e-03
   207   1 1.000000e-04  1100   4.862280e-03   1.227730e-04   1.272450e-03
   208   1 1.000000e-04  1100   4.853960e-03   1.532760e-04   3.384710e-03
   209   1 1.000000e-04  1100   5.005940e-03   1.596600e-04   7.033890e-03
   210   1 1.000000e-04  1100   5.254110e-03   1.790080e-04   5.888770e-04
   211   1 1.000000e-04  1100   5.288090e-03   1.509260e-04   1.215140e-03
   212   1 1.000000e-04  1100   5.395670e-03   1.369290e-04   6.140700e-04
   213   1 1.000000e-04  1100   5.500880e-03   1.270260e-04   6.214330e-03
   214   1 1.000000e-04  1100   5.615410e-03   1.446440e-04   8.892660e-03
   215   1 1.000000e-04  1100   5.959800e-03   1.432710e-04   3.286220e-03
   216   1 1.000000e-04  1100   6.313600e-03   1.564340e-04   9.834640e-03
   217   1 1.000000e-04  1100   6.369920e-03   1.240530e-04   1.757850e-03
   218   1 1.000000e-04  1100   6.595990e-03   1.228570e-04   3.897230e-03
   219   1 1.000000e-04  1100   6.868640e-03   1.340750e-04   4.527090e-03
   220   1 1.000000e-04  1100   7.203570e-03   1.439100e-04   1.012650e-03
   221   1 1.000000e-04  1100   7.250460e-03   1.477910e-04   6.346140e-04
   222   1 1.000000e-04  1100   7.409510e-03   1.555250e-04   7.034490e-03
   223   1 1.000000e-04  1100   7.362020e-03   1.523610e-04   8.310000e-03
   224   1 1.000000e-04  1100   7.620350e-03   1.663130e-04   5.618460e-03
   225   1 1.000000e-04  1100   7.834360e-03   1.623420e-04   2.928610e-03
   226   1 1.000000e-04  1100   8.093130e-03   1.537850e-04   2.833170e-03
   227   1 1.000000e-04  1100   8.097850e-03   1.456940e-04   7.963250e-03
   228   1 1.000000e-04  1100   8.180550e-03   1.485060e-04   9.068800e-03
   229   1 1.000000e-04  1100   8.242540e-03   1.750920e-04   3.013280e-04
   230   1 1.000000e-04  1100   8.258570e-03   1.447760e-04   2.744900e-03
   231   1 1.000000e-04  1100   8.335640e-03   1.296030e-04   3.066680e-03
   232   1 1.000000e-04  1100   8.608590e-03   1.701860e-04   9.187120e-03
   233   1 1.000000e-04  1100   8.661010e-03   1.744050e-04   6.776590e-03
   234   1 1.000000e-04  1100   8.819450e-03   1.321090e-04   6.360200e-03
   235   1 1.000000e-04  1100   8.984820e-03   1.379080e-04   6.791960e-03
   236   1 1.000000e-04  1100   9.448530e-03   1.593650e-04   4.589420e-03
   237   1 1.000000e-04  1100   9.692800e-03   1.232100e-04   7.834060e-04
   238   1 1.000000e-04  1100   9.776500e-03   1.524390e-04   5.988870e-03
   239   1 1.000000e-04  1100   9.823060e-03   1.387380e-04   8.528560e-03
   240   1 1.000000e-04  1100   4.315200e-04   2.286580e-04   1.615950e-04
   241   1 1.000000e-04  1100   5.125410e-04   2.227290e-04   1.130740e-03
   242   1 1.000000e-04  1100   6.270040e-04   2.000630e-04   7.526200e-04
   243   1 1.000000e-04  1100   9.240360e-04   2.151080e-04   1.935130e-03
   244   1 1.000000e-04  1100   1.134250e-03   2.141080e-04   5.376570e-03
   245   1 1.000000e-04  1100   1.158270e-03   2.160560e-04   2.189480e-03
   246   1 1.000000e-04  1100   1.448870e-03   2.353330e-04   7.042680e-03
   247   1 1.000000e-04  1100   2.024040e-03   2.332470e-04   9.346570e-03
   248   1 1.000000e-04  1100   2.062790e-03   1.924840e-04   4.981010e-03
   249   1 1.000000e-04  1100   2.305150e-03   2.329810e-04   3.363490e-03
   250   1 1.000000e-04  1100   2.388840e-03   2.328710e-04   4.613000e-03
   251   1 1.000000e-04  1100   2.438380e-03   2.229860e-04   1.075600e-03
   252   1 1.000000e-04  1100   2.636320e-03   1.828600e-04   1.399280e-03
   253   1 1.000000e-04  1100   2.789110e-03   1.825600e-04   6.543810e-03
   254   1 1.000000e-04  1100   2.957520e-03   2.085650e-04   2.821210e-03
   255   1 1.000000e-04  1100   3.009740e-03   1.897270e-04   7.166830e-03
   256   1 1.000000e-04  1100   2.990680e-03   2.280790e-04   8.879620e-03
   257   1 1.000000e-04  1100   2.984570e-03   2.175480e-04   9.710560e-03
   258   1 1.000000e-04  1100   3.126970e-03   2.389550e-04   4.373220e-04
   259   1 1.000000e-04  1100   3.306170e-03   2.371270e-04   6.062320e-03
   260   1 1.000000e-04  1100   3.685960e-03   2.064550e-04   8.346650e-03
   261   1 1.000000e-04  1100   4.002970e-03   2.306360e-04   5.219010e-03
   262   1 1.000000e-04  1100   4.260560e-03   2.044060e-04   2.681200e-03
   263   1 1.000000e-04  1100   4.228300e-03   1.929260e-04   3.571310e-03
   264   1 1.000000e-04  1100   4.550140e-03   2.005370e-04   9.660030e-03
   265   1 1.000000e-04  1100   4.745470e-03   2.065130e-04   2.565430e-03
   266   1 1.000000e-04  1100   4.860080e-03   2.188870e-04   5.586930e-03
   267   1 1.000000e-04  1100   4.896610e-03   2.123710e-04   1.202230e-03
   268   1 1.000000e-04  1100   5.385220e-03   1.977510e-04   7.782700e-03
   269   1 1.000000e-04  1100   5.470930e-03   2.338600e-04   4.147600e-03
   270   1 1.000000e-04  1100   5.491210e-03   2.284980e-04   2.451020e-03
   271   1 1.000000e-04  1100   5.584370e-03   2.172710e-04   3.339920e-03
   272   1 1.000000e-04  1100   5.945060e-03   1.925390e-04   8.861230e-03
   273   1 1.000000e-04  1100   6.272450e-03   2.056840e-04   6.686960e-03
   274   1 1.000000e-04  1100   6.420310e-03   2.028410e-04   4.988420e-03
   275   1 1.000000e-04  1100   6.616810e-03   2.015560e-04   1.795060e-03
   276   1 1.000000e-04  1100   6.843080e-03   2.087130e-04   8.956760e-04
   277   1 1.000000e-04  1100   6.985450e-03   2.315870e-04   1.197630e-03
   278   1 1.000000e-04  1100   7.066990e-03   2.016240e-04   4.484700e-03
   279   1 1.000000e-04  1100   7.248770e-03   2.385260e-04   2.979890e-03
   280   1 1.000000e-04  1100   7.337610e-03   2.063710e-04   2.772550e-03
   281   1 1.000000e-04  1100   7.352050e-03   1.804980e-04   2.011680e-04
   282   1 1.000000e-04  1100   7.586000e-03   2.239730e-04   1.513430e-03
   283   1 1.000000e-04  1100   8.076220e-03   2.294200e-04   6.525830e-03
   284   1 1.000000e-04  1100   8.140160e-03   2.105030e-04   2.405090e-03
   285   1 1.000000e-04  1100   8.200400e-03   2.222250e-04   4.625410e-03
   286   1 1.000000e-04  1100   8.216080e-03   2.265930e-04   5.709400e-03
   287   1 1.000000e-04  1100   8.232120e-03   1.995500e-04   9.714080e-03
   288   1 1.000000e-04  1100   8.279320e-03   2.170290e-04   8.802330e-03
   289   1 1.000000e-04  1100   8.509280e-03   2.020680e-04   2.235910e-03
   290   1 1.000000e-04  1100   8.725050e-03   2.071500e-04   6.461460e-03
   291   1 1.000000e-04  1100   8.980720e-03   2.087540e-04   5.320640e-03
   292   1 1.000000e-04  1100   9.244970e-03   2.383470e-04   2.389110e-04
   293   1 1.000000e-04  1100   9.619260e-03   1.914420e-04   3.440260e-03
   294   1 1.000000e-04  1100   9.598500e-03   1.837700e-04   4.008530e-03
   295   1 1.000000e-04  1100   9.611250e-03   2.239280e-04   9.228750e-03
   296   1 1.000000e-04  1100   2.839510e-05   2.796080e-04   1.923310e-03
   297   1 1.000000e-04  1100   2.115010e-04   2.922200e-04   5.221430e-03
   298   1 1.000000e-04  1100   5.495650e-04   2.836970e-04   4.153180e-03
   299   1 1.000000e-04  1100   7.974790e-04   2.983800e-04   2.310530e-03
   300   1 1.000000e-04  1100   9.474030e-04   2.675270e-04   6.896840e-04
   301   1 1.000000e-04  1100   9.795740e-04   2.986820e-04   4.224620e-03
   302   1 1.000000e-04  1100   1.378050e-03   2.773020e-04   9.354780e-03
   303   1 1.000000e-04  1100   1.465350e-03   2.488820e-04   5.170160e-03
   304   1 1.000000e-04  1100   1.452050e-03   2.685350e-04   6.897120e-03
   305   1 1.000000e-04  1100   1.782490e-03   2.582780e-04   5.539840e-03
   306   1 1.000000e-04  1100   1.810710e-03   2.939700e-04   7.673170e-03
   307   1 1.000000e-04  1100   2.159500e-03   2.616720e-04   6.749270e-03
   308   1 1.000000e-04  1100   2.395870e-03   2.617940e-04   5.785590e-04
   309   1 1.000000e-04  1100   2.409050e-03   2.540380e-04   6.120460e-03
   310   1 1.000000e-04  1100   2.396020e-03   2.949030e-04   6.215540e-03
   311   1 1.000000e-04  1100   2.353370e-03   2.797760e-04   7.505840e-03
   312   1 1.000000e-04  1100   2.628660e-03   2.902020e-04   2.819260e-03
   313   1 1.000000e-04  1100   2.820740e-03   2.597710e-04   9.956700e-03
   314   1 1.000000e-04  1100   2.992950e-03   2.506710e-04   1.616080e-03
   315   1 1.000000e-04  1100   3.011860e-03   2.703350e-04   2.955010e-03
   316   1 1.000000e-04  1100   3.248630e-03   2.431920e-04   5.817340e-03
   317   1 1.000000e-04  1100   3.443070e-03   2.599630e-04   2.398240e-04
   318   1 1.000000e-04  1100   3.500530e-03   2.952240e-04   7.424330e-03
   319   1 1.000000e-04  1100   3.647850e-03   2.890680e-04   4.432060e-03
   320   1 1.000000e-04  1100   4.047250e-03   2.534380e-04   4.673270e-04
   321   1 1.000000e-04  1100   4.089940e-03   2.895850e-04   1.231270e-03
   322   1 1.000000e-04  1100   4.052070e-03   2.827140e-04   4.128080e-03
   323   1 1.000000e-04  1100   4.071850e-03   2.841120e-04   8.233400e-03
   324   1 1.000000e-04  1100   4.101320e-03   2.999570e-04   4.547320e-03
   325   1 1.000000e-04  1100   4.265750e-03   2.646520e-04   4.010690e-03
   326   1 1.000000e-04  1100   4.480580e-03   2.454730e-04   1.210160e-04
   327   1 1.000000e-04  1100   4.507310e-03   2.961890e-04   4.535770e-03
   328   1 1.000000e-04  1100   4.546870e-03   2.753900e-04   3.123570e-03
   329   1 1.000000e-04  1100   4.710960e-03   2.546240e-04   7.618410e-03
   330   1 1.000000e-04  1100   4.961730e-03   2.539520e-04   1.549620e-03
   331   1 1.000000e-04  1100   5.046370e-03   2.519270e-04   8.311590e-03
   332   1 1.000000e-04  1100   5.234970e-03   2.405160e-04   1.001860e-03
   333   1 1.000000e-04  1100   5.358800e-03   2.959240e-04   9.922720e-03
   334   1 1.000000e-04  1100   5.538720e-03   2.670120e-04   1.926290e-03
   335   1 1.000000e-04  1100   5.788420e-03   2.520920e-04   2.819100e-03
   336   1 1.000000e-04  1100   5.865260e-03   2.479240e-04   7.374030e-03
   337   1 1.000000e-04  1100   5.887890e-03   2.417570e-04   8.001410e-03
   338   1 1.000000e-04  1100   6.084330e-03   2.622210e-04   9.081120e-03
   339   1 1.000000e-04  1100   6.351830e-03   2.784850e-04   1.816450e-03
   340   1 1.000000e-04  1100   6.492970e-03   2.893480e-04   8.257920e-03
   341   1 1.000000e-04  1100   6.736490e-03   2.776080e-04   5.507390e-03
   342   1 1.000000e-04  1100   6.821970e-03   2.699020e-04   8.762930e-03
   343   1 1.000000e-04  1100   6.901680e-03   2.529310e-04   5.845850e-03
   344   1 1.000000e-04  1100   7.336070e-03   2.438810e-04   5.193350e-03
   345   1 1.000000e-04  1100   7.713080e-03   2.662310e-04   1.485450e-03
   346   1 1.000000e-04  1100   7.851400e-03   2.953700e-04   2.043600e-03
   347   1 1.000000e-04  1100   7.868900e-03   2.861530e-04   2.155660e-03
   348   1 1.000000e-04  1100   8.152390e-03   2.761760e-04   2.950360e-03
   349   1 1.000000e-04  1100   8.241400e-03   2.898530e-04   3.325270e-03
   350   1 1.000000e-04  1100   8.597720e-03   2.691870e-04   6.403500e-03
   351   1 1.000000e-04  1100   8.638690e-03   2.784230e-04   7.949700e-03
   352   1 1.000000e-04  1100   8.713380e-03   2.614350e-04   9.579210e-03
   353   1 1.000000e-04  1100   8.766040e-03   2.565260e-04   2.564070e-03
   354   1 1.000000e-04  1100   8.759170e-03   2.645300e-04   5.532510e-03
   355   1 1.000000e-04  1100   8.919120e-03   2.873010e-04   2.232130e-04
   356   1 1.000000e-04  1100   8.957580e-03   2.411300e-04   3.395150e-03
   357   1 1.000000e-04  1100   9.242160e-03   2.636690e-04   7.516610e-03
   358   1 1.000000e-04  1100   9.545710e-03   2.813800e-04   1.938770e-03
   359   1 1.000000e-04  1100   9.796030e-03   2.889480e-04   6.549610e-03
   360   1 1.000000e-04  1100   9.932060e-03   2.547180e-04   4.153430e-03
   361   1 1.000000e-04  1100   9.918590e-03   2.965890e-04   4.327170e-03
   362   1 1.000000e-04  1100   1.400150e-05   3.315450e-04   7.193340e-03
   363   1 1.000000e-04  1100   1.937570e-04   3.170770e-04   1.220660e-03
   364   1 1.000000e-04  1100   2.648240e-04   3.050910e-04   9.647170e-03
   365   1 1.000000e-04  1100   3.835290e-04   3.543900e-04   2.693380e-03
   366   1 1.000000e-04  1100   4.586160e-04   3.119610e-04   9.944810e-03
   367   1 1.000000e-04  1100   5.095780e-04   3.011000e-04   6.676120e-03
   368   1 1.000000e-04  1100   8.059360e-04   3.252190e-04   4.773270e-03
   369   1 1.000000e-04  1100   1.046290e-03   3.252450e-04   3.299800e-03
   370   1 1.000000e-04  1100   1.081570e-03   3.559850e-04   9.629820e-03
   371   1 1.000000e-04  1100   1.361880e-03   3.351610e-04   2.687800e-03
   372   1 1.000000e-04  1100   1.736190e-03   3.468140e-04   2.011220e-03
   373   1 1.000000e-04  1100   2.227610e-03   3.414130e-04   2.594940e-03
   374   1 1.000000e-04  1100   2.412670e-03   3.364900e-04   8.355630e-03
   375   1 1.000000e-04  1100   2.517080e-03   3.313440e-04   7.951600e-03
   376   1 1.000000e-04  1100   2.579900e-03   3.441140e-04   3.386680e-04
   377   1 1.000000e-04  1100   2.591090e-03   3.437300e-04   6.149990e-03
   378   1 1.000000e-04  1100   2.701930e-03   3.531790e-04   2.548840e-03
   379   1 1.000000e-04  1100   2.821880e-03   3.333990e-04   3.088770e-03
   380   1 1.000000e-04  1100   2.884440e-03   3.573200e-04   1.883070e-03
   381   1 1.000000e-04  1100   3.034430e-03   3.288070e-04   4.864770e-03
   382   1 1.000000e-04  1100   3.213590e-03   3.533970e-04   6.690800e-04
   383   1 1.000000e-04  1100   3.209510e-03   3.311940e-04   4.506320e-03
   384   1 1.000000e-04  1100   3.228120e-03   3.387040e-04   8.946630e-03
   385   1 1.000000e-04  1100   3.399620e-03   3.032070e-04   8.516640e-03
   386   1 1.000000e-04  1100   3.524330e-03   3.372580e-04   1.937920e-03
   387   1 1.000000e-04  1100   3.663250e-03   3.511050e-04   3.732850e-04
   388   1 1.000000e-04  1100   3.936800e-03   3.185850e-04   8.617200e-03
   389   1 1.000000e-04  1100   4.439150e-03   3.193480e-04   3.491690e-03
   390   1 1.000000e-04  1100   4.417100e-03   3.443700e-04   7.644800e-03
   391   1 1.000000e-04  1100   4.416850e-03   3.309770e-04   8.077330e-03
   392   1 1.000000e-04  1100   4.430100e-03   3.276600e-04   9.137170e-03
   393   1 1.000000e-04  1100   4.751000e-03   3.172420e-04   9.239560e-03
   394   1 1.000000e-04  1100   5.115360e-03   3.346350e-04   1.465800e-03
   395   1 1.000000e-04  1100   5.068460e-03   3.470700e-04   6.709550e-03
   396   1 1.000000e-04  1100   5.134160e-03   3.464960e-04   8.585390e-03
   397   1 1.000000e-04  1100   5.184260e-03   3.489160e-04   9.944000e-04