  Granular Flow Simulation 

       5  atoms 
          5 atom types 

   0.000000e-05   5.000000e-05  xlo xhi 
   0.000000e-05   5.000000e-05  ylo yhi 
   0.000000e-05   5.000000e-05  zlo zhi 

 Atoms

     1 1 1.0839e-6 1100 2e-05 1.5e-05 2e-05 
     2 2 1.2839e-6 1100 2e-05 2e-05 3e-05 
     3 3 1.0283e-6 1100 2e-05 2.5e-05 1.5e-05 
     4 4 1.0539e-6 1100 1.5e-05 2e-05 2.5e-05 
     5 5 1.4839e-6 1100 2.5e-05 2e-05 10.6e-07 


