ITEM: TIMESTEP
0
ITEM: NUMBER OF ATOMS
5
ITEM: BOX BOUNDS ff ff ff
0 0.0001
0 0.0001
0 0.0001
ITEM: ATOMS id type diameter x y z vx vy vz fx fy fz 
5 5 1.4839e-06 2.5e-05 2e-05 1.06e-06 0 0 0 0 0 -1.8443e-14 
3 3 1.0283e-06 2e-05 2.5e-05 1.5e-05 0 0 0 0 0 -6.13729e-15 
1 1 1.0839e-06 2e-05 1.5e-05 2e-05 0 0 0 0 0 -7.18762e-15 
4 4 1.0539e-06 1.5e-05 2e-05 2.5e-05 0 0 0 0 0 -6.60717e-15 
2 2 1.2839e-06 2e-05 2e-05 3e-05 0 0 0 0 0 -1.19457e-14 
