  Granular Flow Simulation 

       5  atoms 
          5 atom types 

   0.000000   200.000000e-06  xlo xhi 
   0.000000   200.000000e-06  ylo yhi 
   0.000000   200.000000e-06  zlo zhi 

 Atoms
	
     1 1 1.0839e-6 150 100e-06 100e-06 100e-06 1.4307e-6 4.0e-2 5.0e-3 4.0e-2  1.0e-3 1.0e-4 
     2 2 1.0839e-6 150 102e-06 102e-06 100e-06 1.0839e-6 4.0e-2 5.0e-3 4.0e-2  1.0e-3 1.0e-4
     3 3 1.0839e-6 150 102e-06 98e-06 100e-06 1.0839e-6 4.0e-2 5.0e-3 4.0e-2  1.0e-3 1.0e-4 
     4 4 1.0839e-6 150 98e-06 102e-06 100e-06 1.0839e-6 4.0e-2 5.0e-3 4.0e-2  1.0e-3 1.0e-4 
     5 5 1.0839e-6 150 98e-06 98e-06 100e-06 1.0839e-6 4.0e-2 5.0e-3 4.0e-2  1.0e-3 1.0e-4
