ITEM: TIMESTEP
0
ITEM: NUMBER OF ATOMS
5
ITEM: BOX BOUNDS ff ff ff
1e-05 3e-05
1e-05 3e-05
0 4e-05
ITEM: ATOMS id type diameter x y z vx vy vz fx fy fz 
4 4 1.0539e-06 2e-05 2e-05 1.9e-05 0 0 0 0 0 -8.22e-06 
2 2 1.2839e-06 2e-05 1.9e-05 2e-05 0 0 0 0 -3.122e-05 0 
3 3 1.0283e-06 2e-05 2e-05 2e-05 0 0 0 0 2e-05 -4.3e-05 
1 1 1.0839e-06 2e-05 2.1e-05 2e-05 0 0 0 0 1.122e-05 0 
5 5 1.4839e-06 2e-05 2e-05 2.1e-05 0 0 0 0 0 5.122e-05 
ITEM: TIMESTEP
2000
ITEM: NUMBER OF ATOMS
6
ITEM: BOX BOUNDS ff ff ff
1e-05 3e-05
1e-05 3e-05
0 4e-05
ITEM: ATOMS id type diameter x y z vx vy vz fx fy fz 
4 4 1.05252e-06 2e-05 1.99999e-05 1.898e-05 0 -8.53071e-14 -9.99964e-12 0 -8.21857e-08 -9.63375e-06 
2 2 1.3122e-06 2e-05 1.898e-05 2.00002e-05 0 -9.99842e-12 1.77913e-13 0 -3.02557e-05 5.38373e-07 
3 3 1.04765e-06 2e-05 2.00085e-05 1.99819e-05 0 4.24184e-12 -9.05576e-12 0 1.71776e-05 -3.66718e-05 
1 1 1.11112e-06 2e-05 2.102e-05 2.00002e-05 0 9.99836e-12 1.80909e-13 0 1.3535e-05 2.44899e-07 
5 5 1.4839e-06 2e-05 1.99999e-05 2.102e-05 0 -8.23097e-14 9.99966e-12 0 -3.74706e-07 4.55223e-05 
6 4 9.08972e-07 1.99096e-05 2.19756e-05 2.05541e-05 0 1e-11 0 0 0 0 
ITEM: TIMESTEP
4000
ITEM: NUMBER OF ATOMS
6
ITEM: BOX BOUNDS ff ff ff
1e-05 3e-05
1e-05 3e-05
0 4e-05
ITEM: ATOMS id type diameter x y z vx vy vz fx fy fz 
4 4 1.05114e-06 2e-05 1.99997e-05 1.896e-05 0 -1.72294e-13 -9.99852e-12 0 -1.90678e-07 -1.10654e-05 
2 2 1.34112e-06 2e-05 1.896e-05 2.00007e-05 0 -9.9939e-12 3.49247e-13 0 -2.9313e-05 1.02437e-06 
3 3 1.06737e-06 2e-05 2.0017e-05 1.99638e-05 0 4.24722e-12 -9.05324e-12 0 1.42531e-05 -3.03814e-05 
1 1 1.13905e-06 2e-05 2.104e-05 2.00007e-05 0 9.99348e-12 3.60962e-13 0 1.58905e-05 5.73961e-07 
5 5 1.4839e-06 2e-05 1.99997e-05 2.104e-05 0 -1.6055e-13 9.99871e-12 0 -6.39851e-07 3.98484e-05 
6 4 9.0778e-07 1.99096e-05 2.19956e-05 2.05541e-05 0 1e-11 0 0 0 0 
ITEM: TIMESTEP
6000
ITEM: NUMBER OF ATOMS
6
ITEM: BOX BOUNDS ff ff ff
1e-05 3e-05
1e-05 3e-05
0 4e-05
ITEM: ATOMS id type diameter x y z vx vy vz fx fy fz 
4 4 1.04976e-06 2e-05 1.99992e-05 1.894e-05 0 -2.60537e-13 -9.99661e-12 0 -3.26269e-07 -1.25187e-05 
2 2 1.37069e-06 2e-05 1.894e-05 2.00016e-05 0 -9.98676e-12 5.14459e-13 0 -2.8407e-05 1.46336e-06 
3 3 1.08745e-06 2e-05 2.00254e-05 1.99457e-05 0 4.22834e-12 -9.06207e-12 0 1.12593e-05 -2.41307e-05 
1 1 1.16768e-06 2e-05 2.106e-05 2.00016e-05 0 9.9854e-12 5.40189e-13 0 1.82767e-05 9.88729e-07 
5 5 1.4839e-06 2e-05 1.99993e-05 2.106e-05 0 -2.34669e-13 9.99725e-12 0 -8.02726e-07 3.41973e-05 
6 4 9.0659e-07 1.99096e-05 2.20156e-05 2.05541e-05 0 1e-11 0 0 0 0 
ITEM: TIMESTEP
8000
ITEM: NUMBER OF ATOMS
7
ITEM: BOX BOUNDS ff ff ff
1e-05 3e-05
1e-05 3e-05
0 4e-05
ITEM: ATOMS id type diameter x y z vx vy vz fx fy fz 
4 4 1.04838e-06 2e-05 1.99986e-05 1.892e-05 -1.27885e-14 -3.93954e-13 -9.99223e-12 -1.71087e-08 -5.27041e-07 -1.33678e-05 
2 2 1.14391e-06 2.00472e-05 1.84373e-05 1.97127e-05 8.39945e-13 -8.59212e-12 -5.04678e-12 2.87666e-07 -2.94264e-06 -1.72843e-06 
3 3 1.10792e-06 2.00013e-05 2.00384e-05 1.99305e-05 6.77947e-13 6.49026e-12 -7.57739e-12 4.40186e-06 4.21408e-05 -4.91995e-05 
1 1 1.19702e-06 2e-05 2.10799e-05 2.00029e-05 -1.23833e-14 9.97594e-12 6.93127e-13 -2.68562e-08 2.16353e-05 1.50321e-06 
5 5 1.4839e-06 2.00006e-05 2.00071e-05 2.10784e-05 2.9012e-13 3.96579e-12 9.17542e-12 2.18617e-06 2.98839e-05 6.91406e-05 
6 4 9.05402e-07 1.99096e-05 2.20356e-05 2.05541e-05 0 1e-11 0 0 0 0 
7 2 1.07792e-06 1.99553e-05 1.93771e-05 2.02648e-05 -7.53463e-13 -9.94697e-12 -7.0012e-13 -6.83174e-06 -9.01903e-05 -6.34807e-06 
ITEM: TIMESTEP
10000
ITEM: NUMBER OF ATOMS
7
ITEM: BOX BOUNDS ff ff ff
1e-05 3e-05
1e-05 3e-05
0 4e-05
ITEM: ATOMS id type diameter x y z vx vy vz fx fy fz 
4 4 1.04701e-06 1.99999e-05 1.99976e-05 1.89e-05 -2.73433e-14 -5.28389e-13 -9.98599e-12 -3.89233e-08 -7.52163e-07 -1.42151e-05 
2 2 1.16913e-06 2.00489e-05 1.84202e-05 1.97026e-05 8.68109e-13 -8.54654e-12 -5.11889e-12 6.77502e-07 -6.67002e-06 -3.99496e-06 
3 3 1.12877e-06 2.00027e-05 2.00514e-05 1.99153e-05 7.74188e-13 6.4638e-12 -7.59078e-12 4.38126e-06 3.65798e-05 -4.29575e-05 
1 1 1.2271e-06 1.99999e-05 2.10999e-05 2.00044e-05 -2.64029e-14 9.96408e-12 8.4642e-13 -6.6353e-08 2.50407e-05 2.12714e-06 
5 5 1.4839e-06 2.00012e-05 2.00152e-05 2.10967e-05 3.01884e-13 4.14158e-12 9.09704e-12 2.02363e-06 2.77624e-05 6.09805e-05 
6 4 9.04215e-07 1.99096e-05 2.20556e-05 2.05541e-05 0 1e-11 0 0 0 0 
7 2 1.10168e-06 1.99537e-05 1.93572e-05 2.02638e-05 -8.47972e-13 -9.96119e-12 -2.35786e-13 -6.97712e-06 -8.19607e-05 -1.94004e-06 
ITEM: TIMESTEP
12000
ITEM: NUMBER OF ATOMS
8
ITEM: BOX BOUNDS ff ff ff
1e-05 3e-05
1e-05 3e-05
0 4e-05
ITEM: ATOMS id type diameter x y z vx vy vz fx fy fz 
<<<<<<< HEAD
4 4 1.04564e-06 1.99999e-05 1.99965e-05 1.88801e-05 -4.42738e-14 -6.63021e-13 -9.9779e-12 -6.68812e-08 -1.00158e-06 -1.50729e-05 
2 2 1.1949e-06 2.00507e-05 1.84031e-05 1.96923e-05 8.98086e-13 -8.49532e-12 -5.19837e-12 1.09242e-06 -1.03336e-05 -6.3232e-06 
3 3 1.15001e-06 2.00044e-05 2.00642e-05 1.99001e-05 9.0895e-13 6.38877e-12 -7.6392e-12 4.40038e-06 3.09291e-05 -3.69826e-05 
7 2 1.12596e-06 1.99519e-05 1.93373e-05 2.02639e-05 -9.67673e-13 -9.94753e-12 3.31914e-13 -7.17913e-06 -7.38005e-05 2.46246e-06 
1 1 1.25791e-06 1.99999e-05 2.11198e-05 2.00062e-05 -4.26232e-14 9.94974e-12 1.00044e-12 -1.21969e-07 2.84719e-05 2.86282e-06 
=======
4 4 1.04564e-06 1.99999e-05 1.99965e-05 1.88801e-05 -4.42762e-14 -6.62977e-13 -9.9779e-12 -6.68872e-08 -1.00155e-06 -1.50734e-05 
2 2 1.1949e-06 2.00507e-05 1.84031e-05 1.96923e-05 8.98086e-13 -8.49532e-12 -5.19837e-12 1.09241e-06 -1.03335e-05 -6.32319e-06 
3 3 1.15001e-06 2.00044e-05 2.00642e-05 1.99001e-05 9.08998e-13 6.38852e-12 -7.6394e-12 4.40046e-06 3.09268e-05 -3.69823e-05 
7 2 1.12596e-06 1.99519e-05 1.93373e-05 2.02639e-05 -9.67677e-13 -9.94753e-12 3.31981e-13 -7.17919e-06 -7.38007e-05 2.46297e-06 
1 1 1.25794e-06 1.99999e-05 2.11198e-05 2.00062e-05 -4.26252e-14 9.94974e-12 1.00046e-12 -1.21985e-07 2.84743e-05 2.86312e-06 
>>>>>>> nutrient-diffusion
6 4 9.0303e-07 1.99096e-05 2.20756e-05 2.05541e-05 0 1e-11 0 0 0 0 
5 5 1.4839e-06 2.00018e-05 2.00237e-05 2.11148e-05 3.17857e-13 4.36219e-12 8.99279e-12 1.87519e-06 2.57347e-05 5.30528e-05 
8 4 9.79582e-07 1.94888e-05 2.19417e-05 1.92915e-05 -3.41926e-14 9.95722e-12 9.23319e-13 0 0 0 
ITEM: TIMESTEP
14000
ITEM: NUMBER OF ATOMS
8
ITEM: BOX BOUNDS ff ff ff
1e-05 3e-05
1e-05 3e-05
0 4e-05
ITEM: ATOMS id type diameter x y z vx vy vz fx fy fz 
<<<<<<< HEAD
4 4 1.04427e-06 1.99998e-05 1.9995e-05 1.88601e-05 -6.45596e-14 -7.96614e-13 -9.96801e-12 -1.03369e-07 -1.2755e-06 -1.59603e-05 
2 2 1.22124e-06 2.00525e-05 1.83862e-05 1.96818e-05 9.30168e-13 -8.43748e-12 -5.28618e-12 1.5312e-06 -1.38894e-05 -8.70187e-06 
3 3 1.17165e-06 2.00064e-05 2.00769e-05 1.98847e-05 1.10634e-12 6.24042e-12 -7.73519e-12 4.47149e-06 2.5222e-05 -3.12634e-05 
7 2 1.15078e-06 1.99498e-05 1.93174e-05 2.02652e-05 -1.11833e-12 -9.88415e-12 1.02616e-12 -7.44357e-06 -6.57886e-05 6.83011e-06 
1 1 1.28954e-06 1.99998e-05 2.11397e-05 2.00084e-05 -6.19416e-14 9.9328e-12 1.15568e-12 -1.9898e-07 3.19078e-05 3.71248e-06 
=======
4 4 1.04427e-06 1.99998e-05 1.9995e-05 1.88601e-05 -6.4563e-14 -7.96568e-13 -9.96801e-12 -1.03379e-07 -1.27547e-06 -1.59608e-05 
2 2 1.22124e-06 2.00525e-05 1.83862e-05 1.96818e-05 9.30168e-13 -8.43748e-12 -5.28618e-12 1.5312e-06 -1.38894e-05 -8.70184e-06 
3 3 1.17165e-06 2.00064e-05 2.00769e-05 1.98847e-05 1.10638e-12 6.2404e-12 -7.7352e-12 4.47158e-06 2.52214e-05 -3.12628e-05 
7 2 1.15078e-06 1.99498e-05 1.93174e-05 2.02652e-05 -1.11833e-12 -9.88414e-12 1.02623e-12 -7.44363e-06 -6.57888e-05 6.83059e-06 
1 1 1.28956e-06 1.99998e-05 2.11397e-05 2.00084e-05 -6.19444e-14 9.9328e-12 1.15571e-12 -1.98992e-07 3.19085e-05 3.71263e-06 
>>>>>>> nutrient-diffusion
6 4 9.01846e-07 1.99096e-05 2.20956e-05 2.05541e-05 0 1e-11 0 0 0 0 
5 5 1.4839e-06 2.00024e-05 2.00326e-05 2.11326e-05 3.39909e-13 4.64537e-12 8.84901e-12 1.74323e-06 2.38238e-05 4.53823e-05 
8 4 9.78298e-07 1.94887e-05 2.19617e-05 1.92934e-05 -3.41926e-14 9.95722e-12 9.23319e-13 0 0 0 
ITEM: TIMESTEP
16000
ITEM: NUMBER OF ATOMS
8
ITEM: BOX BOUNDS ff ff ff
1e-05 3e-05
1e-05 3e-05
0 4e-05
ITEM: ATOMS id type diameter x y z vx vy vz fx fy fz 
<<<<<<< HEAD
4 4 1.0429e-06 1.99996e-05 1.99933e-05 1.88402e-05 -8.98383e-14 -9.27504e-13 -9.95649e-12 -1.52511e-07 -1.57455e-06 -1.69023e-05 
2 2 1.24816e-06 2.00544e-05 1.83694e-05 1.96711e-05 9.64641e-13 -8.37202e-12 -5.38319e-12 1.99099e-06 -1.72796e-05 -1.11107e-05 
3 3 1.1937e-06 2.00089e-05 2.00891e-05 1.98691e-05 1.41227e-12 5.97632e-12 -7.89234e-12 4.61427e-06 1.95263e-05 -2.57865e-05 
7 2 1.17615e-06 1.99474e-05 1.92978e-05 2.02681e-05 -1.30516e-12 -9.73725e-12 1.86617e-12 -7.77882e-06 -5.80345e-05 1.11225e-05 
1 1 1.32197e-06 1.99996e-05 2.11595e-05 2.00108e-05 -5.69337e-14 9.93154e-12 1.16675e-12 -1.95785e-07 3.41529e-05 4.01224e-06 
6 4 9.00664e-07 1.99088e-05 2.21144e-05 2.05588e-05 -8.22535e-13 8.64365e-12 4.96092e-12 -1.09469e-07 1.15036e-06 6.60238e-07 
5 5 1.4839e-06 2.00031e-05 2.00423e-05 2.11501e-05 3.70984e-13 5.01652e-12 8.64274e-12 1.63132e-06 2.20591e-05 3.80046e-05 
8 4 9.76969e-07 1.94887e-05 2.19815e-05 1.92952e-05 -3.4191e-14 9.95723e-12 9.23298e-13 0 0 0 
ITEM: TIMESTEP
18000
ITEM: NUMBER OF ATOMS
8
ITEM: BOX BOUNDS ff ff ff
1e-05 3e-05
1e-05 3e-05
0 4e-05
ITEM: ATOMS id type diameter x y z vx vy vz fx fy fz 
4 4 1.04153e-06 1.99994e-05 1.99913e-05 1.88203e-05 -1.23068e-13 -1.05294e-12 -9.94365e-12 -2.21944e-07 -1.8989e-06 -1.79326e-05 
2 2 1.27567e-06 2.00564e-05 1.83527e-05 1.96602e-05 1.00173e-12 -8.29806e-12 -5.48987e-12 2.46645e-06 -2.04314e-05 -1.35171e-05 
3 3 1.21617e-06 2.00122e-05 2.01007e-05 1.98531e-05 1.92201e-12 5.51527e-12 -8.11712e-12 4.86147e-06 1.39501e-05 -2.05312e-05 
7 2 1.20207e-06 1.99446e-05 1.92786e-05 2.02728e-05 -1.5303e-12 -9.46112e-12 2.85401e-12 -8.1992e-06 -5.06916e-05 1.52914e-05 
1 1 1.35523e-06 1.99996e-05 2.11794e-05 2.0013e-05 -2.89614e-14 9.94699e-12 1.02785e-12 -1.0188e-07 3.49914e-05 3.61577e-06 
6 4 8.99483e-07 1.99071e-05 2.21316e-05 2.05688e-05 -8.35458e-13 8.6062e-12 5.02349e-12 -3.49883e-07 3.6042e-06 2.10379e-06 
5 5 1.4839e-06 2.00039e-05 2.00528e-05 2.11671e-05 4.15774e-13 5.51041e-12 8.33442e-12 1.54498e-06 2.04762e-05 3.09699e-05 
8 4 9.75688e-07 1.94886e-05 2.20015e-05 1.92971e-05 -3.4191e-14 9.95723e-12 9.23298e-13 0 0 0 
ITEM: TIMESTEP
20000
ITEM: NUMBER OF ATOMS
9
ITEM: BOX BOUNDS ff ff ff
1e-05 3e-05
1e-05 3e-05
0 4e-05
ITEM: ATOMS id type diameter x y z vx vy vz fx fy fz 
4 4 1.04017e-06 1.99991e-05 1.99891e-05 1.88004e-05 -1.21687e-13 -1.14744e-12 -9.93321e-12 -2.37159e-07 -2.23628e-06 -1.93591e-05 
2 2 1.30379e-06 2.00584e-05 1.83362e-05 1.96491e-05 1.04126e-12 -8.21538e-12 -5.60565e-12 2.9497e-06 -2.32727e-05 -1.58798e-05 
3 3 1.23905e-06 2.00118e-05 2.01087e-05 1.98356e-05 -2.60932e-12 2.68529e-12 -9.27258e-12 -1.18274e-05 1.21717e-05 -4.20302e-05 
7 2 1.22857e-06 1.99413e-05 1.926e-05 2.02795e-05 -1.7218e-12 -9.06736e-12 3.84948e-12 -8.47408e-06 -4.46262e-05 1.89457e-05 
1 1 1.09638e-06 2.02809e-05 2.07521e-05 2.04027e-05 3.79438e-12 9.23505e-12 5.62604e-13 2.67432e-05 6.50898e-05 3.9653e-06 
6 4 8.98304e-07 1.99054e-05 2.21488e-05 2.05789e-05 -8.42102e-13 8.58664e-12 5.05573e-12 0 0 0 
5 5 1.4839e-06 2.00028e-05 2.00572e-05 2.11851e-05 -1.64699e-12 -1.28212e-12 9.77975e-12 -9.15431e-06 -7.12632e-06 5.43581e-05 
8 4 9.74409e-07 1.94843e-05 2.20182e-05 1.92921e-05 -4.23936e-12 6.82364e-12 -5.95532e-12 -4.05956e-05 6.53424e-05 -5.70275e-05 
9 1 1.10897e-06 1.9723e-05 2.16341e-05 1.96273e-05 4.23936e-12 -6.82364e-12 5.95532e-12 4.05956e-05 -6.53424e-05 5.70275e-05 
ITEM: TIMESTEP
22000
ITEM: NUMBER OF ATOMS
9
ITEM: BOX BOUNDS ff ff ff
1e-05 3e-05
1e-05 3e-05
0 4e-05
ITEM: ATOMS id type diameter x y z vx vy vz fx fy fz 
4 4 1.0388e-06 1.99989e-05 1.99867e-05 1.87806e-05 -6.8749e-14 -1.21942e-12 -9.92513e-12 -1.45879e-07 -2.58751e-06 -2.10603e-05 
8 4 9.73132e-07 1.94759e-05 2.20319e-05 1.92801e-05 -4.23936e-12 6.82364e-12 -5.95532e-12 -3.83333e-05 6.17009e-05 -5.38493e-05 
2 2 1.33253e-06 2.00605e-05 1.83198e-05 1.96378e-05 1.08148e-12 -8.12538e-12 -5.72788e-12 3.43384e-06 -2.57992e-05 -1.81868e-05 
3 3 1.26237e-06 2.00061e-05 2.01141e-05 1.98172e-05 -3.01437e-12 2.67176e-12 -9.15288e-12 -1.25869e-05 1.11563e-05 -3.82192e-05 
9 1 1.13689e-06 1.97315e-05 2.16205e-05 1.96392e-05 4.23936e-12 -6.82364e-12 5.95532e-12 3.83333e-05 -6.17009e-05 5.38493e-05 
7 2 1.25565e-06 1.99377e-05 1.92423e-05 2.02881e-05 -1.84317e-12 -8.61005e-12 4.74022e-12 -8.53714e-06 -3.98798e-05 2.19556e-05 
1 1 1.12398e-06 2.02886e-05 2.07706e-05 2.04042e-05 3.85445e-12 9.17883e-12 9.44641e-13 2.63675e-05 6.27904e-05 6.46209e-06 
6 4 8.97126e-07 1.99038e-05 2.2166e-05 2.0589e-05 -8.42102e-13 8.58664e-12 5.05573e-12 0 0 0 
5 5 1.4839e-06 1.99994e-05 2.00547e-05 2.12047e-05 -1.7026e-12 -1.13358e-12 9.78857e-12 -8.53137e-06 -5.68015e-06 4.90486e-05 
ITEM: TIMESTEP
24000
ITEM: NUMBER OF ATOMS
9
ITEM: BOX BOUNDS ff ff ff
1e-05 3e-05
1e-05 3e-05
0 4e-05
ITEM: ATOMS id type diameter x y z vx vy vz fx fy fz 
4 4 1.03744e-06 1.99989e-05 1.99842e-05 1.87607e-05 -8.97165e-15 -1.29046e-12 -9.91638e-12 -2.05905e-08 -2.96168e-06 -2.27587e-05 
8 4 9.71856e-07 1.94674e-05 2.20455e-05 1.92682e-05 -4.23936e-12 6.82364e-12 -5.95532e-12 -3.6101e-05 5.81079e-05 -5.07136e-05 
2 2 1.3619e-06 2.00627e-05 1.83037e-05 1.96262e-05 1.12155e-12 -8.02932e-12 -5.85423e-12 3.91138e-06 -2.8002e-05 -2.04164e-05 
3 3 1.28613e-06 1.99998e-05 2.01193e-05 1.9799e-05 -3.30822e-12 2.56966e-12 -9.08034e-12 -1.33491e-05 1.03689e-05 -3.66405e-05 
9 1 1.16551e-06 1.97399e-05 2.16068e-05 1.96511e-05 4.23936e-12 -6.82364e-12 5.95532e-12 3.6101e-05 -5.81079e-05 5.07136e-05 
7 2 1.28333e-06 1.99339e-05 1.92256e-05 2.02984e-05 -1.94846e-12 -8.07635e-12 5.56561e-12 -8.63851e-06 -3.58065e-05 2.46751e-05 
1 1 1.15227e-06 2.02963e-05 2.07888e-05 2.04064e-05 3.91374e-12 9.10785e-12 1.31522e-12 2.6038e-05 6.05943e-05 8.75014e-06 
6 4 8.9595e-07 1.99021e-05 2.21831e-05 2.05991e-05 -8.42102e-13 8.58664e-12 5.05573e-12 0 0 0 
5 5 1.4839e-06 1.9996e-05 2.00527e-05 2.12243e-05 -1.68062e-12 -8.87397e-13 9.81774e-12 -7.94118e-06 -4.19309e-06 4.63904e-05 
ITEM: TIMESTEP
26000
ITEM: NUMBER OF ATOMS
10
ITEM: BOX BOUNDS ff ff ff
1e-05 3e-05
1e-05 3e-05
0 4e-05
ITEM: ATOMS id type diameter x y z vx vy vz fx fy fz 
4 4 1.03608e-06 1.99989e-05 1.99816e-05 1.87409e-05 5.72334e-14 -1.36063e-12 -9.90684e-12 1.4125e-07 -3.358e-06 -2.44497e-05 
8 4 9.70582e-07 1.94589e-05 2.20592e-05 1.92563e-05 -4.23936e-12 6.82364e-12 -5.95532e-12 -3.38997e-05 5.45646e-05 -4.76212e-05 
2 2 1.14704e-06 2.00163e-05 1.88576e-05 1.95653e-05 1.02886e-12 -4.24163e-12 -8.99722e-12 8.13685e-06 -3.35452e-05 -7.11553e-05 
3 3 1.31033e-06 1.99929e-05 2.01244e-05 1.97809e-05 -3.57462e-12 2.52429e-12 -8.99166e-12 -1.41232e-05 9.9734e-06 -3.55258e-05 
9 1 1.19485e-06 1.97484e-05 2.15932e-05 1.9663e-05 4.23936e-12 -6.82364e-12 5.95532e-12 3.38997e-05 -5.45646e-05 4.76212e-05 
7 2 1.31162e-06 1.99304e-05 1.92142e-05 2.03134e-05 -1.54227e-12 -3.5799e-12 9.209e-12 -1.26153e-05 -2.92824e-05 7.53266e-05 
1 1 1.18129e-06 2.03042e-05 2.0807e-05 2.04094e-05 3.97224e-12 9.02445e-12 1.66753e-12 2.57635e-05 5.85315e-05 1.08154e-05 
6 4 8.94776e-07 1.99004e-05 2.22003e-05 2.06092e-05 -8.42102e-13 8.58664e-12 5.05573e-12 0 0 0 
5 5 1.4839e-06 1.99927e-05 2.00513e-05 2.1244e-05 -1.60848e-12 -4.3002e-13 9.86042e-12 -7.33374e-06 -1.96065e-06 4.49579e-05 
10 2 1.05898e-06 2.01097e-05 1.77643e-05 1.96592e-05 8.47981e-13 -9.9274e-12 8.52991e-13 3.06338e-08 -3.58633e-07 3.08148e-08 
ITEM: TIMESTEP
28000
ITEM: NUMBER OF ATOMS
10
ITEM: BOX BOUNDS ff ff ff
1e-05 3e-05
1e-05 3e-05
0 4e-05
ITEM: ATOMS id type diameter x y z vx vy vz fx fy fz 
4 4 1.03472e-06 1.99991e-05 1.99788e-05 1.87211e-05 1.29044e-13 -1.43111e-12 -9.89623e-12 3.40637e-07 -3.77767e-06 -2.6123e-05 
8 4 9.6931e-07 1.94504e-05 2.20728e-05 1.92444e-05 -4.23918e-12 6.82384e-12 -5.95521e-12 -3.17287e-05 5.1074e-05 -4.45727e-05 
2 2 1.17233e-06 2.00184e-05 1.88495e-05 1.95471e-05 1.03347e-12 -3.83886e-12 -9.17579e-12 7.96916e-06 -2.96017e-05 -7.07549e-05 
3 3 1.33499e-06 1.99855e-05 2.01294e-05 1.9763e-05 -3.82275e-12 2.52588e-12 -8.88856e-12 -1.49419e-05 9.87286e-06 -3.47426e-05 
9 1 1.22495e-06 1.97569e-05 2.15795e-05 1.96749e-05 4.2087e-12 -6.85806e-12 5.93749e-12 2.94117e-05 -4.79262e-05 4.1493e-05 
7 2 1.34053e-06 1.99274e-05 1.92068e-05 2.03317e-05 -1.51998e-12 -3.84277e-12 9.10619e-12 -1.23966e-05 -3.13408e-05 7.4268e-05 
1 1 1.21104e-06 2.03124e-05 2.08248e-05 2.04133e-05 4.47535e-12 8.58207e-12 2.51383e-12 2.79085e-05 5.35181e-05 1.56763e-05 
6 4 8.93603e-07 1.98987e-05 2.22175e-05 2.06193e-05 -8.42102e-13 8.58664e-12 5.05573e-12 0 0 0 
5 5 1.4839e-06 1.99896e-05 2.0051e-05 2.12637e-05 -1.5046e-12 1.51192e-13 9.885e-12 -6.77305e-06 6.806e-07 4.4498e-05 
10 2 1.08232e-06 2.01114e-05 1.77445e-05 1.96611e-05 8.34289e-13 -9.91254e-12 1.02252e-12 2.1035e-07 -2.49926e-06 2.5781e-07 
ITEM: TIMESTEP
30000
ITEM: NUMBER OF ATOMS
12
ITEM: BOX BOUNDS ff ff ff
1e-05 3e-05
1e-05 3e-05
0 4e-05
ITEM: ATOMS id type diameter x y z vx vy vz fx fy fz 
4 4 1.03337e-06 1.99994e-05 1.99759e-05 1.87013e-05 1.35156e-13 -1.38852e-12 -9.90221e-12 3.6903e-07 -3.79121e-06 -2.70369e-05 
8 4 9.68039e-07 1.94419e-05 2.20865e-05 1.92325e-05 -4.23699e-12 6.82635e-12 -5.95389e-12 -2.95767e-05 4.76519e-05 -4.15617e-05 
2 2 1.19817e-06 2.00205e-05 1.88422e-05 1.95286e-05 1.03524e-12 -3.42576e-12 -9.33769e-12 7.82025e-06 -2.58783e-05 -7.05374e-05 
3 3 1.36011e-06 1.99851e-05 2.01231e-05 1.97512e-05 3.49128e-12 -8.84591e-12 -3.09207e-12 5.54182e-05 -0.000140414 -4.90815e-05 
9 1 1.25581e-06 1.97652e-05 2.15657e-05 1.96867e-05 4.09009e-12 -6.99373e-12 5.86164e-12 2.24093e-05 -3.83181e-05 3.21155e-05 
7 2 1.37008e-06 1.99243e-05 1.91987e-05 2.03498e-05 -1.51142e-12 -4.34977e-12 8.87666e-12 -1.25577e-05 -3.61402e-05 7.3752e-05 
1 1 1.24155e-06 2.03224e-05 2.084e-05 2.04211e-05 5.38328e-12 6.71127e-12 5.09697e-12 5.07827e-05 6.33102e-05 4.80819e-05 
6 4 8.92431e-07 1.9897e-05 2.22347e-05 2.06294e-05 -8.42102e-13 8.58664e-12 5.05573e-12 0 0 0 
5 5 1.4839e-06 1.99799e-05 2.00479e-05 2.12783e-05 -8.13897e-12 -3.20925e-12 4.84334e-12 -5.8885e-05 -2.32187e-05 3.50413e-05 
10 2 1.10618e-06 2.01131e-05 1.77247e-05 1.96633e-05 8.19769e-13 -9.89471e-12 1.19279e-12 3.73357e-07 -4.50647e-06 5.43247e-07 
11 4 9.31484e-07 1.98568e-05 2.04012e-05 1.97762e-05 -5.4706e-12 8.33998e-12 -7.19248e-13 -8.82697e-05 0.000134568 -1.16053e-05 
12 4 9.24476e-07 2.07746e-05 2.04556e-05 2.14351e-05 8.76325e-12 4.49581e-12 1.73004e-12 5.21161e-05 2.67371e-05 1.02888e-05 
ITEM: TIMESTEP
32000
ITEM: NUMBER OF ATOMS
14
ITEM: BOX BOUNDS ff ff ff
1e-05 3e-05
1e-05 3e-05
0 4e-05
ITEM: ATOMS id type diameter x y z vx vy vz fx fy fz 
4 4 1.03201e-06 2.00043e-05 1.99707e-05 1.86835e-05 4.81318e-12 -3.87116e-12 -7.86431e-12 1.96151e-05 -1.57761e-05 -3.20493e-05 
8 4 9.6677e-07 1.94335e-05 2.21001e-05 1.92206e-05 -4.2306e-12 6.83391e-12 -5.94977e-12 -2.74344e-05 4.43162e-05 -3.85828e-05 
10 2 1.13056e-06 2.01146e-05 1.77049e-05 1.96658e-05 7.46822e-13 -9.88726e-12 1.2978e-12 6.26293e-07 -8.29157e-06 1.08835e-06 
2 2 1.22458e-06 2.00298e-05 1.88278e-05 1.95184e-05 4.79949e-12 -7.04728e-12 -5.22501e-12 4.01562e-05 -5.8963e-05 -4.37164e-05 
7 2 1.15039e-06 1.96924e-05 1.93842e-05 1.98711e-05 -8.29891e-12 3.09478e-12 4.64223e-12 -7.05383e-05 2.63047e-05 3.94576e-05 
3 3 1.03002e-06 2.03627e-05 1.99339e-05 2.0067e-05 8.60644e-12 -4.71135e-12 1.93194e-12 6.15771e-05 -3.37086e-05 1.38226e-05 
11 4 9.30263e-07 1.98535e-05 2.04152e-05 1.97834e-05 2.17498e-12 5.72228e-12 7.90727e-12 1.25e-05 3.28871e-05 4.54447e-05 
9 1 1.28746e-06 1.97731e-05 2.15515e-05 1.96983e-05 3.82891e-12 -7.28707e-12 5.67786e-12 1.54228e-05 -2.93522e-05 2.28703e-05 
1 1 1.27284e-06 2.03331e-05 2.08539e-05 2.04308e-05 5.33628e-12 7.06739e-12 4.64501e-12 3.88889e-05 5.15046e-05 3.38512e-05 
13 2 1.06947e-06 2.01283e-05 1.90095e-05 2.07976e-05 2.04975e-12 -9.36877e-12 -2.8328e-12 5.12315e-06 -2.34163e-05 -7.08032e-06 
6 4 8.91262e-07 1.98953e-05 2.22518e-05 2.06396e-05 -8.42102e-13 8.58664e-12 5.05573e-12 0 0 0 
5 5 1.4839e-06 1.9962e-05 2.00417e-05 2.12846e-05 -8.90607e-12 -3.07645e-12 3.34923e-12 -5.77323e-05 -1.99426e-05 2.17109e-05 
12 4 9.23265e-07 2.07921e-05 2.04646e-05 2.14385e-05 8.79134e-12 4.47846e-12 1.62963e-12 4.55932e-05 2.32259e-05 8.4515e-06 
14 3 1.16176e-06 1.95744e-05 2.03164e-05 1.93859e-05 -7.84572e-12 1.04974e-12 -6.11086e-12 -8.37978e-05 1.1212e-05 -6.52683e-05 
ITEM: TIMESTEP
34000
ITEM: NUMBER OF ATOMS
14
ITEM: BOX BOUNDS ff ff ff
1e-05 3e-05
1e-05 3e-05
0 4e-05
ITEM: ATOMS id type diameter x y z vx vy vz fx fy fz 
4 4 1.03066e-06 2.00141e-05 1.99629e-05 1.86679e-05 4.99146e-12 -3.90201e-12 -7.7369e-12 1.94719e-05 -1.52219e-05 -3.0182e-05 
8 4 9.65503e-07 1.9425e-05 2.21138e-05 1.92087e-05 -4.21519e-12 6.85218e-12 -5.93968e-12 -2.52871e-05 4.11065e-05 -3.56323e-05 
10 2 1.15548e-06 2.0116e-05 1.76852e-05 1.96685e-05 6.68265e-13 -9.87794e-12 1.40704e-12 8.11059e-07 -1.19886e-05 1.70769e-06 
2 2 1.25157e-06 2.00397e-05 1.8814e-05 1.95077e-05 5.05844e-12 -6.65179e-12 -5.49235e-12 4.0193e-05 -5.28533e-05 -4.36407e-05 
7 2 1.17575e-06 1.96755e-05 1.93899e-05 1.98801e-05 -8.58219e-12 2.65378e-12 4.39357e-12 -7.40021e-05 2.28829e-05 3.78847e-05 
3 3 1.0494e-06 2.038e-05 1.99245e-05 2.00705e-05 8.67614e-12 -4.69246e-12 1.64478e-12 6.26337e-05 -3.38752e-05 1.18738e-05 
11 4 9.29044e-07 1.98574e-05 2.04267e-05 1.97993e-05 1.75771e-12 5.58218e-12 8.10862e-12 8.97729e-06 2.85103e-05 4.14137e-05 
9 1 1.31991e-06 1.97803e-05 2.15363e-05 1.97093e-05 3.29171e-12 -7.73764e-12 5.41236e-12 8.19838e-06 -1.92715e-05 1.34801e-05 
1 1 1.30492e-06 2.03443e-05 2.0867e-05 2.04409e-05 5.80096e-12 6.06739e-12 5.43467e-12 4.58211e-05 4.79256e-05 4.29279e-05 
13 2 1.09304e-06 2.01331e-05 1.89906e-05 2.07933e-05 2.79285e-12 -9.49313e-12 -1.44242e-12 6.85471e-06 -2.32998e-05 -3.54024e-06 
6 4 8.90093e-07 1.98937e-05 2.2269e-05 2.06497e-05 -8.42102e-13 8.58664e-12 5.05573e-12 0 0 0 
5 5 1.4839e-06 1.99443e-05 2.00356e-05 2.12917e-05 -8.77961e-12 -3.00391e-12 3.7276e-12 -5.16695e-05 -1.76786e-05 2.19376e-05 
12 4 9.22054e-07 2.08097e-05 2.04735e-05 2.14417e-05 8.81799e-12 4.46184e-12 1.52808e-12 3.90673e-05 1.97678e-05 6.77004e-06 
14 3 1.18363e-06 1.95588e-05 2.03188e-05 1.93736e-05 -7.73208e-12 1.33487e-12 -6.19944e-12 -8.10697e-05 1.39959e-05 -6.50002e-05 
ITEM: TIMESTEP
36000
ITEM: NUMBER OF ATOMS
14
ITEM: BOX BOUNDS ff ff ff
1e-05 3e-05
1e-05 3e-05
0 4e-05
ITEM: ATOMS id type diameter x y z vx vy vz fx fy fz 
4 4 1.02931e-06 2.00242e-05 1.99551e-05 1.86526e-05 5.16126e-12 -3.93704e-12 -7.60665e-12 1.92173e-05 -1.46591e-05 -2.83224e-05 
8 4 9.64237e-07 1.94166e-05 2.21275e-05 1.91968e-05 -4.18334e-12 6.86827e-12 -5.94361e-12 -2.31157e-05 3.79517e-05 -3.28423e-05 
10 2 1.18095e-06 2.01173e-05 1.76654e-05 1.96714e-05 5.84142e-13 -9.86651e-12 1.52012e-12 9.21879e-07 -1.55711e-05 2.39902e-06 
2 2 1.27916e-06 2.005e-05 1.88012e-05 1.94964e-05 5.32435e-12 -6.19589e-12 -5.76735e-12 4.03823e-05 -4.69924e-05 -4.37422e-05 
7 2 1.20166e-06 1.96581e-05 1.93948e-05 1.98887e-05 -8.77827e-12 2.23953e-12 4.23398e-12 -7.71685e-05 1.96874e-05 3.72203e-05 
3 3 1.06915e-06 2.03974e-05 1.99151e-05 2.00735e-05 8.70914e-12 -4.73028e-12 1.33241e-12 6.35385e-05 -3.45103e-05 9.72079e-06 
11 4 9.27826e-07 1.98605e-05 2.04365e-05 1.98164e-05 1.31145e-12 4.13895e-12 9.00829e-12 5.56793e-06 1.75725e-05 3.8246e-05 
9 1 1.35319e-06 1.97858e-05 2.15215e-05 1.97213e-05 1.29579e-12 -5.61899e-12 8.16994e-12 6.47636e-07 -2.80838e-06 4.08335e-06 
1 1 1.33783e-06 2.03562e-05 2.08783e-05 2.04523e-05 6.10025e-12 5.22089e-12 5.96065e-12 5.28746e-05 4.52527e-05 5.16646e-05 
13 2 1.11713e-06 2.01394e-05 1.89717e-05 2.07917e-05 3.40522e-12 -9.39836e-12 -2.74579e-13 8.37562e-06 -2.31166e-05 -6.75367e-07 
6 4 8.88926e-07 1.9892e-05 2.22862e-05 2.06598e-05 -8.42102e-13 8.58664e-12 5.05573e-12 0 0 0 
5 5 1.4839e-06 1.99269e-05 2.00297e-05 2.12996e-05 -8.60014e-12 -2.92453e-12 4.18148e-12 -4.56488e-05 -1.55232e-05 2.21949e-05 
12 4 9.20846e-07 2.08274e-05 2.04824e-05 2.14446e-05 8.84325e-12 4.44617e-12 1.42428e-12 3.25578e-05 1.63693e-05 5.2437e-06 
14 3 1.2059e-06 1.95435e-05 2.03218e-05 1.93611e-05 -7.58188e-12 1.58597e-12 -6.32454e-12 -7.81505e-05 1.63474e-05 -6.51904e-05 
ITEM: TIMESTEP
38000
ITEM: NUMBER OF ATOMS
15
ITEM: BOX BOUNDS ff ff ff
1e-05 3e-05
1e-05 3e-05
0 4e-05
ITEM: ATOMS id type diameter x y z vx vy vz fx fy fz 
4 4 1.02796e-06 2.00347e-05 1.99471e-05 1.86375e-05 5.32271e-12 -3.9757e-12 -7.47413e-12 1.88691e-05 -1.4094e-05 -2.6496e-05 
8 4 9.62973e-07 1.94075e-05 2.2143e-05 1.91922e-05 -4.98585e-12 8.56748e-12 1.31895e-12 -2.80329e-05 4.81707e-05 7.41583e-06 
10 2 1.20698e-06 2.01184e-05 1.76457e-05 1.96746e-05 4.94612e-13 -9.85277e-12 1.63655e-12 9.5427e-07 -1.90092e-05 3.15744e-06 
2 2 1.30735e-06 2.0061e-05 1.87893e-05 1.94846e-05 5.58769e-12 -5.68078e-12 -6.04206e-12 4.07271e-05 -4.14057e-05 -4.40389e-05 
7 2 1.22815e-06 1.96404e-05 1.93989e-05 1.98971e-05 -8.9173e-12 1.81896e-12 4.14404e-12 -8.0197e-05 1.63587e-05 3.72691e-05 
3 3 1.08927e-06 2.04148e-05 1.99056e-05 2.00758e-05 8.66955e-12 -4.89151e-12 9.55022e-13 6.39472e-05 -3.60801e-05 7.04431e-06 
11 4 9.2661e-07 1.98621e-05 2.04463e-05 1.98336e-05 1.68587e-13 5.90234e-12 8.07056e-12 7.04942e-07 2.46805e-05 3.37468e-05 
9 1 1.14725e-06 1.97961e-05 2.15211e-05 2.04169e-05 -8.99626e-12 3.63041e-12 -2.42641e-12 -5.80107e-05 2.341e-05 -1.56462e-05 
1 1 1.37157e-06 2.03717e-05 2.08847e-05 2.04616e-05 9.33219e-12 1.44359e-12 3.29034e-12 8.71901e-05 1.34873e-05 3.07414e-05 
13 2 1.14176e-06 2.01467e-05 1.89531e-05 2.07921e-05 3.90418e-12 -9.18157e-12 6.75368e-13 9.73085e-06 -2.28843e-05 1.6833e-06 
6 4 8.87761e-07 1.98922e-05 2.23042e-05 2.06679e-05 1.16162e-12 9.45868e-12 3.03051e-12 4.40352e-06 3.58564e-05 1.14882e-05 
5 5 1.4839e-06 1.99099e-05 2.0024e-05 2.13085e-05 -8.36341e-12 -2.79043e-12 4.71879e-12 -3.96628e-05 -1.32334e-05 2.23785e-05 
12 4 9.19638e-07 2.08451e-05 2.04913e-05 2.14474e-05 8.86723e-12 4.43147e-12 1.31691e-12 2.60914e-05 1.30394e-05 3.87495e-06 
14 3 1.22859e-06 1.95285e-05 2.03252e-05 1.93483e-05 -7.38897e-12 1.96461e-12 -6.44542e-12 -7.47479e-05 1.98743e-05 -6.52029e-05 
15 1 1.05076e-06 1.97693e-05 2.15212e-05 1.90964e-05 4.98585e-12 -8.56748e-12 -1.31895e-12 2.80329e-05 -4.81707e-05 -7.41583e-06 
ITEM: TIMESTEP
40000
ITEM: NUMBER OF ATOMS
16
ITEM: BOX BOUNDS ff ff ff
1e-05 3e-05
1e-05 3e-05
0 4e-05
ITEM: ATOMS id type diameter x y z vx vy vz fx fy fz 
4 4 1.02661e-06 2.00455e-05 1.99391e-05 1.86227e-05 5.47513e-12 -4.01951e-12 -7.33938e-12 1.84151e-05 -1.35193e-05 -2.46853e-05 
8 4 9.61711e-07 1.93975e-05 2.21601e-05 1.91948e-05 -4.98585e-12 8.56748e-12 1.31895e-12 -2.53031e-05 4.34799e-05 6.69368e-06 
10 2 1.23359e-06 2.01193e-05 1.7626e-05 1.9678e-05 4.00095e-13 -9.83655e-12 1.75561e-12 9.06053e-07 -2.22758e-05 3.97576e-06 
2 2 1.33617e-06 2.00724e-05 1.87785e-05 1.94723e-05 5.83737e-12 -5.11484e-12 -6.30584e-12 4.12151e-05 -3.61136e-05 -4.45227e-05 
7 2 1.25522e-06 1.96225e-05 1.94021e-05 1.99053e-05 -8.99201e-12 1.48547e-12 4.11548e-12 -8.3428e-05 1.37822e-05 3.81835e-05 
3 3 1.10977e-06 2.04297e-05 1.98974e-05 2.00653e-05 7.39268e-12 -4.14327e-12 -5.30863e-12 7.63634e-05 -4.27983e-05 -5.4836e-05 
11 4 9.25395e-07 1.98674e-05 2.0459e-05 1.98481e-05 2.46717e-12 6.65959e-12 7.0401e-12 1.7975e-05 4.85196e-05 5.12919e-05 
9 1 1.1762e-06 1.97772e-05 2.1515e-05 2.04193e-05 -9.45919e-12 -3.02098e-12 1.18212e-12 -8.4709e-05 -2.70534e-05 1.05861e-05 
1 1 1.04035e-06 2.04465e-05 2.14631e-05 2.02428e-05 9.64256e-12 -7.47032e-13 -2.54225e-12 7.98718e-05 -6.18786e-06 -2.10581e-05 
13 2 1.16692e-06 2.01549e-05 1.8935e-05 2.07943e-05 4.32718e-12 -8.8832e-12 1.53761e-12 1.07847e-05 -2.21398e-05 3.83223e-06 
6 4 8.86597e-07 1.98948e-05 2.23231e-05 2.06739e-05 1.37475e-12 9.44734e-12 2.9762e-12 4.83717e-06 3.32413e-05 1.0472e-05 
5 5 1.4839e-06 1.98966e-05 2.00201e-05 2.13229e-05 -6.5829e-12 -1.97628e-12 7.26359e-12 -8.33954e-05 -2.50364e-05 9.20187e-05 
12 4 9.18433e-07 2.08615e-05 2.04994e-05 2.14556e-05 8.09056e-12 3.96785e-12 4.33578e-12 3.00904e-05 1.47572e-05 1.61256e-05 
14 3 1.25172e-06 1.95139e-05 2.03294e-05 1.93353e-05 -7.23628e-12 2.22973e-12 -6.53181e-12 -7.18699e-05 2.21454e-05 -6.48731e-05 
15 1 1.07727e-06 1.97793e-05 2.1504e-05 1.90938e-05 4.98585e-12 -8.56748e-12 -1.31895e-12 2.53031e-05 -4.34799e-05 -6.69368e-06 
16 1 1.18273e-06 2.03195e-05 2.02411e-05 2.06991e-05 5.52316e-12 8.06136e-12 -2.12349e-12 4.29436e-05 6.26786e-05 -1.65105e-05 
ITEM: TIMESTEP
42000
ITEM: NUMBER OF ATOMS
16
ITEM: BOX BOUNDS ff ff ff
1e-05 3e-05
1e-05 3e-05
0 4e-05
ITEM: ATOMS id type diameter x y z vx vy vz fx fy fz 
4 4 1.02527e-06 2.00566e-05 1.99311e-05 1.86081e-05 5.61941e-12 -4.06639e-12 -7.20325e-12 1.78709e-05 -1.2932e-05 -2.29078e-05 
2 2 1.36562e-06 2.00843e-05 1.87689e-05 1.94594e-05 6.06328e-12 -4.51212e-12 -6.54808e-12 4.1834e-05 -3.11317e-05 -4.5179e-05 
14 3 1.27527e-06 1.94996e-05 2.03341e-05 1.93222e-05 -7.06103e-12 2.47388e-12 -6.63489e-12 -6.88834e-05 2.41338e-05 -6.47263e-05 
15 1 1.10446e-06 1.97893e-05 2.14869e-05 1.90912e-05 4.98585e-12 -8.56748e-12 -1.31895e-12 2.26072e-05 -3.88473e-05 -5.98051e-06 
8 4 9.6045e-07 1.93875e-05 2.21772e-05 1.91974e-05 -4.98585e-12 8.56748e-12 1.31895e-12 -2.26072e-05 3.88473e-05 5.98051e-06 
10 2 1.26078e-06 2.012e-05 1.76063e-05 1.96816e-05 3.01275e-13 -9.81775e-12 1.87641e-12 7.77889e-07 -2.53493e-05 4.84488e-06 
7 2 1.28289e-06 1.96045e-05 1.94049e-05 1.99136e-05 -9.02575e-12 1.23334e-12 4.12489e-12 -8.64231e-05 1.18094e-05 3.94965e-05 
11 4 9.24182e-07 1.98719e-05 2.04729e-05 1.98618e-05 2.02416e-12 7.17126e-12 6.66902e-12 1.35944e-05 4.81627e-05 4.47896e-05 
3 3 1.13065e-06 2.04443e-05 1.9889e-05 2.00546e-05 7.26652e-12 -4.25345e-12 -5.39498e-12 7.73434e-05 -4.52728e-05 -5.74231e-05 