ITEM: TIMESTEP
0
ITEM: NUMBER OF ATOMS
5
ITEM: BOX BOUNDS ff ff ff
1e-05 3e-05
1e-05 3e-05
0 4e-05
ITEM: ATOMS id type diameter x y z vx vy vz fx fy fz 
4 4 1.0539e-06 2e-05 2e-05 1.9e-05 0 0 0 0 0 -8.22e-06 
2 2 1.2839e-06 2e-05 1.9e-05 2e-05 0 0 0 0 -3.122e-05 0 
3 3 1.0283e-06 2e-05 2e-05 2e-05 0 0 0 0 2e-05 -4.3e-05 
1 1 1.0839e-06 2e-05 2.1e-05 2e-05 0 0 0 0 1.122e-05 0 
5 5 1.4839e-06 2e-05 2e-05 2.1e-05 0 0 0 0 0 5.122e-05 
ITEM: TIMESTEP
2000
ITEM: NUMBER OF ATOMS
6
ITEM: BOX BOUNDS ff ff ff
1e-05 3e-05
1e-05 3e-05
0 4e-05
ITEM: ATOMS id type diameter x y z vx vy vz fx fy fz 
4 4 1.05252e-06 2e-05 1.99999e-05 1.898e-05 0 -8.53071e-14 -9.99964e-12 0 -8.21857e-08 -9.63375e-06 
2 2 1.3122e-06 2e-05 1.898e-05 2.00002e-05 0 -9.99842e-12 1.77913e-13 0 -3.02557e-05 5.38373e-07 
3 3 1.04765e-06 2e-05 2.00085e-05 1.99819e-05 0 4.24184e-12 -9.05576e-12 0 1.71776e-05 -3.66718e-05 
1 1 1.11112e-06 2e-05 2.102e-05 2.00002e-05 0 9.99836e-12 1.80909e-13 0 1.3535e-05 2.44899e-07 
5 5 1.4839e-06 2e-05 1.99999e-05 2.102e-05 0 -8.23097e-14 9.99966e-12 0 -3.74706e-07 4.55223e-05 
6 4 9.08972e-07 1.99096e-05 2.19756e-05 2.05541e-05 0 1e-11 0 0 0 0 
ITEM: TIMESTEP
4000
ITEM: NUMBER OF ATOMS
6
ITEM: BOX BOUNDS ff ff ff
1e-05 3e-05
1e-05 3e-05
0 4e-05
ITEM: ATOMS id type diameter x y z vx vy vz fx fy fz 
4 4 1.05114e-06 2e-05 1.99997e-05 1.896e-05 0 -1.72294e-13 -9.99852e-12 0 -1.90678e-07 -1.10654e-05 
2 2 1.34112e-06 2e-05 1.896e-05 2.00007e-05 0 -9.9939e-12 3.49247e-13 0 -2.9313e-05 1.02437e-06 
3 3 1.06737e-06 2e-05 2.0017e-05 1.99638e-05 0 4.24722e-12 -9.05324e-12 0 1.42531e-05 -3.03814e-05 
1 1 1.13905e-06 2e-05 2.104e-05 2.00007e-05 0 9.99348e-12 3.60962e-13 0 1.58905e-05 5.73961e-07 
5 5 1.4839e-06 2e-05 1.99997e-05 2.104e-05 0 -1.6055e-13 9.99871e-12 0 -6.39851e-07 3.98484e-05 
6 4 9.0778e-07 1.99096e-05 2.19956e-05 2.05541e-05 0 1e-11 0 0 0 0 
ITEM: TIMESTEP
6000
ITEM: NUMBER OF ATOMS
6
ITEM: BOX BOUNDS ff ff ff
1e-05 3e-05
1e-05 3e-05
0 4e-05
ITEM: ATOMS id type diameter x y z vx vy vz fx fy fz 
4 4 1.04976e-06 2e-05 1.99992e-05 1.894e-05 0 -2.60537e-13 -9.99661e-12 0 -3.26269e-07 -1.25187e-05 
2 2 1.37069e-06 2e-05 1.894e-05 2.00016e-05 0 -9.98676e-12 5.14459e-13 0 -2.8407e-05 1.46336e-06 
3 3 1.08745e-06 2e-05 2.00254e-05 1.99457e-05 0 4.22834e-12 -9.06207e-12 0 1.12593e-05 -2.41307e-05 
1 1 1.16768e-06 2e-05 2.106e-05 2.00016e-05 0 9.9854e-12 5.40189e-13 0 1.82767e-05 9.88729e-07 
5 5 1.4839e-06 2e-05 1.99993e-05 2.106e-05 0 -2.34669e-13 9.99725e-12 0 -8.02726e-07 3.41973e-05 
6 4 9.0659e-07 1.99096e-05 2.20156e-05 2.05541e-05 0 1e-11 0 0 0 0 
ITEM: TIMESTEP
8000
ITEM: NUMBER OF ATOMS
7
ITEM: BOX BOUNDS ff ff ff
1e-05 3e-05
1e-05 3e-05
0 4e-05
ITEM: ATOMS id type diameter x y z vx vy vz fx fy fz 
4 4 1.04838e-06 2e-05 1.99986e-05 1.892e-05 -1.27885e-14 -3.93954e-13 -9.99223e-12 -1.71087e-08 -5.27041e-07 -1.33678e-05 
2 2 1.14391e-06 2.00472e-05 1.84373e-05 1.97127e-05 8.39945e-13 -8.59212e-12 -5.04678e-12 2.87666e-07 -2.94264e-06 -1.72843e-06 
3 3 1.10792e-06 2.00013e-05 2.00384e-05 1.99305e-05 6.77947e-13 6.49026e-12 -7.57739e-12 4.40186e-06 4.21408e-05 -4.91995e-05 
1 1 1.19702e-06 2e-05 2.10799e-05 2.00029e-05 -1.23833e-14 9.97594e-12 6.93127e-13 -2.68562e-08 2.16353e-05 1.50321e-06 
5 5 1.4839e-06 2.00006e-05 2.00071e-05 2.10784e-05 2.9012e-13 3.96579e-12 9.17542e-12 2.18617e-06 2.98839e-05 6.91406e-05 
6 4 9.05402e-07 1.99096e-05 2.20356e-05 2.05541e-05 0 1e-11 0 0 0 0 
7 2 1.07792e-06 1.99553e-05 1.93771e-05 2.02648e-05 -7.53463e-13 -9.94697e-12 -7.0012e-13 -6.83174e-06 -9.01903e-05 -6.34807e-06 
ITEM: TIMESTEP
10000
ITEM: NUMBER OF ATOMS
7
ITEM: BOX BOUNDS ff ff ff
1e-05 3e-05
1e-05 3e-05
0 4e-05
ITEM: ATOMS id type diameter x y z vx vy vz fx fy fz 
4 4 1.04701e-06 1.99999e-05 1.99976e-05 1.89e-05 -2.73433e-14 -5.28389e-13 -9.98599e-12 -3.89233e-08 -7.52163e-07 -1.42151e-05 
2 2 1.16913e-06 2.00489e-05 1.84202e-05 1.97026e-05 8.68109e-13 -8.54654e-12 -5.11889e-12 6.77502e-07 -6.67002e-06 -3.99496e-06 
3 3 1.12877e-06 2.00027e-05 2.00514e-05 1.99153e-05 7.74188e-13 6.4638e-12 -7.59078e-12 4.38126e-06 3.65798e-05 -4.29575e-05 
1 1 1.2271e-06 1.99999e-05 2.10999e-05 2.00044e-05 -2.64029e-14 9.96408e-12 8.4642e-13 -6.6353e-08 2.50407e-05 2.12714e-06 
5 5 1.4839e-06 2.00012e-05 2.00152e-05 2.10967e-05 3.01884e-13 4.14158e-12 9.09704e-12 2.02363e-06 2.77624e-05 6.09805e-05 
6 4 9.04215e-07 1.99096e-05 2.20556e-05 2.05541e-05 0 1e-11 0 0 0 0 
7 2 1.10168e-06 1.99537e-05 1.93572e-05 2.02638e-05 -8.47972e-13 -9.96119e-12 -2.35786e-13 -6.97712e-06 -8.19607e-05 -1.94004e-06 
ITEM: TIMESTEP
12000
ITEM: NUMBER OF ATOMS
8
ITEM: BOX BOUNDS ff ff ff
1e-05 3e-05
1e-05 3e-05
0 4e-05
ITEM: ATOMS id type diameter x y z vx vy vz fx fy fz 
4 4 1.04564e-06 1.99999e-05 1.99965e-05 1.88801e-05 -4.42762e-14 -6.62977e-13 -9.9779e-12 -6.68872e-08 -1.00155e-06 -1.50734e-05 
2 2 1.1949e-06 2.00507e-05 1.84031e-05 1.96923e-05 8.98086e-13 -8.49532e-12 -5.19837e-12 1.09241e-06 -1.03335e-05 -6.32319e-06 
3 3 1.15001e-06 2.00044e-05 2.00642e-05 1.99001e-05 9.08998e-13 6.38852e-12 -7.6394e-12 4.40046e-06 3.09268e-05 -3.69823e-05 
7 2 1.12596e-06 1.99519e-05 1.93373e-05 2.02639e-05 -9.67677e-13 -9.94753e-12 3.31981e-13 -7.17919e-06 -7.38007e-05 2.46297e-06 
1 1 1.25794e-06 1.99999e-05 2.11198e-05 2.00062e-05 -4.26252e-14 9.94974e-12 1.00046e-12 -1.21985e-07 2.84743e-05 2.86312e-06 
6 4 9.0303e-07 1.99096e-05 2.20756e-05 2.05541e-05 0 1e-11 0 0 0 0 
5 5 1.4839e-06 2.00018e-05 2.00237e-05 2.11148e-05 3.17857e-13 4.36219e-12 8.99279e-12 1.87519e-06 2.57347e-05 5.30528e-05 
8 4 9.79582e-07 1.94888e-05 2.19417e-05 1.92915e-05 -3.41926e-14 9.95722e-12 9.23319e-13 0 0 0 
ITEM: TIMESTEP
14000
ITEM: NUMBER OF ATOMS
8
ITEM: BOX BOUNDS ff ff ff
1e-05 3e-05
1e-05 3e-05
0 4e-05
ITEM: ATOMS id type diameter x y z vx vy vz fx fy fz 
4 4 1.04427e-06 1.99998e-05 1.9995e-05 1.88601e-05 -6.4563e-14 -7.96568e-13 -9.96801e-12 -1.03379e-07 -1.27547e-06 -1.59608e-05 
2 2 1.22124e-06 2.00525e-05 1.83862e-05 1.96818e-05 9.30168e-13 -8.43748e-12 -5.28618e-12 1.5312e-06 -1.38894e-05 -8.70184e-06 
3 3 1.17165e-06 2.00064e-05 2.00769e-05 1.98847e-05 1.10638e-12 6.2404e-12 -7.7352e-12 4.47158e-06 2.52214e-05 -3.12628e-05 
7 2 1.15078e-06 1.99498e-05 1.93174e-05 2.02652e-05 -1.11833e-12 -9.88414e-12 1.02623e-12 -7.44363e-06 -6.57888e-05 6.83059e-06 
1 1 1.28956e-06 1.99998e-05 2.11397e-05 2.00084e-05 -6.19444e-14 9.9328e-12 1.15571e-12 -1.98992e-07 3.19085e-05 3.71263e-06 
6 4 9.01846e-07 1.99096e-05 2.20956e-05 2.05541e-05 0 1e-11 0 0 0 0 
5 5 1.4839e-06 2.00024e-05 2.00326e-05 2.11326e-05 3.39909e-13 4.64537e-12 8.84901e-12 1.74323e-06 2.38238e-05 4.53823e-05 
8 4 9.78298e-07 1.94887e-05 2.19617e-05 1.92934e-05 -3.41926e-14 9.95722e-12 9.23319e-13 0 0 0 
ITEM: TIMESTEP
16000
ITEM: NUMBER OF ATOMS
8
ITEM: BOX BOUNDS ff ff ff
1e-05 3e-05
1e-05 3e-05
0 4e-05
ITEM: ATOMS id type diameter x y z vx vy vz fx fy fz 
4 4 1.0429e-06 1.99996e-05 1.99933e-05 1.88402e-05 -8.98424e-14 -9.27461e-13 -9.95649e-12 -1.52522e-07 -1.57451e-06 -1.69027e-05 
2 2 1.24816e-06 2.00544e-05 1.83694e-05 1.96711e-05 9.64641e-13 -8.37202e-12 -5.38319e-12 1.99098e-06 -1.72795e-05 -1.11107e-05 
3 3 1.1937e-06 2.00089e-05 2.00891e-05 1.98691e-05 1.41227e-12 5.97674e-12 -7.89203e-12 4.61434e-06 1.95279e-05 -2.57857e-05 
7 2 1.17615e-06 1.99474e-05 1.92978e-05 2.02681e-05 -1.30516e-12 -9.73724e-12 1.86623e-12 -7.77887e-06 -5.80346e-05 1.11228e-05 
1 1 1.32197e-06 1.99996e-05 2.11595e-05 2.00108e-05 -5.69454e-14 9.93153e-12 1.16681e-12 -1.95819e-07 3.41517e-05 4.01232e-06 
6 4 9.00664e-07 1.99088e-05 2.21144e-05 2.05588e-05 -8.22535e-13 8.64365e-12 4.96092e-12 -1.09434e-07 1.14999e-06 6.60026e-07 
5 5 1.4839e-06 2.00031e-05 2.00423e-05 2.11501e-05 3.70989e-13 5.0166e-12 8.64269e-12 1.63133e-06 2.20592e-05 3.8004e-05 
8 4 9.77016e-07 1.94887e-05 2.19816e-05 1.92952e-05 -3.41926e-14 9.95722e-12 9.23319e-13 0 0 0 
