ITEM: TIMESTEP
0
ITEM: NUMBER OF ATOMS
5
ITEM: BOX BOUNDS ff ff ff
1e-05 3e-05
1e-05 3e-05
0 4e-05
ITEM: ATOMS id type diameter x y z vx vy vz fx fy fz 
4 4 1.0539e-06 2e-05 2e-05 1.9e-05 0 0 0 0 0 -8.22e-06 
2 2 1.2839e-06 2e-05 1.9e-05 2e-05 0 0 0 0 -3.122e-05 0 
3 3 1.0283e-06 2e-05 2e-05 2e-05 0 0 0 0 2e-05 -4.3e-05 
1 1 1.0839e-06 2e-05 2.1e-05 2e-05 0 0 0 0 1.122e-05 0 
5 5 1.4839e-06 2e-05 2e-05 2.1e-05 0 0 0 0 0 5.122e-05 
ITEM: TIMESTEP
2000
ITEM: NUMBER OF ATOMS
6
ITEM: BOX BOUNDS ff ff ff
1e-05 3e-05
1e-05 3e-05
0 4e-05
ITEM: ATOMS id type diameter x y z vx vy vz fx fy fz 
4 4 1.05252e-06 2e-05 1.99999e-05 1.898e-05 0 -8.0571e-14 -9.99968e-12 0 -7.79693e-08 -9.67677e-06 
2 2 1.3122e-06 2e-05 1.898e-05 2.00002e-05 0 -9.99838e-12 1.80061e-13 0 -3.03494e-05 5.46563e-07 
3 3 1.04765e-06 2e-05 2.0008e-05 1.99817e-05 0 3.7427e-12 -9.2732e-12 0 1.47894e-05 -3.66434e-05 
1 1 1.13665e-06 2e-05 2.102e-05 2.00002e-05 0 9.99833e-12 1.82922e-13 0 1.59914e-05 2.92566e-07 
5 5 1.4839e-06 2e-05 1.99999e-05 2.102e-05 0 -7.77074e-14 9.9997e-12 0 -3.53432e-07 4.5481e-05 
6 4 9.08972e-07 1.99096e-05 2.19756e-05 2.05541e-05 0 1e-11 0 0 0 0 
ITEM: TIMESTEP
4000
ITEM: NUMBER OF ATOMS
6
ITEM: BOX BOUNDS ff ff ff
1e-05 3e-05
1e-05 3e-05
0 4e-05
ITEM: ATOMS id type diameter x y z vx vy vz fx fy fz 
4 4 1.05114e-06 2e-05 1.99997e-05 1.896e-05 0 -1.5101e-13 -9.99886e-12 0 -1.69921e-07 -1.1251e-05 
2 2 1.34112e-06 2e-05 1.896e-05 2.00007e-05 0 -9.99357e-12 3.58506e-13 0 -2.97299e-05 1.06652e-06 
3 3 1.06737e-06 2e-05 2.00148e-05 1.99629e-05 0 3.05556e-12 -9.52174e-12 0 9.71028e-06 -3.02592e-05 
1 1 1.19196e-06 2e-05 2.104e-05 2.00007e-05 0 9.99319e-12 3.69008e-13 0 2.07469e-05 7.661e-07 
5 5 1.4839e-06 2e-05 1.99997e-05 2.104e-05 0 -1.40467e-13 9.99901e-12 0 -5.57394e-07 3.96775e-05 
6 4 9.0778e-07 1.99096e-05 2.19956e-05 2.05541e-05 0 1e-11 0 0 0 0 
ITEM: TIMESTEP
6000
ITEM: NUMBER OF ATOMS
6
ITEM: BOX BOUNDS ff ff ff
1e-05 3e-05
1e-05 3e-05
0 4e-05
ITEM: ATOMS id type diameter x y z vx vy vz fx fy fz 
4 4 1.04976e-06 2e-05 1.99993e-05 1.894e-05 0 -2.0594e-13 -9.99788e-12 0 -2.67032e-07 -1.29637e-05 
2 2 1.37069e-06 2e-05 1.894e-05 2.00016e-05 0 -9.98559e-12 5.36717e-13 0 -2.94662e-05 1.58379e-06 
3 3 1.08745e-06 2e-05 2.002e-05 1.99436e-05 0 2.04216e-12 -9.78926e-12 0 4.97408e-06 -2.38436e-05 
1 1 1.24997e-06 2e-05 2.106e-05 2.00017e-05 0 9.98443e-12 5.57734e-13 0 2.53837e-05 1.41794e-06 
5 5 1.4839e-06 2e-05 1.99994e-05 2.106e-05 0 -1.84715e-13 9.99829e-12 0 -6.24546e-07 3.38056e-05 
6 4 9.0659e-07 1.99096e-05 2.20156e-05 2.05541e-05 0 1e-11 0 0 0 0 
ITEM: TIMESTEP
8000
ITEM: NUMBER OF ATOMS
8
ITEM: BOX BOUNDS ff ff ff
1e-05 3e-05
1e-05 3e-05
0 4e-05
ITEM: ATOMS id type diameter x y z vx vy vz fx fy fz 
4 4 1.04838e-06 2e-05 1.99988e-05 1.892e-05 -1.40757e-14 -3.2309e-13 -9.99477e-12 -1.98382e-08 -4.55362e-07 -1.40866e-05 
2 2 1.14391e-06 2.00472e-05 1.84373e-05 1.97128e-05 8.39978e-13 -8.59139e-12 -5.04801e-12 2.86409e-07 -2.92943e-06 -1.72123e-06 
3 3 1.10792e-06 2.00014e-05 2.00314e-05 1.99272e-05 7.60061e-13 5.46759e-12 -8.33833e-12 4.52102e-06 3.25225e-05 -4.95983e-05 
1 1 1.3108e-06 2e-05 2.10799e-05 2.00029e-05 -8.18983e-15 9.97601e-12 6.92211e-13 -2.57357e-08 3.13486e-05 2.1752e-06 
5 5 1.4839e-06 2.00006e-05 2.00072e-05 2.10784e-05 2.91821e-13 4.02074e-12 9.15142e-12 2.1852e-06 3.01078e-05 6.8527e-05 
6 4 9.05402e-07 1.99095e-05 2.20355e-05 2.05545e-05 -8.17402e-13 8.63185e-12 4.98227e-12 -1.68878e-08 1.78336e-07 1.02935e-07 
7 2 1.07792e-06 1.99553e-05 1.93771e-05 2.0265e-05 -7.59914e-13 -9.95349e-12 -5.92015e-13 -6.93016e-06 -9.07725e-05 -5.39898e-06 
8 4 9.87995e-07 1.94848e-05 2.19084e-05 1.92824e-05 0 9.98443e-12 5.57734e-13 0 0 0 
ITEM: TIMESTEP
10000
ITEM: NUMBER OF ATOMS
8
ITEM: BOX BOUNDS ff ff ff
1e-05 3e-05
1e-05 3e-05
0 4e-05
ITEM: ATOMS id type diameter x y z vx vy vz fx fy fz 
4 4 1.04701e-06 1.99999e-05 1.9998e-05 1.89e-05 -3.09578e-14 -4.32086e-13 -9.99061e-12 -4.75591e-08 -6.63796e-07 -1.53482e-05 
2 2 1.16913e-06 2.00489e-05 1.84202e-05 1.97026e-05 8.68184e-13 -8.54473e-12 -5.1219e-12 6.7406e-07 -6.63415e-06 -3.97665e-06 
3 3 1.12877e-06 2.00031e-05 2.00417e-05 1.99102e-05 9.17358e-13 4.86246e-12 -8.68993e-12 4.57631e-06 2.42567e-05 -4.33504e-05 
1 1 1.37459e-06 2.00001e-05 2.10999e-05 2.00037e-05 1.20173e-13 9.99882e-12 9.53289e-14 3.91632e-07 3.25853e-05 3.10668e-07 
5 5 1.4839e-06 2.00012e-05 2.00155e-05 2.10966e-05 3.05015e-13 4.23018e-12 9.05608e-12 2.02235e-06 2.80474e-05 6.00447e-05 
6 4 9.04215e-07 1.99078e-05 2.20528e-05 2.05645e-05 -8.315e-13 8.58819e-12 5.05485e-12 -4.97585e-07 5.13933e-06 3.02491e-06 
7 2 1.10168e-06 1.99537e-05 1.93572e-05 2.02643e-05 -8.57327e-13 -9.96282e-12 -8.49009e-14 -7.11921e-06 -8.27308e-05 -7.05013e-07 
8 4 9.867e-07 1.94848e-05 2.19284e-05 1.92835e-05 0 9.98443e-12 5.57734e-13 0 0 0 
ITEM: TIMESTEP
12000
ITEM: NUMBER OF ATOMS
9
ITEM: BOX BOUNDS ff ff ff
1e-05 3e-05
1e-05 3e-05
0 4e-05
ITEM: ATOMS id type diameter x y z vx vy vz fx fy fz 
4 4 1.04564e-06 1.99999e-05 1.99971e-05 1.888e-05 9.21725e-15 -4.90817e-13 -9.98794e-12 1.57435e-08 -8.38337e-07 -1.70598e-05 
8 4 9.85406e-07 1.94763e-05 2.19421e-05 1.92716e-05 -4.25018e-12 6.83229e-12 -5.93765e-12 -4.05222e-05 6.51407e-05 -5.66109e-05 
2 2 1.1949e-06 2.00507e-05 1.84031e-05 1.96923e-05 8.97531e-13 -8.49233e-12 -5.20335e-12 1.08548e-06 -1.02707e-05 -6.29298e-06 
3 3 1.15001e-06 1.9999e-05 2.00468e-05 1.98912e-05 -2.25098e-12 2.4258e-12 -9.43656e-12 -1.59689e-05 1.72091e-05 -6.6945e-05 
9 1 1.1506e-06 1.97276e-05 2.15381e-05 1.96227e-05 4.25018e-12 -6.83229e-12 5.93765e-12 4.05222e-05 -6.51407e-05 5.66109e-05 
7 2 1.12596e-06 1.99519e-05 1.93372e-05 2.02647e-05 -8.99235e-13 -9.9487e-12 4.63489e-13 -6.85047e-06 -7.57903e-05 3.53091e-06 
1 1 1.13753e-06 2.0286e-05 2.06714e-05 2.03903e-05 4.086e-12 9.0968e-12 -7.43467e-13 3.62043e-05 8.06028e-05 -6.58754e-06 
6 4 9.0303e-07 1.99062e-05 2.20699e-05 2.05747e-05 -8.315e-13 8.58819e-12 5.05485e-12 0 0 0 
5 5 1.4839e-06 1.99983e-05 2.00134e-05 2.11163e-05 -1.52325e-12 -1.1475e-12 9.81646e-12 -1.44861e-05 -1.09127e-05 9.33544e-05 
ITEM: TIMESTEP
14000
ITEM: NUMBER OF ATOMS
9
ITEM: BOX BOUNDS ff ff ff
1e-05 3e-05
1e-05 3e-05
0 4e-05
ITEM: ATOMS id type diameter x y z vx vy vz fx fy fz 
4 4 1.04427e-06 2e-05 1.99961e-05 1.88601e-05 5.884e-14 -5.4558e-13 -9.98493e-12 1.1071e-07 -1.02654e-06 -1.87872e-05 
8 4 9.84114e-07 1.94678e-05 2.19557e-05 1.92597e-05 -4.25018e-12 6.83229e-12 -5.93765e-12 -3.9447e-05 6.34122e-05 -5.51088e-05 
2 2 1.22124e-06 2.00525e-05 1.83862e-05 1.96818e-05 9.27366e-13 -8.43371e-12 -5.29269e-12 1.51849e-06 -1.38095e-05 -8.66638e-06 
3 3 1.17165e-06 1.9994e-05 2.00514e-05 1.98724e-05 -2.72936e-12 2.15049e-12 -9.37689e-12 -1.78241e-05 1.40438e-05 -6.12359e-05 
9 1 1.20659e-06 1.97361e-05 2.15244e-05 1.96346e-05 4.25018e-12 -6.83229e-12 5.93765e-12 3.9447e-05 -6.34122e-05 5.51088e-05 
7 2 1.15078e-06 1.99501e-05 1.93174e-05 2.02662e-05 -9.45606e-13 -9.8948e-12 1.09488e-12 -6.61259e-06 -6.9194e-05 7.65648e-06 
1 1 1.19289e-06 2.02942e-05 2.06896e-05 2.03891e-05 4.1522e-12 9.08543e-12 -4.62869e-13 3.74017e-05 8.18387e-05 -4.16938e-06 
6 4 9.01846e-07 1.99045e-05 2.20871e-05 2.05848e-05 -8.315e-13 8.58819e-12 5.05485e-12 0 0 0 
5 5 1.4839e-06 1.99951e-05 2.00109e-05 2.11358e-05 -1.67264e-12 -1.35841e-12 9.76509e-12 -1.45942e-05 -1.18524e-05 8.52023e-05 
ITEM: TIMESTEP
16000
ITEM: NUMBER OF ATOMS
9
ITEM: BOX BOUNDS ff ff ff
1e-05 3e-05
1e-05 3e-05
0 4e-05
ITEM: ATOMS id type diameter x y z vx vy vz fx fy fz 
4 4 1.0429e-06 2.00002e-05 1.99949e-05 1.88401e-05 1.19656e-13 -5.9503e-13 -9.98156e-12 2.45917e-07 -1.22291e-06 -2.05141e-05 
8 4 9.82824e-07 1.94593e-05 2.19694e-05 1.92479e-05 -4.25008e-12 6.83239e-12 -5.93761e-12 -3.84867e-05 6.18709e-05 -5.37682e-05 
2 2 1.24816e-06 2.00544e-05 1.83694e-05 1.96711e-05 9.57499e-13 -8.36827e-12 -5.39029e-12 1.9692e-06 -1.72103e-05 -1.10857e-05 
3 3 1.1937e-06 1.9988e-05 2.00554e-05 1.98538e-05 -3.29571e-12 1.81035e-12 -9.26612e-12 -1.98268e-05 1.0891e-05 -5.57444e-05 
9 1 1.26531e-06 1.97446e-05 2.15108e-05 1.96465e-05 4.22846e-12 -6.85287e-12 5.92944e-12 3.57192e-05 -5.78885e-05 5.00879e-05 
7 2 1.17615e-06 1.99482e-05 1.92977e-05 2.02691e-05 -9.92792e-13 -9.78518e-12 1.80683e-12 -6.39519e-06 -6.30324e-05 1.16389e-05 
1 1 1.25094e-06 2.03027e-05 2.07077e-05 2.03886e-05 4.64135e-12 8.85542e-12 1.9857e-13 4.15755e-05 7.93236e-05 1.77872e-06 
6 4 9.00664e-07 1.99029e-05 2.21043e-05 2.05949e-05 -8.315e-13 8.58819e-12 5.05485e-12 0 0 0 
5 5 1.4839e-06 1.99915e-05 2.00079e-05 2.11553e-05 -1.84957e-12 -1.59094e-12 9.69784e-12 -1.48012e-05 -1.27315e-05 7.76069e-05 
ITEM: TIMESTEP
18000
ITEM: NUMBER OF ATOMS
11
ITEM: BOX BOUNDS ff ff ff
1e-05 3e-05
1e-05 3e-05
0 4e-05
ITEM: ATOMS id type diameter x y z vx vy vz fx fy fz 
4 4 1.04153e-06 2.00009e-05 1.99928e-05 1.88202e-05 2.80214e-13 -8.42704e-13 -9.96049e-12 6.17781e-07 -1.85789e-06 -2.19597e-05 
8 4 9.81536e-07 1.94508e-05 2.19831e-05 1.9236e-05 -4.24803e-12 6.83441e-12 -5.93675e-12 -3.76308e-05 6.05422e-05 -5.25903e-05 
2 2 1.27567e-06 2.00563e-05 1.83527e-05 1.96602e-05 9.8844e-13 -8.29587e-12 -5.49559e-12 2.43515e-06 -2.04379e-05 -1.35391e-05 
3 3 1.21616e-06 1.99963e-05 2.00372e-05 1.98531e-05 4.19116e-12 -9.05368e-12 -6.8192e-13 5.0977e-05 -0.00011012 -8.29419e-06 
9 1 1.32689e-06 1.9753e-05 2.1497e-05 1.96583e-05 4.10825e-12 -6.97224e-12 5.87453e-12 2.71564e-05 -4.60879e-05 3.88318e-05 
7 2 1.20207e-06 1.9946e-05 1.92783e-05 2.02734e-05 -1.12569e-12 -9.62105e-12 2.4836e-12 -7.40764e-06 -6.33115e-05 1.63434e-05 
1 1 1.31182e-06 2.03138e-05 2.07231e-05 2.03949e-05 5.85387e-12 7.29124e-12 3.54542e-12 7.41832e-05 9.23983e-05 4.49294e-05 
6 4 8.99483e-07 1.99012e-05 2.21215e-05 2.0605e-05 -8.315e-13 8.58819e-12 5.05485e-12 0 0 0 
5 5 1.4839e-06 1.99769e-05 2.00007e-05 2.11668e-05 -7.21046e-12 -3.57422e-12 5.93583e-12 -7.14733e-05 -3.54293e-05 5.88386e-05 
10 4 9.57199e-07 1.98367e-05 2.03143e-05 1.9735e-05 -5.83486e-12 6.36465e-12 -5.04437e-12 -9.3757e-05 0.00010227 -8.1055e-05 
11 4 9.49997e-07 2.07803e-05 2.03232e-05 2.14375e-05 8.8576e-12 3.55506e-12 2.98404e-12 5.48993e-05 2.20342e-05 1.8495e-05 
ITEM: TIMESTEP
20000
ITEM: NUMBER OF ATOMS
11
ITEM: BOX BOUNDS ff ff ff
1e-05 3e-05
1e-05 3e-05
0 4e-05
ITEM: ATOMS id type diameter x y z vx vy vz fx fy fz 
4 4 1.04017e-06 2.00012e-05 1.99917e-05 1.88003e-05 -3.38703e-14 -2.61385e-13 -9.99653e-12 -5.99308e-08 -4.625e-07 -1.7688e-05 
8 4 9.80249e-07 1.94423e-05 2.19968e-05 1.92241e-05 -4.24136e-12 6.84078e-12 -5.9342e-12 -3.68639e-05 5.94569e-05 -5.15773e-05 
2 2 1.30379e-06 2.00583e-05 1.83362e-05 1.96491e-05 1.02092e-12 -8.21699e-12 -5.60703e-12 2.91689e-06 -2.34768e-05 -1.60199e-05 
3 3 1.23905e-06 2.00048e-05 2.00192e-05 1.9851e-05 4.26924e-12 -8.94381e-12 -1.33486e-12 5.05263e-05 -0.00010585 -1.5798e-05 
9 1 1.39146e-06 1.9761e-05 2.14828e-05 1.96699e-05 3.95522e-12 -6.98315e-12 5.96589e-12 1.81665e-05 -3.20739e-05 2.74016e-05 
7 2 1.22857e-06 1.99436e-05 1.92592e-05 2.0279e-05 -1.27014e-12 -9.41497e-12 3.12171e-12 -8.58064e-06 -6.36043e-05 2.10892e-05 
1 1 1.37566e-06 2.0326e-05 2.07368e-05 2.04027e-05 6.37111e-12 6.44269e-12 4.23092e-12 8.50742e-05 8.60299e-05 5.64959e-05 
6 4 8.98304e-07 1.98995e-05 2.21386e-05 2.06151e-05 -8.315e-13 8.58819e-12 5.05485e-12 0 0 0 
5 5 1.4839e-06 1.99627e-05 1.99936e-05 2.1179e-05 -6.94932e-12 -3.49514e-12 6.28418e-12 -6.79185e-05 -3.41595e-05 6.14179e-05 
10 4 9.55944e-07 1.9825e-05 2.03268e-05 1.97248e-05 -5.98051e-12 6.07869e-12 -5.22331e-12 -9.26948e-05 9.42165e-05 -8.09586e-05 
11 4 9.48752e-07 2.07981e-05 2.03303e-05 2.14433e-05 8.8999e-12 3.58694e-12 2.81526e-12 4.9434e-05 1.99235e-05 1.56372e-05 
ITEM: TIMESTEP
22000
ITEM: NUMBER OF ATOMS
13
ITEM: BOX BOUNDS ff ff ff
1e-05 3e-05
1e-05 3e-05
0 4e-05
ITEM: ATOMS id type diameter x y z vx vy vz fx fy fz 
4 4 1.0388e-06 2.0001e-05 1.99914e-05 1.87803e-05 -1.24174e-13 -9.94419e-14 -9.99873e-12 -1.88889e-07 -1.51268e-07 -1.52098e-05 
8 4 9.78964e-07 1.9432e-05 2.19896e-05 1.92086e-05 -5.17505e-12 -3.58965e-12 -7.76745e-12 -5.6894e-05 -3.94643e-05 -8.53946e-05 
2 2 1.33252e-06 2.00604e-05 1.83199e-05 1.96378e-05 1.05496e-12 -8.1327e-12 -5.72244e-12 3.41732e-06 -2.63442e-05 -1.85367e-05 
10 4 9.54691e-07 1.98095e-05 2.03184e-05 1.97153e-05 -7.72569e-12 -4.28111e-12 -4.68891e-12 -9.67287e-05 -5.36012e-05 -5.8707e-05 
3 3 1.26236e-06 2.00144e-05 2.0002e-05 1.98547e-05 5.04182e-12 -8.46741e-12 1.69798e-12 9.03116e-05 -0.000151672 3.0415e-05 
12 1 1.11015e-06 1.97994e-05 2.08519e-05 1.9716e-05 -8.25174e-12 4.7666e-12 -3.03122e-12 -0.000161068 9.30403e-05 -5.91671e-05 
1 1 1.18516e-06 2.00769e-05 2.09745e-05 1.98118e-05 6.81089e-12 6.9711e-12 2.23952e-12 0.000174452 0.000178555 5.73623e-05 
9 1 1.20247e-06 1.9712e-05 2.21838e-05 1.96288e-05 5.29059e-12 3.7517e-12 7.61147e-12 5.59663e-05 3.96872e-05 8.05177e-05 
7 2 1.25565e-06 1.9941e-05 1.92406e-05 2.02857e-05 -1.40829e-12 -9.24426e-12 3.54406e-12 -9.94921e-06 -6.53085e-05 2.50379e-05 
13 1 1.10179e-06 2.05744e-05 2.05419e-05 2.09414e-05 2.14749e-12 6.4267e-12 -7.3543e-12 2.75996e-05 8.25962e-05 -9.45177e-05 
6 4 8.97126e-07 1.99033e-05 2.21378e-05 2.06347e-05 1.86696e-12 -4.48509e-13 9.81393e-12 9.2776e-07 -2.2288e-07 4.8769e-06 
5 5 1.4839e-06 1.99457e-05 1.99861e-05 2.11863e-05 -8.44313e-12 -3.64922e-12 3.92388e-12 -0.000104361 -4.51061e-05 4.8501e-05 
11 4 9.47508e-07 2.08116e-05 2.03285e-05 2.14579e-05 6.66144e-12 -1.04541e-12 7.3846e-12 7.65156e-05 -1.2008e-05 8.48221e-05 
ITEM: TIMESTEP
24000
ITEM: NUMBER OF ATOMS
13
ITEM: BOX BOUNDS ff ff ff
1e-05 3e-05
1e-05 3e-05
0 4e-05
ITEM: ATOMS id type diameter x y z vx vy vz fx fy fz 
4 4 1.03744e-06 2.00007e-05 1.99913e-05 1.87603e-05 -2.2048e-13 5.45156e-14 -9.99742e-12 -2.82049e-07 6.97389e-08 -1.27892e-05 
8 4 9.77681e-07 1.94216e-05 2.19824e-05 1.91931e-05 -5.18158e-12 -3.59874e-12 -7.75889e-12 -5.57878e-05 -3.87461e-05 -8.35366e-05 
2 2 1.3619e-06 2.00626e-05 1.83037e-05 1.96263e-05 1.09063e-12 -8.04399e-12 -5.83993e-12 3.94043e-06 -2.90628e-05 -2.10996e-05 
10 4 9.53439e-07 1.97941e-05 2.03097e-05 1.97061e-05 -7.66342e-12 -4.48892e-12 -4.59582e-12 -0.000100798 -5.90432e-05 -6.04493e-05 
3 3 1.28612e-06 2.00249e-05 1.99853e-05 1.98578e-05 5.47028e-12 -8.24507e-12 1.44739e-12 9.66127e-05 -0.000145619 2.5563e-05 
12 1 1.16417e-06 1.97829e-05 2.08615e-05 1.971e-05 -8.26295e-12 4.77105e-12 -2.99344e-12 -0.000168484 9.72831e-05 -6.10372e-05 
1 1 1.24284e-06 2.00907e-05 2.09882e-05 1.98164e-05 6.96883e-12 6.78966e-12 2.30997e-12 0.000181503 0.000176836 6.0163e-05 
9 1 1.26098e-06 1.97227e-05 2.21915e-05 1.96439e-05 5.42832e-12 3.94811e-12 7.41254e-12 5.40011e-05 3.92759e-05 7.37401e-05 
7 2 1.28333e-06 1.9938e-05 1.92223e-05 2.02932e-05 -1.56033e-12 -9.0587e-12 3.93767e-12 -1.15358e-05 -6.69727e-05 2.91119e-05 
13 1 1.15541e-06 2.05787e-05 2.05547e-05 2.09267e-05 2.14949e-12 6.3868e-12 -7.3884e-12 2.73682e-05 8.13193e-05 -9.4072e-05 
6 4 8.9595e-07 1.9907e-05 2.21368e-05 2.06543e-05 1.79173e-12 -5.31226e-13 9.82382e-12 1.78676e-06 -5.29751e-07 9.79655e-06 
5 5 1.4839e-06 1.9929e-05 1.99791e-05 2.11947e-05 -8.27906e-12 -3.41289e-12 4.45078e-12 -9.8285e-05 -4.05161e-05 5.28375e-05 
11 4 9.46266e-07 2.08247e-05 2.03261e-05 2.14728e-05 6.44436e-12 -1.31672e-12 7.53236e-12 6.99604e-05 -1.42944e-05 8.17718e-05 
ITEM: TIMESTEP
26000
ITEM: NUMBER OF ATOMS
18
ITEM: BOX BOUNDS ff ff ff
1e-05 3e-05
1e-05 3e-05
0 4e-05
ITEM: ATOMS id type diameter x y z vx vy vz fx fy fz 
4 4 1.03608e-06 2.00001e-05 1.99915e-05 1.87403e-05 -3.28099e-13 1.72409e-13 -9.99313e-12 -3.91952e-07 2.05962e-07 -1.19379e-05 
8 4 9.764e-07 1.94087e-05 2.19754e-05 1.91796e-05 -6.44349e-12 -3.50433e-12 -6.79714e-12 -5.40436e-05 -2.93919e-05 -5.70098e-05 
2 2 1.03463e-06 2.04318e-05 1.81126e-05 1.99382e-05 7.07367e-12 -3.45292e-12 6.1677e-12 0 0 0 
10 4 9.52189e-07 1.97789e-05 2.0303e-05 1.96952e-05 -7.55771e-12 -2.21532e-12 -6.16225e-12 -0.000118431 -3.47146e-05 -9.65642e-05 
3 3 1.31032e-06 2.00367e-05 1.99724e-05 1.9853e-05 6.24657e-12 -4.8444e-12 -6.12472e-12 0.000120746 -9.36425e-05 -0.000118391 
12 1 1.22082e-06 1.97664e-05 2.0871e-05 1.97041e-05 -8.26339e-12 4.81741e-12 -2.91701e-12 -0.000176677 0.000102999 -6.23676e-05 
1 1 1.30332e-06 2.01049e-05 2.10015e-05 1.98211e-05 7.28775e-12 6.38968e-12 2.46187e-12 0.000191809 0.000168172 6.47949e-05 
9 1 1.32235e-06 1.97335e-05 2.22002e-05 1.96582e-05 5.23553e-12 5.05164e-12 6.86077e-12 4.99824e-05 4.82268e-05 6.54982e-05 
7 2 1.31162e-06 1.99356e-05 1.92033e-05 2.0298e-05 -8.44467e-13 -9.93184e-12 8.03328e-13 -1.78469e-05 -0.000209899 1.69775e-05 
13 1 1.21164e-06 2.0583e-05 2.05674e-05 2.09119e-05 2.15902e-12 6.33769e-12 -7.42781e-12 2.7375e-05 8.03579e-05 -9.41798e-05 
6 4 8.94776e-07 1.99105e-05 2.21357e-05 2.0674e-05 1.71346e-12 -6.24811e-13 9.83228e-12 2.58595e-06 -9.42964e-07 1.48389e-05 
5 5 1.4839e-06 1.99144e-05 1.99739e-05 2.12068e-05 -6.34339e-12 -1.80885e-12 7.51595e-12 -9.7712e-05 -2.78631e-05 0.000115774 
11 4 9.45026e-07 2.08374e-05 2.03232e-05 2.1488e-05 6.22542e-12 -1.5816e-12 7.66438e-12 6.42068e-05 -1.63121e-05 7.90477e-05 
14 4 9.59415e-07 1.89693e-05 2.12369e-05 1.90053e-05 -5.01087e-12 -8.42267e-12 -1.98739e-12 -9.1376e-06 -1.53592e-05 -3.62411e-06 
15 4 9.38812e-07 1.96922e-05 2.22081e-05 1.84224e-05 3.37019e-12 2.76681e-12 -8.99925e-12 7.83504e-06 6.43231e-06 -2.09215e-05 
16 2 1.16697e-06 1.965e-05 1.84942e-05 1.92566e-05 -7.07367e-12 3.45292e-12 -6.1677e-12 0 0 0 
17 4 1.06505e-06 1.99868e-05 1.98276e-05 2.02592e-05 8.76582e-13 1.96385e-12 9.76601e-12 9.69976e-06 2.17309e-05 0.000108065 
18 4 8.80492e-07 2.14747e-05 2.06959e-05 2.02225e-05 2.15222e-12 6.36664e-12 -7.40499e-12 0 0 0 
ITEM: TIMESTEP
28000
ITEM: NUMBER OF ATOMS
18
ITEM: BOX BOUNDS ff ff ff
1e-05 3e-05
1e-05 3e-05
0 4e-05
ITEM: ATOMS id type diameter x y z vx vy vz fx fy fz 
4 4 1.03472e-06 1.99994e-05 1.9992e-05 1.87203e-05 -4.4476e-13 2.63444e-13 -9.98663e-12 -5.56789e-07 3.29801e-07 -1.25021e-05 
8 4 9.7512e-07 1.93959e-05 2.19683e-05 1.91659e-05 -6.31696e-12 -3.51315e-12 -6.91042e-12 -5.36476e-05 -2.98359e-05 -5.86877e-05 
2 2 1.05744e-06 2.04459e-05 1.81057e-05 1.99505e-05 7.07367e-12 -3.45292e-12 6.1677e-12 0 0 0 
10 4 9.50941e-07 1.97637e-05 2.0298e-05 1.96833e-05 -7.63653e-12 -2.79566e-12 -5.8196e-12 -0.000122667 -4.49074e-05 -9.34816e-05 
3 3 1.33498e-06 2.00493e-05 1.99624e-05 1.98411e-05 6.3577e-12 -5.08193e-12 -5.80979e-12 0.000130093 -0.000103988 -0.000118882 
12 1 1.28024e-06 1.97498e-05 2.08808e-05 1.96984e-05 -8.27079e-12 4.89274e-12 -2.76679e-12 -0.000184063 0.000108886 -6.15736e-05 
1 1 1.36675e-06 2.01198e-05 2.1014e-05 1.98259e-05 7.54329e-12 6.18503e-12 2.20093e-12 0.000198549 0.000162798 5.79315e-05 
9 1 1.3867e-06 1.97435e-05 2.22117e-05 1.96711e-05 4.71501e-12 6.45646e-12 6.00689e-12 4.49502e-05 6.15521e-05 5.72662e-05 
7 2 1.34053e-06 1.99338e-05 1.91835e-05 2.02996e-05 -9.02656e-13 -9.92946e-12 7.68807e-13 -1.89521e-05 -0.000208478 1.61418e-05 
13 1 1.2706e-06 2.05881e-05 2.05803e-05 2.08975e-05 3.0403e-12 6.67011e-12 -6.80193e-12 3.56332e-05 7.81756e-05 -7.97206e-05 
6 4 8.93603e-07 1.99139e-05 2.21343e-05 2.06937e-05 1.63899e-12 -7.44755e-13 9.83662e-12 3.29893e-06 -1.49903e-06 1.9799e-05 
5 5 1.4839e-06 1.99018e-05 1.99703e-05 2.12219e-05 -6.2322e-12 -1.76016e-12 7.61981e-12 -9.39218e-05 -2.65264e-05 0.000114834 
11 4 9.43787e-07 2.08496e-05 2.03198e-05 2.15035e-05 5.99878e-12 -1.84447e-12 7.78541e-12 5.9164e-05 -1.81914e-05 7.6785e-05 
14 4 9.58158e-07 1.89592e-05 2.12202e-05 1.90013e-05 -5.72626e-12 -7.76121e-12 -2.64074e-12 -1.00893e-05 -1.36748e-05 -4.65283e-06 
15 4 9.37581e-07 1.96991e-05 2.22138e-05 1.84045e-05 3.54462e-12 2.86895e-12 -8.89971e-12 7.15049e-06 5.78747e-06 -1.79532e-05 
16 2 1.19269e-06 1.96359e-05 1.85011e-05 1.92442e-05 -7.07367e-12 3.45292e-12 -6.1677e-12 0 0 0 
17 4 1.06365e-06 1.99882e-05 1.98324e-05 2.02786e-05 4.64419e-13 2.71526e-12 9.6131e-12 5.05799e-06 2.95719e-05 0.000104696 
18 4 8.79338e-07 2.1479e-05 2.07086e-05 2.02077e-05 2.15222e-12 6.36664e-12 -7.40499e-12 0 0 0 
ITEM: TIMESTEP
30000
ITEM: NUMBER OF ATOMS
20
ITEM: BOX BOUNDS ff ff ff
1e-05 3e-05
1e-05 3e-05
0 4e-05
ITEM: ATOMS id type diameter x y z vx vy vz fx fy fz 
4 4 1.03337e-06 1.99984e-05 1.99926e-05 1.87003e-05 -5.80599e-13 3.11635e-13 -9.97827e-12 -7.67691e-07 4.12056e-07 -1.31937e-05 
8 4 9.73841e-07 1.93844e-05 2.19815e-05 1.91562e-05 -6.001e-12 5.54537e-12 -5.76514e-12 -1.58058e-05 1.46058e-05 -1.51846e-05 
2 2 1.08075e-06 2.04601e-05 1.80987e-05 1.99629e-05 7.07367e-12 -3.45292e-12 6.1677e-12 0 0 0 
10 4 9.49695e-07 1.97475e-05 2.02977e-05 1.96715e-05 -8.20803e-12 -7.64424e-13 -5.66073e-12 -0.000100192 -9.33103e-06 -6.90983e-05 
3 3 1.3601e-06 2.0064e-05 1.99573e-05 1.98285e-05 7.4581e-12 -2.67503e-12 -6.10091e-12 0.000144629 -5.18749e-05 -0.00011831 
12 1 1.34254e-06 1.97309e-05 2.0887e-05 1.96972e-05 -9.56704e-12 2.85543e-12 -5.64176e-13 -0.000110743 3.3053e-05 -6.53062e-06 
1 1 1.18524e-06 2.01388e-05 2.10223e-05 2.05044e-05 -5.95954e-13 7.08713e-12 7.02976e-12 -3.59206e-06 4.2717e-05 4.23712e-05 
9 1 1.07587e-06 1.98078e-05 2.28118e-05 1.94625e-05 4.31496e-12 8.46362e-12 3.12222e-12 3.78125e-06 7.41677e-06 2.73604e-06 
7 2 1.37007e-06 1.9932e-05 1.91636e-05 2.03011e-05 -9.56081e-13 -9.92684e-12 7.37421e-13 -1.98269e-05 -0.00020586 1.52924e-05 
13 1 1.33244e-06 2.06057e-05 2.05858e-05 2.08899e-05 9.03808e-12 2.4853e-12 -3.48373e-12 9.91193e-05 2.7256e-05 -3.82056e-05 
6 4 8.92431e-07 1.99186e-05 2.21459e-05 2.07093e-05 2.42216e-12 5.74473e-12 7.81864e-12 2.43696e-06 5.77982e-06 7.8664e-06 
5 5 1.4839e-06 1.98895e-05 1.99665e-05 2.12372e-05 -6.09894e-12 -1.91521e-12 7.68992e-12 -9.16841e-05 -2.87909e-05 0.000115601 
11 4 9.4255e-07 2.08612e-05 2.03158e-05 2.15193e-05 5.60737e-12 -2.13686e-12 7.99945e-12 5.43506e-05 -2.0712e-05 7.75364e-05 
14 4 9.56902e-07 1.89457e-05 2.12078e-05 1.89936e-05 -7.47625e-12 -4.51864e-12 -4.86698e-12 -1.27415e-05 -7.70097e-06 -8.29463e-06 
15 4 9.36352e-07 1.97064e-05 2.22194e-05 1.83867e-05 3.71175e-12 2.7431e-12 -8.87121e-12 6.51238e-06 4.81285e-06 -1.55648e-05 
16 2 1.21898e-06 1.96226e-05 1.85064e-05 1.92315e-05 -2.39287e-12 -5.08341e-12 -8.27243e-12 -7.83233e-08 -1.6639e-07 -2.70772e-07 
17 4 1.06226e-06 1.99885e-05 1.98384e-05 2.02976e-05 -1.7466e-13 3.2725e-12 9.44776e-12 -1.81059e-06 3.3924e-05 9.79389e-05 
18 4 8.78185e-07 2.14833e-05 2.07214e-05 2.01929e-05 2.15222e-12 6.36664e-12 -7.40499e-12 0 0 0 
19 1 1.08555e-06 2.01126e-05 2.10226e-05 1.92009e-05 5.89446e-12 1.35982e-12 -7.9628e-12 8.76492e-05 2.02201e-05 -0.000118405 
20 1 1.22311e-06 1.96746e-05 2.15671e-05 1.99216e-05 -2.80376e-12 9.12712e-12 2.97232e-12 -4.12367e-05 0.000134238 4.37158e-05 
ITEM: TIMESTEP
32000
ITEM: NUMBER OF ATOMS
23
ITEM: BOX BOUNDS ff ff ff
1e-05 3e-05
1e-05 3e-05
0 4e-05
ITEM: ATOMS id type diameter x y z vx vy vz fx fy fz 
15 4 9.35125e-07 1.9714e-05 2.22248e-05 1.8369e-05 3.84638e-12 2.62904e-12 -8.84836e-12 5.9919e-06 4.09552e-06 -1.3784e-05 
4 4 1.03201e-06 1.99971e-05 1.99932e-05 1.86804e-05 -6.46226e-13 3.45193e-13 -9.97313e-12 0 0 0 
14 4 9.55647e-07 1.89325e-05 2.12011e-05 1.89806e-05 -5.45944e-12 -2.79839e-12 -7.89706e-12 -4.49327e-05 -2.30315e-05 -6.49951e-05 
16 2 1.24585e-06 1.96178e-05 1.84962e-05 1.9215e-05 -2.39287e-12 -5.08341e-12 -8.27243e-12 0 0 0 
19 1 1.13838e-06 2.01237e-05 2.10254e-05 1.91845e-05 5.07459e-12 1.56501e-12 -8.47345e-12 4.71096e-05 1.45286e-05 -7.86626e-05 
8 4 9.72565e-07 1.9377e-05 2.19945e-05 1.91441e-05 -1.49596e-12 7.72953e-12 -6.16575e-12 -1.13664e-05 5.87294e-05 -4.68477e-05 
9 1 1.12822e-06 1.98165e-05 2.28286e-05 1.94689e-05 4.40699e-12 8.36487e-12 3.2569e-12 4.69126e-06 8.90444e-06 3.46699e-06 
2 2 1.10457e-06 2.04742e-05 1.80918e-05 1.99752e-05 7.07367e-12 -3.45292e-12 6.1677e-12 0 0 0 
21 2 1.04736e-06 2.03464e-05 1.9205e-05 1.9985e-05 5.62016e-12 -7.82439e-12 -2.68194e-12 4.65304e-05 -6.47796e-05 -2.22043e-05 
3 3 1.02949e-06 2.05048e-05 2.0114e-05 1.95847e-05 7.45162e-12 -3.9796e-12 -5.35128e-12 0.000113909 -6.0834e-05 -8.18022e-05 
10 4 9.4845e-07 1.97317e-05 2.02991e-05 1.96599e-05 -7.56702e-12 2.43529e-12 -6.06709e-12 -0.000127359 4.09881e-05 -0.000102114 
12 1 1.13207e-06 2.01798e-05 2.04336e-05 1.98944e-05 5.45358e-12 8.29621e-12 1.1964e-12 6.55483e-05 9.97147e-05 1.43799e-05 
20 1 1.28264e-06 1.96745e-05 2.15829e-05 1.99314e-05 2.62554e-12 6.86082e-12 6.78496e-12 2.9736e-05 7.77033e-05 7.68441e-05 
17 4 1.06086e-06 1.99933e-05 1.98361e-05 2.03146e-05 6.82408e-12 -1.57478e-12 7.13807e-12 7.88779e-05 -1.82025e-05 8.25072e-05 
18 4 8.77034e-07 2.14914e-05 2.07306e-05 2.01789e-05 7.68966e-12 1.24153e-12 -6.27119e-12 1.51849e-06 2.45166e-07 -1.23838e-06 
7 2 1.16881e-06 1.9472e-05 1.90809e-05 2.06511e-05 -3.45285e-12 -9.05989e-12 2.44871e-12 -3.44762e-05 -9.04615e-05 2.445e-05 
13 1 1.39728e-06 2.06245e-05 2.05906e-05 2.08858e-05 9.70271e-12 2.37594e-12 -4.60726e-13 0.000123693 3.02891e-05 -5.87346e-06 
1 1 1.24292e-06 2.01338e-05 2.10377e-05 2.05146e-05 -4.41975e-12 8.31032e-12 3.37704e-12 -4.01734e-05 7.55369e-05 3.06957e-05 
6 4 8.91262e-07 1.99235e-05 2.21573e-05 2.07249e-05 2.4634e-12 5.68319e-12 7.85067e-12 3.75426e-06 8.66127e-06 1.19645e-05 
5 5 1.4839e-06 1.9879e-05 1.99632e-05 2.12539e-05 -4.83868e-12 -1.48249e-12 8.62493e-12 -7.07496e-05 -2.16765e-05 0.000126111 
11 4 9.41314e-07 2.0872e-05 2.03113e-05 2.15355e-05 5.19494e-12 -2.42527e-12 8.19333e-12 5.02347e-05 -2.34522e-05 7.9229e-05 
22 3 1.16216e-06 1.95808e-05 1.97657e-05 2.00818e-05 -9.15486e-12 -2.66584e-12 -3.01362e-12 -0.000177118 -5.15758e-05 -5.83042e-05 
23 1 1.10239e-06 1.92733e-05 2.1335e-05 1.9508e-05 -6.80565e-12 -6.80194e-12 2.72337e-12 -6.54184e-05 -6.53828e-05 2.6178e-05 
ITEM: TIMESTEP
34000
ITEM: NUMBER OF ATOMS
28
ITEM: BOX BOUNDS ff ff ff
1e-05 3e-05
1e-05 3e-05
0 4e-05
ITEM: ATOMS id type diameter x y z vx vy vz fx fy fz 
15 4 9.33899e-07 1.97217e-05 2.22299e-05 1.83513e-05 3.92549e-12 2.53648e-12 -8.84063e-12 5.72489e-06 3.69917e-06 -1.28931e-05 
4 4 1.03066e-06 1.99958e-05 1.99939e-05 1.86604e-05 -6.46226e-13 3.45193e-13 -9.97313e-12 0 0 0 
14 4 9.54395e-07 1.89218e-05 2.11961e-05 1.89644e-05 -5.22666e-12 -2.26006e-12 -8.22035e-12 -4.27997e-05 -1.8507e-05 -6.73142e-05 
16 2 1.27331e-06 1.9613e-05 1.84861e-05 1.91984e-05 -2.39287e-12 -5.08341e-12 -8.27243e-12 0 0 0 
19 1 1.19378e-06 2.01306e-05 2.1027e-05 1.91662e-05 1.90253e-12 8.18642e-14 -9.81701e-12 2.958e-05 1.2728e-06 -0.000152632 
8 4 9.7129e-07 1.93764e-05 2.20068e-05 1.9129e-05 9.32243e-13 4.56407e-12 -8.84874e-12 7.08625e-06 3.46928e-05 -6.72619e-05 
9 1 1.18313e-06 1.98271e-05 2.28444e-05 1.94745e-05 6.21163e-12 7.45877e-12 2.40466e-12 1.04711e-05 1.25734e-05 4.05359e-06 
2 2 1.12892e-06 2.04884e-05 1.80849e-05 1.99876e-05 7.07367e-12 -3.45292e-12 6.1677e-12 0 0 0 
21 2 1.07044e-06 2.03575e-05 1.91892e-05 1.99797e-05 5.46294e-12 -7.94759e-12 -2.64425e-12 4.43878e-05 -6.45761e-05 -2.14852e-05 
3 3 1.04887e-06 2.0516e-05 2.01046e-05 1.95711e-05 5.41956e-12 -4.92142e-12 -6.81234e-12 9.19764e-05 -8.35223e-05 -0.000115614 
10 4 9.47207e-07 1.97164e-05 2.03036e-05 1.96478e-05 -7.74295e-12 1.98804e-12 -6.00787e-12 -0.000123695 3.17592e-05 -9.59767e-05 
12 1 1.18716e-06 2.018e-05 2.04531e-05 1.98941e-05 -2.23772e-12 9.60312e-12 -1.66516e-12 -1.4575e-05 6.25483e-05 -1.08457e-05 
20 1 1.34505e-06 1.96753e-05 2.15977e-05 1.99441e-05 -1.80342e-12 7.91969e-12 5.8332e-12 -2.62203e-05 0.000115146 8.48104e-05 
17 4 1.05947e-06 2.00072e-05 1.98349e-05 2.0329e-05 6.90689e-12 -7.28577e-13 7.19473e-12 8.28142e-05 -8.73571e-06 8.62655e-05 
18 4 8.75884e-07 2.15095e-05 2.07384e-05 2.01757e-05 9.02555e-12 3.95548e-12 -1.70107e-12 5.77746e-05 2.53199e-05 -1.08889e-05 
7 2 1.19457e-06 1.94651e-05 1.90627e-05 2.0656e-05 -3.35889e-12 -9.0805e-12 2.50246e-12 -3.34765e-05 -9.05012e-05 2.49408e-05 
13 1 1.20331e-06 2.03712e-05 2.0752e-05 2.15512e-05 -1.20762e-12 8.76438e-12 4.66126e-12 -1.37934e-05 0.000100106 5.32407e-05 
1 1 1.3034e-06 2.01296e-05 2.10468e-05 2.05315e-05 -3.98431e-12 4.40792e-12 8.04336e-12 -6.22317e-05 6.88482e-05 0.000125631 
6 4 8.90093e-07 1.99285e-05 2.21687e-05 2.07407e-05 2.50074e-12 5.64038e-12 7.86971e-12 5.27086e-06 1.18883e-05 1.65871e-05 
5 5 1.4839e-06 1.98687e-05 1.99565e-05 2.12697e-05 -5.07435e-12 -3.50432e-12 7.87215e-12 -4.98179e-05 -3.44039e-05 7.72854e-05 
11 4 9.4008e-07 2.08895e-05 2.03017e-05 2.15364e-05 8.66486e-12 -4.97863e-12 3.65317e-13 7.68238e-05 -4.41412e-05 3.23895e-06 
22 3 1.18403e-06 1.95625e-05 1.97603e-05 2.00758e-05 -9.15919e-12 -2.71328e-12 -2.95758e-12 -0.000172383 -5.1066e-05 -5.56639e-05 
23 1 1.15604e-06 1.92594e-05 2.13218e-05 1.95135e-05 -7.09445e-12 -6.49876e-12 2.7267e-12 -7.55806e-05 -6.92344e-05 2.90489e-05 
24 1 1.11967e-06 2.08718e-05 2.04496e-05 2.02773e-05 8.06008e-12 -4.33763e-12 -4.02742e-12 0.000123039 -6.62151e-05 -6.14797e-05 
25 4 9.62673e-07 1.8879e-05 2.24739e-05 1.99963e-05 1.26336e-12 2.7264e-13 9.91613e-12 1.39674e-05 3.01425e-06 0.000109631 
26 4 1.02179e-06 1.88235e-05 2.24619e-05 1.95606e-05 -3.91939e-12 1.24663e-12 -9.11506e-12 -3.98473e-05 1.26741e-05 -9.26702e-05 
27 4 8.86936e-07 2.0766e-05 2.0518e-05 2.05249e-05 2.58511e-13 1.62537e-13 9.99534e-12 4.05513e-06 2.54963e-06 0.000156792 
28 4 8.67113e-07 2.04117e-05 2.12671e-05 1.97748e-05 9.13024e-12 4.03289e-12 -6.11941e-13 0.000101448 4.48103e-05 -6.79941e-06 
ITEM: TIMESTEP
36000
ITEM: NUMBER OF ATOMS
31
ITEM: BOX BOUNDS ff ff ff
1e-05 3e-05
1e-05 3e-05
0 4e-05
ITEM: ATOMS id type diameter x y z vx vy vz fx fy fz 
15 4 9.32675e-07 1.97297e-05 2.2235e-05 1.83337e-05 3.98781e-12 2.53628e-12 -8.81276e-12 5.60512e-06 3.56491e-06 -1.23869e-05 
4 4 1.02931e-06 1.99945e-05 1.99946e-05 1.86405e-05 -6.46226e-13 3.45193e-13 -9.97313e-12 0 0 0 
14 4 9.53144e-07 1.891e-05 2.11998e-05 1.89515e-05 -6.55261e-12 5.9352e-12 -4.67299e-12 -4.2558e-05 3.85481e-05 -3.03502e-05 
16 2 1.30138e-06 1.96082e-05 1.84759e-05 1.91819e-05 -2.39287e-12 -5.08341e-12 -8.27243e-12 0 0 0 
19 1 1.25187e-06 2.01393e-05 2.10284e-05 1.91491e-05 6.62762e-12 1.30227e-12 -7.3742e-12 0.000125271 2.46146e-05 -0.000139383 