ITEM: TIMESTEP
0
ITEM: NUMBER OF ATOMS
5
ITEM: BOX BOUNDS ff ff ff
1e-05 3e-05
1e-05 3e-05
0 4e-05
ITEM: ATOMS id type diameter x y z vx vy vz fx fy fz 
4 4 1.0539e-06 2e-05 2e-05 1.9e-05 0 0 0 0 0 -8.22e-06 
2 2 1.2839e-06 2e-05 1.9e-05 2e-05 0 0 0 0 -3.122e-05 0 
3 3 1.0283e-06 2e-05 2e-05 2e-05 0 0 0 0 2e-05 -4.3e-05 
1 1 1.0839e-06 2e-05 2.1e-05 2e-05 0 0 0 0 1.122e-05 0 
5 5 1.4839e-06 2e-05 2e-05 2.1e-05 0 0 0 0 0 5.122e-05 
ITEM: TIMESTEP
2000
ITEM: NUMBER OF ATOMS
6
ITEM: BOX BOUNDS ff ff ff
1e-05 3e-05
1e-05 3e-05
0 4e-05
ITEM: ATOMS id type diameter x y z vx vy vz fx fy fz 
4 4 1.05252e-06 2e-05 1.99999e-05 1.898e-05 0 -7.99285e-14 -9.99968e-12 0 -7.32861e-08 -9.16866e-06 
2 2 1.30593e-06 2e-05 1.898e-05 2.00002e-05 0 -9.99837e-12 1.80329e-13 0 -2.92221e-05 5.27045e-07 
3 3 1.04252e-06 2e-05 2.00079e-05 1.99816e-05 0 3.60987e-12 -9.32571e-12 0 1.4169e-05 -3.66042e-05 
1 1 1.13673e-06 2e-05 2.102e-05 2.00002e-05 0 9.99832e-12 1.83172e-13 0 1.54729e-05 2.83467e-07 
5 5 1.4839e-06 2e-05 1.99999e-05 2.102e-05 0 -7.70836e-14 9.9997e-12 0 -3.46597e-07 4.49624e-05 
6 4 9.08972e-07 1.99096e-05 2.19756e-05 2.05541e-05 0 1e-11 0 0 0 0 
ITEM: TIMESTEP
4000
ITEM: NUMBER OF ATOMS
6
ITEM: BOX BOUNDS ff ff ff
1e-05 3e-05
1e-05 3e-05
0 4e-05
ITEM: ATOMS id type diameter x y z vx vy vz fx fy fz 
4 4 1.05114e-06 2e-05 1.99997e-05 1.896e-05 0 -1.42739e-13 -9.99898e-12 0 -1.3099e-07 -9.17592e-06 
2 2 1.31228e-06 2e-05 1.896e-05 2.00007e-05 0 -9.99347e-12 3.61417e-13 0 -2.48782e-05 8.99728e-07 
3 3 1.04604e-06 2e-05 2.0014e-05 1.99626e-05 0 2.30987e-12 -9.72957e-12 0 7.09861e-06 -2.99005e-05 
1 1 1.19156e-06 2e-05 2.104e-05 2.00007e-05 0 9.9931e-12 3.71409e-13 0 1.84082e-05 6.84167e-07 
5 5 1.4839e-06 2e-05 1.99997e-05 2.104e-05 0 -1.32699e-13 9.99912e-12 0 -4.97567e-07 3.74925e-05 
6 4 9.0778e-07 1.99096e-05 2.19956e-05 2.05541e-05 0 1e-11 0 0 0 0 
ITEM: TIMESTEP
6000
ITEM: NUMBER OF ATOMS
6
ITEM: BOX BOUNDS ff ff ff
1e-05 3e-05
1e-05 3e-05
0 4e-05
ITEM: ATOMS id type diameter x y z vx vy vz fx fy fz 
4 4 1.04976e-06 2e-05 1.99994e-05 1.894e-05 0 -1.71531e-13 -9.99853e-12 0 -1.54191e-07 -8.98778e-06 
2 2 1.31228e-06 2e-05 1.894e-05 2.00016e-05 0 -9.98511e-12 5.45541e-13 0 -2.01713e-05 1.10207e-06 
3 3 1.04604e-06 2e-05 2.00166e-05 1.99428e-05 0 1.12297e-13 -9.99937e-12 0 2.56041e-07 -2.27988e-05 
1 1 1.24963e-06 2e-05 2.106e-05 2.00017e-05 0 9.98413e-12 5.63223e-13 0 2.0523e-05 1.15774e-06 
5 5 1.4839e-06 2e-05 1.99994e-05 2.106e-05 0 -1.53593e-13 9.99882e-12 0 -4.53564e-07 2.95268e-05 
6 4 9.0659e-07 1.99096e-05 2.20156e-05 2.05541e-05 0 1e-11 0 0 0 0 
ITEM: TIMESTEP
8000
ITEM: NUMBER OF ATOMS
7
ITEM: BOX BOUNDS ff ff ff
1e-05 3e-05
1e-05 3e-05
0 4e-05
ITEM: ATOMS id type diameter x y z vx vy vz fx fy fz 
4 4 1.04838e-06 2e-05 1.9999e-05 1.892e-05 1.04497e-22 -1.47898e-13 -9.99891e-12 9.20265e-17 -1.30248e-07 -8.80568e-06 
2 2 1.31228e-06 2e-05 1.89201e-05 2.00029e-05 9.55843e-23 -9.97347e-12 7.27876e-13 1.57601e-16 -1.64445e-05 1.20014e-06 
3 3 1.04604e-06 2e-05 2.00139e-05 1.99231e-05 -8.95178e-19 -2.96701e-12 -9.5497e-12 -1.46331e-12 -4.85005e-06 -1.56105e-05 
1 1 1.30965e-06 2e-05 2.10799e-05 2.0003e-05 3.97448e-15 9.97357e-12 7.26523e-13 8.61128e-09 2.16092e-05 1.57411e-06 
5 5 1.4839e-06 2e-05 1.99991e-05 2.108e-05 9.0603e-23 -1.27521e-13 9.99919e-12 1.95623e-16 -2.75333e-07 2.15895e-05 
6 4 9.05402e-07 1.99095e-05 2.20356e-05 2.05543e-05 -8.17311e-13 8.63284e-12 4.98058e-12 -8.60982e-09 9.09411e-08 5.2467e-08 
7 4 9.87585e-07 1.9485e-05 2.19081e-05 1.92827e-05 0 9.98413e-12 5.63223e-13 0 0 0 
ITEM: TIMESTEP
10000
ITEM: NUMBER OF ATOMS
7
ITEM: BOX BOUNDS ff ff ff
1e-05 3e-05
1e-05 3e-05
0 4e-05
ITEM: ATOMS id type diameter x y z vx vy vz fx fy fz 
4 4 1.04701e-06 2e-05 1.99988e-05 1.89e-05 2.70988e-17 -5.58568e-14 -9.99984e-12 2.21805e-11 -4.5719e-08 -8.18491e-06 
2 2 1.31228e-06 2e-05 1.89001e-05 2.00045e-05 2.45676e-17 -9.96011e-12 8.9234e-13 3.46054e-11 -1.40296e-05 1.25693e-06 
3 3 1.04604e-06 2e-05 2.00044e-05 1.99056e-05 -4.50543e-15 -6.4321e-12 -7.6569e-12 -5.37077e-09 -7.66748e-06 -9.12753e-06 
1 1 1.37253e-06 2.00003e-05 2.10999e-05 2.00033e-05 2.85765e-13 9.97985e-12 -5.66594e-13 4.8328e-07 1.68777e-05 -9.58212e-07 
5 5 1.4839e-06 2e-05 1.99989e-05 2.11e-05 2.27985e-17 -4.60612e-14 9.99989e-12 3.21707e-11 -6.49966e-08 1.41108e-05 
6 4 9.04215e-07 1.99079e-05 2.20528e-05 2.05644e-05 -8.32574e-13 8.58721e-12 5.05634e-12 -4.77999e-07 4.9301e-06 2.90295e-06 
7 4 9.8629e-07 1.9485e-05 2.19281e-05 1.92838e-05 0 9.98413e-12 5.63223e-13 0 0 0 
ITEM: TIMESTEP
12000
ITEM: NUMBER OF ATOMS
8
ITEM: BOX BOUNDS ff ff ff
1e-05 3e-05
1e-05 3e-05
0 4e-05
ITEM: ATOMS id type diameter x y z vx vy vz fx fy fz 
4 4 1.04564e-06 1.99989e-05 1.9989e-05 1.88827e-05 -5.65895e-13 -5.31053e-12 -8.45447e-12 -1.89091e-06 -1.77449e-05 -2.82503e-05 
7 4 9.84997e-07 1.9485e-05 2.19481e-05 1.92849e-05 0 9.98413e-12 5.63223e-13 0 0 0 
3 3 1.04604e-06 1.99977e-05 1.99862e-05 1.99135e-05 -1.18098e-12 -9.19363e-12 3.75265e-12 -9.91832e-06 -7.72117e-05 3.15162e-05 
1 1 1.17431e-06 2.00575e-05 2.05374e-05 1.96627e-05 1.06447e-12 9.83575e-12 -1.4577e-12 1.17571e-05 0.000108637 -1.61004e-05 
2 2 1.31228e-06 2e-05 1.88802e-05 2.00063e-05 2.11975e-14 -9.96498e-12 8.35888e-13 2.93631e-08 -1.38037e-05 1.15789e-06 
8 1 1.10657e-06 1.99501e-05 2.16314e-05 2.03111e-05 8.54773e-13 -8.53987e-12 -5.13224e-12 8.4001e-06 -8.39238e-05 -5.0436e-05 
6 4 9.0303e-07 1.99062e-05 2.20699e-05 2.05746e-05 -8.54773e-13 8.53987e-12 5.13224e-12 -8.4001e-06 8.39238e-05 5.0436e-05 
5 5 1.4839e-06 2e-05 1.9999e-05 2.112e-05 1.94853e-14 1.05907e-13 9.99942e-12 2.27534e-08 1.2367e-07 1.16766e-05 
ITEM: TIMESTEP
14000
ITEM: NUMBER OF ATOMS
8
ITEM: BOX BOUNDS ff ff ff
1e-05 3e-05
1e-05 3e-05
0 4e-05
ITEM: ATOMS id type diameter x y z vx vy vz fx fy fz 
4 4 1.04427e-06 1.99977e-05 1.99776e-05 1.88662e-05 -6.28458e-13 -5.88538e-12 -8.06023e-12 -1.91655e-06 -1.79481e-05 -2.45805e-05 
7 4 9.83706e-07 1.9485e-05 2.19681e-05 1.9286e-05 0 9.98413e-12 5.63223e-13 0 0 0 
3 3 1.04604e-06 1.99953e-05 1.99677e-05 1.99207e-05 -1.20043e-12 -9.25798e-12 3.58451e-12 -9.83471e-06 -7.58475e-05 2.93667e-05 
1 1 1.22995e-06 2.00596e-05 2.05571e-05 1.96599e-05 1.07107e-12 9.8477e-12 -1.36952e-12 1.16566e-05 0.000107174 -1.49047e-05 
2 2 1.31228e-06 2.00001e-05 1.88603e-05 2.00079e-05 4.32516e-14 -9.96906e-12 7.84831e-13 5.90624e-08 -1.36133e-05 1.07173e-06 
8 1 1.159e-06 1.99518e-05 2.16143e-05 2.03009e-05 8.54773e-13 -8.53987e-12 -5.13224e-12 8.15432e-06 -8.14683e-05 -4.89603e-05 
6 4 9.01846e-07 1.99045e-05 2.2087e-05 2.05849e-05 -8.54773e-13 8.53987e-12 5.13224e-12 -8.15432e-06 8.14683e-05 4.89603e-05 
5 5 1.4839e-06 2.00001e-05 1.99994e-05 2.114e-05 3.93333e-14 2.59445e-13 9.99656e-12 3.55964e-08 2.34796e-07 9.04682e-06 
ITEM: TIMESTEP
16000
ITEM: NUMBER OF ATOMS
8
ITEM: BOX BOUNDS ff ff ff
1e-05 3e-05
1e-05 3e-05
0 4e-05
ITEM: ATOMS id type diameter x y z vx vy vz fx fy fz 
4 4 1.0429e-06 1.99965e-05 1.99657e-05 1.88502e-05 -6.44604e-13 -6.02539e-12 -7.95482e-12 -1.94904e-06 -1.82185e-05 -2.40524e-05 
7 4 9.82417e-07 1.9485e-05 2.1988e-05 1.92872e-05 0 9.98413e-12 5.63223e-13 0 0 0 
3 3 1.04604e-06 1.99929e-05 1.99493e-05 1.9928e-05 -1.20337e-12 -9.1875e-12 3.76054e-12 -9.7606e-06 -7.45203e-05 3.0502e-05 
1 1 1.28776e-06 2.00618e-05 2.05768e-05 1.9657e-05 1.22805e-12 9.75334e-12 -1.8342e-12 1.23833e-05 9.83499e-05 -1.84955e-05 
2 2 1.31228e-06 2.00002e-05 1.88403e-05 2.00094e-05 6.58059e-14 -9.97298e-12 7.31733e-13 8.8465e-08 -1.3407e-05 9.83692e-07 
8 1 1.21346e-06 1.99535e-05 2.15973e-05 2.02906e-05 8.5008e-13 -8.54818e-12 -5.11918e-12 7.12574e-06 -7.16545e-05 -4.29111e-05 
6 4 9.00664e-07 1.99027e-05 2.2104e-05 2.05952e-05 -8.5474e-13 8.53993e-12 5.13215e-12 -7.92567e-06 7.91874e-05 4.75884e-05 
5 5 1.4839e-06 2.00002e-05 2e-05 2.116e-05 5.92011e-14 4.11716e-13 9.99135e-12 3.78325e-08 2.63107e-07 6.38497e-06 
