NUFEB Simulation 

       0 atoms 
       2 atom types 

       0   2e-05  xlo xhi 
       0   2e-05  ylo yhi 
       0   2e-05  zlo zhi 
 
