LAMMPS (5 Nov 2016)
# NUFEB simulation

atom_style	bio
atom_modify	map array sort 1000 5.0e-7
boundary	ff ff ff
newton		off
#processors  2 1 1

comm_modify	vel yes
read_data_bio atom.in
  orthogonal box = (0 0 0) to (0.0001 0.0001 0.0001)
  1 by 1 by 1 MPI processor grid
  reading atoms ...
  3 atoms
  10 nutrients

group HET type 1
1 atoms in group HET
group EPS type 2
1 atoms in group EPS
group AOB type 3
1 atoms in group AOB

neighbor	5.0e-7 bin
neigh_modify	delay 0 one 5000

#pair_style none
pair_style  gran/hooke/history 0.000200 NULL 0.000050 NULL 0.0 1

pair_coeff  * *
timestep 36

fix 1 all nve/limit 1e-8

#fix	 2 all gravity 1.47 vector 0 0 -1 # spherical 90.0 -180.0
#fix     3 all fdrag
fix 10 all viscous 0.1


fix xw all wall/gran hooke/history 2000 NULL 500.0 NULL 1.5 0 xplane  0.0   1.0e-04
fix yw all wall/gran hooke/history 2000 NULL 500.0 NULL 1.5 0 yplane  0.0   1.0e-04
fix zw all wall/gran hooke/history 2000 NULL 500.0 NULL 1.5 0 zplane  0.0   1.0e-04

variable kanc equal 50

fix xwa all walladh v_kanc xplane  0.0   1.0e-04
fix ywa all walladh v_kanc yplane  0.0   1.0e-04
fix zwa all walladh v_kanc zplane  0.0   1.0e-04

##############Ibm Variable Definitions##############

#Defining EPS density and ratio variables
variable EPSdens equal 180
variable EPSratio equal 1.25

variable ke equal 5e+10

#Defining kinetics variables
variable temp equal 298.15
variable gasTran equal 0.08205746
variable gvol equal 8e-14
variable rth equal 0.0083144
variable pressure equal 1
variable ph equal 7.0

#Defining diffusion variables
variable diffT equal 1e-3
variable tol equal 1e-6

##############Ibm functions##############

fix k1 all kinetics 1 1 1 v_temp v_rth v_gvol v_gasTran v_ph
fix g1 all diffusion exp v_diffT v_tol pp pp nd
fix ki3 all kinetics/ph 1
fix ki2 all kinetics/thermo 1 unfix open v_pressure
fix ki1 all kinetics/monod 1 v_EPSdens
fix d1 all divide 1 v_EPSdens 1 31231

fix j1 all epsadh 1 v_ke 1
fix e1 HET eps_extract 16 v_EPSratio v_EPSdens 1242242

##############Ibm compute##############

compute myMass all biomass
compute myNtypes all ntypes

##############Simulation outputs##############

dump		id all custom 50 snapshot.bubblemd id type diameter x y z
dump            d0 all bio 1 Conc DGRAn DGRCat ph biomass gas
thermo_style    custom step cpu atoms biomass c_myNtypes[*]
thermo		1
thermo_modify	lost ignore

run  5000
Neighbor list info ...
  3 neighbor list requests
  update every 1 steps, delay 0 steps, check yes
  max neighbors/atom: 5000, page size: 100000
  master list distance cutoff = 1.466e-06
  ghost atom cutoff = 1.466e-06
  binsize = 7.33e-07 -> bins = 137 137 137
Memory usage per processor = 20.2448 Mbytes
Step CPU Atoms biomass c_myNtypes[1] c_myNtypes[2] c_myNtypes[3] 
       0            0        3 3.723691e-16            1            1            1 
       1  0.016456127        3 3.7260606e-16            1            1            1 
       2  0.023195028        3 3.7280807e-16            1            1            1 
       3  0.029081106        3 3.730103e-16            1            1            1 
       4  0.033900976        3 3.7321274e-16            1            1            1 
       5  0.038644075        3 3.7341539e-16            1            1            1 
       6  0.043059111        3 3.7361824e-16            1            1            1 
       7  0.048876047        3 3.738213e-16            1            1            1 
       8  0.055337191        3 3.7402457e-16            1            1            1 
       9  0.059679985        3 3.7422805e-16            1            1            1 
      10  0.064553022        3 3.7443174e-16            1            1            1 
      11  0.070662975        3 3.7463563e-16            1            1            1 
      12  0.075167179        3 3.7483973e-16            1            1            1 
      13  0.079976082        3 3.7504404e-16            1            1            1 
      14  0.085206032        3 3.7524856e-16            1            1            1 
      15  0.089657068        3 3.7545329e-16            1            1            1 
      16  0.095309973        3 3.7565822e-16            1            1            1 
      17   0.10146117        3 3.7586337e-16            1            1            1 
      18   0.10521317        3 3.7606872e-16            1            1            1 
      19   0.11055207        3 3.7627429e-16            1            1            1 
      20   0.11686015        3 3.7648006e-16            1            1            1 
      21     0.120502        3 3.7668604e-16            1            1            1 
      22   0.12415504        3 3.7689224e-16            1            1            1 
      23   0.12771416        3 3.7709864e-16            1            1            1 
      24   0.13114405        3 3.7730525e-16            1            1            1 
      25   0.13573909        3 3.7751208e-16            1            1            1 
      26   0.14071798        3 3.7771911e-16            1            1            1 
      27   0.14550304        3 3.7792636e-16            1            1            1 
      28   0.14919519        3 3.7813382e-16            1            1            1 
      29   0.15492105        3 3.7834149e-16            1            1            1 
      30   0.16072297        3 3.7854937e-16            1            1            1 
      31   0.16587901        3 3.7875746e-16            1            1            1 
      32   0.16981602        3 3.7896576e-16            1            1            1 
      33   0.17335415        3 3.7917428e-16            1            1            1 
      34   0.17653108        3 3.7938301e-16            1            1            1 
      35   0.17961407        3 3.7959195e-16            1            1            1 
      36   0.18600011        3 3.7980111e-16            1            1            1 
      37   0.19029903        3 3.8001047e-16            1            1            1 
      38   0.19405818        3 3.8022006e-16            1            1            1 
      39   0.19710708        3 3.8042985e-16            1            1            1 
      40     0.200037        3 3.8063986e-16            1            1            1 
      41   0.20299911        3 3.8085008e-16            1            1            1 
      42   0.20587611        3 3.8106052e-16            1            1            1 
      43   0.20875716        3 3.8127117e-16            1            1            1 
      44    0.2121551        3 3.8148203e-16            1            1            1 
      45   0.21774101        3 3.8169311e-16            1            1            1 
      46   0.22062516        3 3.8190441e-16            1            1            1 
      47   0.22407913        3 3.8211592e-16            1            1            1 
      48   0.22762203        3 3.8232765e-16            1            1            1 
      49   0.23222899        3 3.8253959e-16            1            1            1 
      50   0.23643017        3 3.8275174e-16            1            1            1 
      51   0.24082518        3 3.8296412e-16            1            1            1 
      52   0.24521208        3 3.8317671e-16            1            1            1 
      53   0.24877214        3 3.8338951e-16            1            1            1 
      54   0.25174618        3 3.8360254e-16            1            1            1 
      55   0.25488806        3 3.8381578e-16            1            1            1 
      56   0.25991106        3 3.8402923e-16            1            1            1 
      57     0.264395        3 3.8424291e-16            1            1            1 
      58   0.26754618        3 3.844568e-16            1            1            1 
      59   0.27038407        3 3.8467091e-16            1            1            1 
      60   0.27313614        3 3.8488524e-16            1            1            1 
      61   0.27591205        3 3.8509978e-16            1            1            1 
      62   0.27883506        3 3.8531454e-16            1            1            1 
      63   0.28518605        3 3.8552953e-16            1            1            1 
      64   0.28907919        3 3.8574473e-16            1            1            1 
      65   0.29234409        3 3.8596015e-16            1            1            1 
      66   0.29675817        3 3.8617579e-16            1            1            1 
      67   0.30107713        3 3.8639165e-16            1            1            1 
      68   0.30626321        3 3.8660773e-16            1            1            1 
      69     0.310848        3 3.8682402e-16            1            1            1 
      70    0.3140502        3 3.8704054e-16            1            1            1 
      71     0.317137        3 3.8725728e-16            1            1            1 
      72     0.320081        3 3.8747424e-16            1            1            1 
      73   0.32401109        3 3.8769142e-16            1            1            1 
      74   0.32972503        3 3.8790882e-16            1            1            1 
      75   0.33576107        3 3.8812644e-16            1            1            1 
      76   0.33866405        3 3.8834429e-16            1            1            1 
      77   0.34217906        3 3.8856235e-16            1            1            1 
      78   0.34537411        3 3.8878064e-16            1            1            1 
      79   0.34871221        3 3.8899915e-16            1            1            1 
      80   0.35426307        3 3.8921788e-16            1            1            1 
      81   0.35959816        3 3.8943683e-16            1            1            1 
      82   0.36456108        3 3.8965601e-16            1            1            1 
      83   0.36792707        3 3.8987541e-16            1            1            1 
      84   0.37085915        3 3.9009503e-16            1            1            1 
      85   0.37439609        3 3.9031488e-16            1            1            1 
      86   0.38007307        3 3.9053494e-16            1            1            1 
      87   0.38349819        3 3.9075524e-16            1            1            1 
      88    0.3888092        3 3.9097575e-16            1            1            1 
      89   0.39264011        3 3.911965e-16            1            1            1 
      90   0.39693499        3 3.9141746e-16            1            1            1 
      91   0.40145516        3 3.9163865e-16            1            1            1 
      92   0.40650511        3 3.9186007e-16            1            1            1 
      93   0.41213608        3 3.9208171e-16            1            1            1 
      94   0.41533017        3 3.9230357e-16            1            1            1 
      95   0.41853809        3 3.9252566e-16            1            1            1 
      96    0.4239502        3 3.9274798e-16            1            1            1 
      97   0.42814398        3 3.9297052e-16            1            1            1 
      98   0.43152404        3 3.9319329e-16            1            1            1 
      99   0.43635702        3 3.9341629e-16            1            1            1 
     100   0.43931198        3 3.9363951e-16            1            1            1 
     101   0.44231105        3 3.9386296e-16            1            1            1 
     102   0.44504714        3 3.9408663e-16            1            1            1 
     103   0.44780302        3 3.9431054e-16            1            1            1 
     104   0.45131111        3 3.9453467e-16            1            1            1 
     105   0.45483518        3 3.9475903e-16            1            1            1 
     106   0.45941305        3 3.9498361e-16            1            1            1 
     107   0.46357203        3 3.9520843e-16            1            1            1 
     108   0.46796417        3 3.9543347e-16            1            1            1 
     109   0.47180319        3 3.9565874e-16            1            1            1 
     110    0.4757812        3 3.9588424e-16            1            1            1 
     111     0.478863        3 3.9610997e-16            1            1            1 
     112   0.48398519        3 3.9633593e-16            1            1            1 
     113   0.48901415        3 3.9656212e-16            1            1            1 
     114   0.49202204        3 3.9678854e-16            1            1            1 
     115   0.49488521        3 3.9701518e-16            1            1            1 
     116   0.49764109        3 3.9724206e-16            1            1            1 
     117   0.50038409        3 3.9746917e-16            1            1            1 
     118      0.50316        3 3.9769651e-16            1            1            1 
     119   0.50660515        3 3.9792408e-16            1            1            1 
     120   0.51192403        3 3.9815188e-16            1            1            1 
     121     0.515167        3 3.9837991e-16            1            1            1 
     122   0.51899719        3 3.9860818e-16            1            1            1 
     123   0.52384019        3 3.9883667e-16            1            1            1 
     124   0.52875018        3 3.990654e-16            1            1            1 
     125    0.5329361        3 3.9929436e-16            1            1            1 
     126   0.53680801        3 3.9952356e-16            1            1            1 
     127   0.54070115        3 3.9975298e-16            1            1            1 
     128   0.54374409        3 3.9998264e-16            1            1            1 
     129   0.54661512        3 4.0021253e-16            1            1            1 
     130   0.54955721        3 4.0044266e-16            1            1            1 
     131     0.554667        3 4.0067301e-16            1            1            1 
     132    0.5599761        3 4.0090361e-16            1            1            1 
     133   0.56535912        3 4.0113443e-16            1            1            1 
     134   0.56822014        3 4.0136549e-16            1            1            1 
     135   0.57099509        3 4.0159679e-16            1            1            1 
     136   0.57372403        3 4.0182832e-16            1            1            1 
     137     0.576406        3 4.0206008e-16            1            1            1 
     138   0.57909203        3 4.0229208e-16            1            1            1 
     139   0.58201504        3 4.0252432e-16            1            1            1 
     140   0.58579516        3 4.0275679e-16            1            1            1 
     141   0.59044099        4 4.029895e-16            1            1            2 
     142   0.59480619        4 4.0322244e-16            1            1            2 
     143   0.59882212        4 4.0345562e-16            1            1            2 
     144   0.60294008        4 4.0368904e-16            1            1            2 
     145   0.60601807        4 4.0392269e-16            1            1            2 
     146   0.60881901        4 4.0415658e-16            1            1            2 
     147   0.61161399        4 4.0439071e-16            1            1            2 
     148    0.6148901        4 4.0462507e-16            1            1            2 
     149   0.61818004        4 4.0485968e-16            1            1            2 
     150   0.62124705        4 4.0509452e-16            1            1            2 
     151   0.62422705        4 4.053296e-16            1            1            2 
     152    0.6282661        4 4.0556491e-16            1            1            2 
     153   0.63374114        4 4.0580047e-16            1            1            2 
     154   0.63677406        4 4.0603626e-16            1            1            2 
     155   0.63979506        4 4.062723e-16            1            1            2 
     156   0.64504814        4 4.0650857e-16            1            1            2 
     157   0.64819002        4 4.0674509e-16            1            1            2 
     158   0.65200019        4 4.0698184e-16            1            1            2 
     159   0.65683913        4 4.0721883e-16            1            1            2 
     160   0.66156697        4 4.0745607e-16            1            1            2 
     161   0.66646504        4 4.0769354e-16            1            1            2 
     162   0.67000914        4 4.0793125e-16            1            1            2 
     163   0.67360616        4 4.0816921e-16            1            1            2 
     164   0.67660809        4 4.0840741e-16            1            1            2 
     165   0.68129611        4 4.0864585e-16            1            1            2 
     166   0.68745899        4 4.0888453e-16            1            1            2 
     167   0.69254112        4 4.0912345e-16            1            1            2 
     168   0.69542098        4 4.0936261e-16            1            1            2 
     169   0.69829202        4 4.0960202e-16            1            1            2 
     170   0.70108914        4 4.0984167e-16            1            1            2 
     171   0.70399117        4 4.1008156e-16            1            1            2 
     172   0.70693612        4 4.103217e-16            1            1            2 
     173   0.71154404        4 4.1056208e-16            1            1            2 
     174   0.71620798        4 4.108027e-16            1            1            2 
     175   0.71981716        4 4.1104357e-16            1            1            2 
     176   0.72279906        4 4.1128468e-16            1            1            2 
     177   0.72569013        4 4.1152604e-16            1            1            2 
     178   0.72846103        4 4.1176764e-16            1            1            2 
     179   0.73319912        4 4.1200948e-16            1            1            2 
     180   0.73886704        4 4.1225157e-16            1            1            2 
     181   0.74177217        4 4.1249391e-16            1            1            2 
     182   0.74610615        4 4.1273649e-16            1            1            2 
     183   0.75016713        4 4.1297931e-16            1            1            2 
     184   0.75413918        4 4.1322239e-16            1            1            2 
     185   0.75901604        4 4.1346571e-16            1            1            2 
     186   0.76388001        4 4.1370927e-16            1            1            2 
     187   0.76796699        4 4.1395308e-16            1            1            2 
     188   0.77109313        4 4.1419714e-16            1            1            2 
     189   0.77392912        4 4.1444145e-16            1            1            2 
     190   0.77836299        4  4.14686e-16            1            1            2 
     191   0.78203201        4 4.1493081e-16            1            1            2 
     192   0.78506112        4 4.1517586e-16            1            1            2 
     193   0.78877211        4 4.1542115e-16            1            1            2 
     194   0.79477119        4 4.156667e-16            1            1            2 
     195   0.79785609        4 4.159125e-16            1            1            2 
     196   0.80159497        4 4.1615854e-16            1            1            2 
     197   0.80603099        4 4.1640483e-16            1            1            2 
     198   0.80941606        4 4.1665138e-16            1            1            2 
     199   0.81381202        4 4.1689817e-16            1            1            2 
     200   0.81813407        4 4.1714521e-16            1            1            2 
     201   0.82317805        4 4.1739251e-16            1            1            2 
     202   0.82732415        4 4.1764005e-16            1            1            2 
     203   0.83194017        4 4.1788784e-16            1            1            2 
     204   0.83474207        4 4.1813589e-16            1            1            2 
     205   0.83759999        4 4.1838418e-16            1            1            2 
     206   0.84046102        4 4.1863273e-16            1            1            2 
     207   0.84333611        4 4.1888153e-16            1            1            2 
     208   0.84676218        4 4.1913058e-16            1            1            2 
     209   0.85233808        4 4.1937988e-16            1            1            2 
     210    0.8599472        4 4.1962944e-16            1            1            2 
     211   0.86321616        4 4.1987925e-16            1            1            2 
     212   0.86631203        4 4.2012931e-16            1            1            2 
     213   0.86916304        4 4.2037962e-16            1            1            2 
     214   0.87225699        4 4.2063019e-16            1            1            2 
     215   0.87513518        4 4.2088101e-16            1            1            2 
     216    0.8778882        4 4.2113209e-16            1            1            2 
     217    0.8805182        4 4.2138342e-16            1            1            2 
     218   0.88400221        4  4.21635e-16            1            1            2 
     219   0.88774204        4 4.2188684e-16            1            1            2 
     220   0.89297199        4 4.2213893e-16            1            1            2 
     221    0.8980422        4 4.2239128e-16            1            1            2 
     222   0.90332508        4 4.2264389e-16            1            1            2 
     223   0.90701103        4 4.2289675e-16            1            1            2 
     224   0.91001916        4 4.2314986e-16            1            1            2 
     225   0.91270208        4 4.2340323e-16            1            1            2 
     226   0.91650605        4 4.2365686e-16            1            1            2 
     227   0.92194319        4 4.2391074e-16            1            1            2 
     228   0.92702508        4 4.2416489e-16            1            1            2 
     229   0.93069315        4 4.2441929e-16            1            1            2 
     230   0.93375206        4 4.2467394e-16            1            1            2 
     231   0.93716908        4 4.2492886e-16            1            1            2 
     232   0.94225216        4 4.2518403e-16            1            1            2 
     233   0.94707012        4 4.2543946e-16            1            1            2 
     234   0.95237708        4 4.2569515e-16            1            1            2 
     235   0.95654416        4 4.2595109e-16            1            1            2 
     236   0.95977807        4 4.262073e-16            1            1            2 
     237   0.96276307        4 4.2646376e-16            1            1            2 
     238      0.96787        4 4.2672049e-16            1            1            2 
     239   0.97315502        4 4.2697747e-16            1            1            2 
     240     0.976192        4 4.2723472e-16            1            1            2 
     241   0.97912121        4 4.2749222e-16            1            1            2 
     242   0.98192811        4 4.2774999e-16            1            1            2 
     243   0.98461819        4 4.2800801e-16            1            1            2 
     244   0.98798609        4 4.282663e-16            1            1            2 
     245   0.99301815        4 4.2852485e-16            1            1            2 
     246   0.99692321        4 4.2878366e-16            1            1            2 
     247    1.0006762        4 4.2904273e-16            1            1            2 
     248     1.004981        4 4.2930206e-16            1            1            2 
     249    1.0090392        4 4.2956166e-16            1            1            2 
     250      1.01282        4 4.2982151e-16            1            1            2 
     251     1.017302        4 4.3008163e-16            1            1            2 
     252     1.020431        4 4.3034202e-16            1            1            2 
     253    1.0234621        4 4.3060266e-16            1            1            2 
     254    1.0263782        4 4.3086358e-16            1            1            2 
     255    1.0297792        4 4.3112475e-16            1            1            2 
     256    1.0352712        4 4.3138619e-16            1            1            2 
     257    1.0401261        4 4.3164789e-16            1            1            2 
     258    1.0454981        4 4.3190986e-16            1            1            2 
     259     1.048357        4 4.3217209e-16            1            1            2 
     260    1.0516341        4 4.3243459e-16            1            1            2 
     261    1.0560081        4 4.3269735e-16            1            1            2 
     262     1.060925        4 4.3296038e-16            1            1            2 
     263    1.0651841        4 4.3322367e-16            1            1            2 
     264     1.069067        4 4.3348723e-16            1            1            2 
     265    1.0729742        4 4.3375106e-16            1            1            2 
     266    1.0759611        4 4.3401515e-16            1            1            2 
     267     1.081126        4 4.3427951e-16            1            1            2 
     268    1.0861402        4 4.3454414e-16            1            1            2 
     269    1.0890691        4 4.3480904e-16            1            1            2 
     270    1.0919602        4 4.350742e-16            1            1            2 
     271    1.0947042        4 4.3533963e-16            1            1            2 
     272     1.097363        4 4.3560533e-16            1            1            2 
     273    1.1008101        4 4.358713e-16            1            1            2 
     274    1.1063571        4 4.3613753e-16            1            1            2 
     275    1.1111212        4 4.3640404e-16            1            1            2 
     276    1.1169682        4 4.3667081e-16            1            1            2 
     277    1.1216631        4 4.3693786e-16            1            1            2 
     278    1.1257012        4 4.3720517e-16            1            1            2 
     279    1.1288681        4 4.3747276e-16            1            1            2 
     280     1.131654        4 4.3774061e-16            1            1            2 
     281    1.1343961        4 4.3800874e-16            1            1            2 
     282     1.137172        4 4.3827713e-16            1            1            2 
     283    1.1400211        4 4.385458e-16            1            1            2 
     284    1.1435812        4 4.3881474e-16            1            1            2 
     285    1.1490152        4 4.3908395e-16            1            1            2 
     286    1.1550691        4 4.3935343e-16            1            1            2 
     287    1.1581161        4 4.3962319e-16            1            1            2 
     288    1.1617012        4 4.3989321e-16            1            1            2 
     289    1.1656821        4 4.4016351e-16            1            1            2 
     290     1.170979        4 4.4043409e-16            1            1            2 
     291    1.1764121        4 4.4070493e-16            1            1            2 
     292    1.1817501        4 4.4097605e-16            1            1            2 
     293    1.1850841        4 4.4124745e-16            1            1            2 
     294    1.1881192        4 4.4151912e-16            1            1            2 
     295     1.191648        4 4.4179106e-16            1            1            2 
     296     1.197005        4 4.4206328e-16            1            1            2 
     297     1.202955        4 4.4233577e-16            1            1            2 
     298    1.2063172        4 4.4260853e-16            1            1            2 
     299    1.2095921        4 4.4288158e-16            1            1            2 
     300    1.2127481        4 4.431549e-16            1            1            2 
     301     1.215966        4 4.4342849e-16            1            1            2 
     302     1.219099        4 4.4370236e-16            1            1            2 
     303       1.2244        4 4.4397651e-16            1            1            2 
     304    1.2295282        4 4.4425093e-16            1            1            2 
     305    1.2338481        4 4.4452563e-16            1            1            2 
     306     1.237313        4 4.4480061e-16            1            1            2 
     307    1.2411921        4 4.4507587e-16            1            1            2 
     308     1.244334        4 4.453514e-16            1            1            2 
     309     1.247112        4 4.4562722e-16            1            1            2 
     310    1.2499392        4 4.4590331e-16            1            1            2 
     311    1.2527342        4 4.4617968e-16            1            1            2 
     312     1.257061        4 4.4645632e-16            1            1            2 
     313    1.2628131        4 4.4673325e-16            1            1            2 
     314     1.268131        4 4.4701046e-16            1            1            2 
     315     1.271898        4 4.4728795e-16            1            1            2 
     316    1.2748661        4 4.4756572e-16            1            1            2 
     317     1.278336        4 4.4784376e-16            1            1            2 
     318    1.2823682        4 4.4812209e-16            1            1            2 
     319     1.287601        4 4.484007e-16            1            1            2 
     320    1.2929552        4 4.4867959e-16            1            1            2 
     321    1.2967501        4 4.4895876e-16            1            1            2 
     322    1.3000691        4 4.4923822e-16            1            1            2 
     323    1.3030522        4 4.4951795e-16            1            1            2 
     324     1.305953        4 4.4979797e-16            1            1            2 
     325    1.3101721        4 4.5007827e-16            1            1            2 
     326    1.3162551        4 4.5035886e-16            1            1            2 
     327     1.319263        4 4.5063973e-16            1            1            2 
     328     1.322149        4 4.5092088e-16            1            1            2 
     329     1.324842        4 4.5120231e-16            1            1            2 
     330    1.3275702        4 4.5148403e-16            1            1            2 
     331     1.330379        4 4.5176603e-16            1            1            2 
     332     1.335968        4 4.5204832e-16            1            1            2 
     333     1.340054        4 4.5233089e-16            1            1            2 
     334    1.3443942        4 4.5261375e-16            1            1            2 
     335    1.3494902        4 4.5289689e-16            1            1            2 
     336    1.3538952        4 4.5318032e-16            1            1            2 
     337    1.3589411        4 4.5346403e-16            1            1            2 
     338    1.3621142        4 4.5374803e-16            1            1            2 
     339    1.3651571        4 4.5403232e-16            1            1            2 
     340    1.3680241        4 4.543169e-16            1            1            2 
     341    1.3713281        4 4.5460176e-16            1            1            2 
     342    1.3777392        4 4.5488691e-16            1            1            2 
     343    1.3833961        4 4.5517234e-16            1            1            2 
     344     1.386811        4 4.5545807e-16            1            1            2 
     345    1.3909221        4 4.5574408e-16            1            1            2 
     346     1.395072        4 4.5603038e-16            1            1            2 
     347     1.398849        4 4.5631697e-16            1            1            2 
     348      1.40237        4 4.5660385e-16            1            1            2 
     349     1.407609        4 4.5689102e-16            1            1            2 
     350    1.4134521        4 4.5717847e-16            1            1            2 
     351      1.41837        4 4.5746622e-16            1            1            2 
     352    1.4213021        4 4.5775426e-16            1            1            2 
     353     1.426105        4 4.5804259e-16            1            1            2 
     354    1.4318461        4 4.5833121e-16            1            1            2 
     355    1.4348171        4 4.5862012e-16            1            1            2 
     356    1.4376581        4 4.5890932e-16            1            1            2 
     357    1.4403641        4 4.5919881e-16            1            1            2 
     358     1.443084        4 4.594886e-16            1            1            2 
     359     1.445796        4 4.5977868e-16            1            1            2 
     360    1.4492221        4 4.6006905e-16            1            1            2 
     361     1.454237        4 4.6035971e-16            1            1            2 
     362    1.4581602        4 4.6065067e-16            1            1            2 
     363    1.4624381        4 4.6094192e-16            1            1            2 
     364    1.4667652        4 4.6123346e-16            1            1            2 
     365    1.4714091        4 4.615253e-16            1            1            2 
     366    1.4764872        4 4.6181743e-16            1            1            2 
     367    1.4796281        4 4.6210986e-16            1            1            2 
     368    1.4825802        4 4.6240258e-16            1            1            2 
     369    1.4854181        4 4.6269559e-16            1            1            2 
     370     1.488502        4 4.6298891e-16            1            1            2 
     371     1.493562        4 4.6328251e-16            1            1            2 
     372    1.4993651        4 4.6357642e-16            1            1            2 
     373    1.5038011        4 4.6387062e-16            1            1            2 
     374    1.5066681        4 4.6416511e-16            1            1            2 
     375     1.509578        4 4.6445991e-16            1            1            2 
     376     1.512274        4  4.64755e-16            1            1            2 
     377    1.5150242        4 4.6505038e-16            1            1            2 
     378    1.5179541        4 4.6534607e-16            1            1            2 
     379    1.5210152        4 4.6564205e-16            1            1            2 
     380    1.5242321        4 4.6593834e-16            1            1            2 
     381    1.5281682        5 4.6623492e-16            2            1            2 
     382    1.5321841        5 4.665318e-16            2            1            2 
     383    1.5371082        5 4.6682898e-16            2            1            2 
     384    1.5431001        5 4.6712645e-16            2            1            2 
     385    1.5483801        5 4.6742423e-16            2            1            2 
     386    1.5536551        5 4.6772231e-16            2            1            2 
     387    1.5574162        5 4.6802069e-16            2            1            2 
     388    1.5602782        5 4.6831937e-16            2            1            2 
     389     1.563241        5 4.6861835e-16            2            1            2 
     390     1.569525        5 4.6891763e-16            2            1            2 
     391     1.576314        5 4.6921722e-16            2            1            2 
     392    1.5795372        5 4.695171e-16            2            1            2 
     393     1.582993        5 4.6981729e-16            2            1            2 
     394    1.5863042        5 4.7011778e-16            2            1            2 
     395     1.590791        5 4.7041857e-16            2            1            2 
     396    1.5950851        5 4.7071967e-16            2            1            2 
     397    1.5994341        5 4.7102107e-16            2            1            2 
     398     1.603441        5 4.7132277e-16            2            1            2 
     399    1.6065712        5 4.7162478e-16            2            1            2 
     400    1.6094401        5 4.7192709e-16            2            1            2 
     401      1.61234        5 4.7222971e-16            2            1            2 
     402    1.6186271        5 4.7253263e-16            2            1            2 
     403     1.625278        5 4.7283585e-16            2            1            2 
     404    1.6282911        5 4.7313939e-16            2            1            2 
     405    1.6315172        5 4.7344322e-16            2            1            2 
     406    1.6354342        5 4.7374737e-16            2            1            2 
     407    1.6410241        5 4.7405182e-16            2            1            2 
     408    1.6463451        5 4.7435658e-16            2            1            2 
     409    1.6509001        5 4.7466164e-16            2            1            2 
     410    1.6540022        5 4.7496701e-16            2            1            2 
     411    1.6570191        5 4.7527269e-16            2            1            2 
     412    1.6605551        5 4.7557868e-16            2            1            2 
     413    1.6669691        5 4.7588497e-16            2            1            2 
     414    1.6733181        5 4.7619158e-16            2            1            2 
     415    1.6766601        5 4.7649849e-16            2            1            2 
     416     1.680125        5 4.7680571e-16            2            1            2 
     417    1.6844771        5 4.7711324e-16            2            1            2 
     418    1.6889472        5 4.7742108e-16            2            1            2 
     419      1.69314        5 4.7772923e-16            2            1            2 
     420     1.698673        5 4.780377e-16            2            1            2 
     421    1.7024171        5 4.7834647e-16            2            1            2 
     422    1.7054031        5 4.7865555e-16            2            1            2 
     423    1.7090652        5 4.7896495e-16            2            1            2 
     424    1.7155452        5 4.7927465e-16            2            1            2 
     425    1.7222071        5 4.7958467e-16            2            1            2 
     426    1.7251661        5  4.79895e-16            2            1            2 
     427     1.728127        5 4.8020564e-16            2            1            2 
     428     1.731102        5 4.805166e-16            2            1            2 
     429      1.73506        5 4.8082787e-16            2            1            2 
     430    1.7386241        5 4.8113945e-16            2            1            2 
     431     1.743248        5 4.8145135e-16            2            1            2 
     432    1.7478931        5 4.8176356e-16            2            1            2 
     433    1.7533522        5 4.8207608e-16            2            1            2 
     434    1.7571001        5 4.8238892e-16            2            1            2 
     435    1.7602081        5 4.8270208e-16            2            1            2 
     436    1.7631452        5 4.8301554e-16            2            1            2 
     437    1.7666712        5 4.8332933e-16            2            1            2 
     438    1.7719822        5 4.8364343e-16            2            1            2 
     439    1.7757571        5 4.8395785e-16            2            1            2 
     440    1.7786832        5 4.8427258e-16            2            1            2 
     441    1.7815711        5 4.8458763e-16            2            1            2 
     442     1.784394        5  4.84903e-16            2            1            2 
     443     1.787339        5 4.8521869e-16            2            1            2 
     444    1.7910881        5 4.8553469e-16            2            1            2 
     445     1.796237        5 4.8585101e-16            2            1            2 
     446    1.8004582        5 4.8616765e-16            2            1            2 
     447    1.8053071        5 4.8648461e-16            2            1            2 
     448     1.809653        5 4.8680189e-16            2            1            2 
     449    1.8135521        5 4.8711949e-16            2            1            2 
     450     1.818136        5 4.874374e-16            2            1            2 
     451    1.8219821        5 4.8775564e-16            2            1            2 
     452    1.8251331        5 4.880742e-16            2            1            2 
     453    1.8281391        5 4.8839308e-16            2            1            2 
     454    1.8311861        5 4.8871228e-16            2            1            2 
     455     1.837734        5 4.890318e-16            2            1            2 
     456     1.841747        5 4.8935164e-16            2            1            2 
     457     1.847852        5 4.896718e-16            2            1            2 
     458    1.8509641        5 4.8999229e-16            2            1            2 
     459     1.853909        5 4.903131e-16            2            1            2 
     460     1.856781        5 4.9063423e-16            2            1            2 
     461     1.860065        5 4.9095569e-16            2            1            2 
     462    1.8646731        5 4.9127746e-16            2            1            2 
     463    1.8693352        5 4.9159957e-16            2            1            2 
     464     1.874603        5 4.9192199e-16            2            1            2 
     465    1.8775952        5 4.9224474e-16            2            1            2 
     466    1.8806212        5 4.9256782e-16            2            1            2 
     467    1.8835611        5 4.9289122e-16            2            1            2 
     468    1.8872561        5 4.9321495e-16            2            1            2 
     469    1.8938401        5  4.93539e-16            2            1            2 
     470    1.8968821        5 4.9386338e-16            2            1            2 
     471    1.9024901        5 4.9418808e-16            2            1            2 
     472      1.90661        5 4.9451312e-16            2            1            2 
     473    1.9100051        5 4.9483847e-16            2            1            2 
     474     1.912925        5 4.9516416e-16            2            1            2 
     475    1.9157412        5 4.9549017e-16            2            1            2 
     476    1.9186571        5 4.9581652e-16            2            1            2 
     477    1.9214542        5 4.9614319e-16            2            1            2 
     478    1.9254611        5 4.9647019e-16            2            1            2 
     479    1.9285731        5 4.9679751e-16            2            1            2 
     480    1.9315851        5 4.9712517e-16            2            1            2 
     481    1.9345281        5 4.9745316e-16            2            1            2 
     482    1.9404771        5 4.9778147e-16            2            1            2 
     483    1.9449711        5 4.9811012e-16            2            1            2 
     484    1.9479201        5 4.984391e-16            2            1            2 
     485    1.9508131        5 4.9876841e-16            2            1            2 
     486    1.9538472        5 4.9909805e-16            2            1            2 
     487    1.9602032        5 4.9942802e-16            2            1            2 
     488     1.964849        5 4.9975833e-16            2            1            2 
     489    1.9681261        5 5.0008896e-16            2            1            2 
     490    1.9712341        5 5.0041993e-16            2            1            2 
     491    1.9759152        5 5.0075123e-16            2            1            2 
     492    1.9820991        5 5.0108287e-16            2            1            2 
     493    1.9853461        5 5.0141484e-16            2            1            2 
     494    1.9902561        5 5.0174714e-16            2            1            2 
     495    1.9951401        5 5.0207978e-16            2            1            2 
     496    2.0010772        5 5.0241275e-16            2            1            2 
     497    2.0068901        5 5.0274606e-16            2            1            2 
     498     2.009846        5 5.030797e-16            2            1            2 
     499     2.012635        5 5.0341367e-16            2            1            2 
     500    2.0154011        5 5.0374799e-16            2            1            2 
     501    2.0181541        5 5.0408264e-16            2            1            2 
     502     2.021131        5 5.0441762e-16            2            1            2 
     503    2.0252771        5 5.0475295e-16            2            1            2 
     504    2.0282891        5 5.0508861e-16            2            1            2 
     505    2.0311251        5 5.0542461e-16            2            1            2 
     506    2.0362022        5 5.0576094e-16            2            1            2 
     507    2.0416501        5 5.0609762e-16            2            1            2 
     508    2.0444541        5 5.0643463e-16            2            1            2 
     509    2.0471852        5 5.0677198e-16            2            1            2 
     510     2.049912        5 5.0710967e-16            2            1            2 
     511    2.0559161        5 5.074477e-16            2            1            2 
     512    2.0598092        5 5.0778607e-16            2            1            2 
     513    2.0628362        5 5.0812479e-16            2            1            2 
     514    2.0656612        5 5.0846384e-16            2            1            2 
     515    2.0685132        5 5.0880323e-16            2            1            2 
     516     2.074718        5 5.0914296e-16            2            1            2 
     517     2.079334        5 5.0948304e-16            2            1            2 
     518     2.082145        5 5.0982346e-16            2            1            2 
     519    2.0848641        5 5.1016422e-16            2            1            2 
     520    2.0891361        5 5.1050532e-16            2            1            2 
     521    2.0931602        5 5.1084677e-16            2            1            2 
     522    2.0969911        5 5.1118855e-16            2            1            2 
     523    2.1003182        5 5.1153069e-16            2            1            2 
     524    2.1030951        5 5.1187316e-16            2            1            2 
     525    2.1058381        5 5.1221598e-16            2            1            2 
     526    2.1085191        5 5.1255915e-16            2            1            2 
     527    2.1111951        5 5.1290266e-16            2            1            2 
     528    2.1139262        5 5.1324652e-16            2            1            2 
     529    2.1166692        5 5.1359072e-16            2            1            2 
     530    2.1201231        5 5.1393527e-16            2            1            2 
     531     2.126379        5 5.1428016e-16            2            1            2 
     532    2.1295061        5 5.146254e-16            2            1            2 
     533    2.1350422        5 5.1497099e-16            2            1            2 
     534    2.1379631        5 5.1531693e-16            2            1            2 
     535    2.1408482        5 5.1566321e-16            2            1            2 
     536    2.1436081        5 5.1600984e-16            2            1            2 
     537    2.1463571        5 5.1635682e-16            2            1            2 
     538      2.14974        5 5.1670415e-16            2            1            2 
     539    2.1533151        5 5.1705183e-16            2            1            2 
     540     2.156219        5 5.1739986e-16            2            1            2 
     541    2.1589131        5 5.1774823e-16            2            1            2 
     542    2.1622581        5 5.1809696e-16            2            1            2 
     543    2.1652782        5 5.1844604e-16            2            1            2 
     544     2.168447        5 5.1879547e-16            2            1            2 
     545     2.171448        5 5.1914525e-16            2            1            2 
     546    2.1742961        5 5.1949538e-16            2            1            2 
     547    2.1778281        5 5.1984587e-16            2            1            2 
     548    2.1808052        5 5.201967e-16            2            1            2 
     549    2.1835711        5 5.2054789e-16            2            1            2 
     550     2.186419        5 5.2089943e-16            2            1            2 
     551    2.1892102        5 5.2125133e-16            2            1            2 
     552    2.1919842        5 5.2160358e-16            2            1            2 
     553    2.1969872        5 5.2195618e-16            2            1            2 
     554     2.202477        5 5.2230914e-16            2            1            2 
     555    2.2052791        5 5.2266245e-16            2            1            2 
     556    2.2080462        5 5.2301612e-16            2            1            2 
     557     2.210907        5 5.2337014e-16            2            1            2 
     558     2.213659        5 5.2372452e-16            2            1            2 
     559    2.2164221        5 5.2407925e-16            2            1            2 
     560     2.221998        5 5.2443435e-16            2            1            2 
     561    2.2260652        5 5.2478979e-16            2            1            2 
     562    2.2291031        5 5.251456e-16            2            1            2 
     563     2.232074        5 5.2550176e-16            2            1            2 
     564    2.2349172        5 5.2585828e-16            2            1            2 
     565    2.2406361        5 5.2621516e-16            2            1            2 
     566     2.245435        5 5.265724e-16            2            1            2 
     567    2.2490311        5   5.2693e-16            2            1            2 
     568    2.2537222        5 5.2728795e-16            2            1            2 
     569    2.2566142        5 5.2764627e-16            2            1            2 
     570    2.2595241        5 5.2800495e-16            2            1            2 
     571    2.2623091        5 5.2836398e-16            2            1            2 
     572    2.2651801        5 5.2872338e-16            2            1            2 
     573      2.26967        5 5.2908314e-16            2            1            2 
     574    2.2732451        5 5.2944326e-16            2            1            2 
     575    2.2760501        5 5.2980374e-16            2            1            2 
     576    2.2793601        5 5.3016459e-16            2            1            2 
     577     2.285573        5 5.3052579e-16            2            1            2 
     578    2.2918081        5 5.3088736e-16            2            1            2 
     579     2.294744        5 5.3124929e-16            2            1            2 
     580     2.297765        5 5.3161159e-16            2            1            2 
     581    2.3005581        5 5.3197425e-16            2            1            2 
     582    2.3033462        5 5.3233728e-16            2            1            2 
     583    2.3066702        5 5.3270067e-16            2            1            2 
     584     2.309356        5 5.3306442e-16            2            1            2 
     585    2.3121681        5 5.3342854e-16            2            1            2 
     586    2.3152802        5 5.3379303e-16            2            1            2 
     587    2.3188522        5 5.3415788e-16            2            1            2 
     588    2.3217652        5 5.345231e-16            2            1            2 
     589     2.324466        5 5.3488869e-16            2            1            2 
     590     2.327615        5 5.3525464e-16            2            1            2 
     591    2.3306811        5 5.3562096e-16            2            1            2 
     592    2.3341911        5 5.3598765e-16            2            1            2 
     593    2.3371952        5 5.3635471e-16            2            1            2 
     594     2.340183        5 5.3672213e-16            2            1            2 
     595    2.3447962        5 5.3708993e-16            2            1            2 
     596    2.3477991        5 5.3745809e-16            2            1            2 
     597    2.3506231        5 5.3782663e-16            2            1            2 
     598     2.353421        5 5.3819553e-16            2            1            2 
     599    2.3562112        5 5.3856481e-16            2            1            2 
     600    2.3609521        5 5.3893445e-16            2            1            2 
     601     2.366811        5 5.3930447e-16            2            1            2 
     602    2.3696811        5 5.3967486e-16            2            1            2 
     603     2.372452        5 5.4004562e-16            2            1            2 
     604    2.3751872        5 5.4041676e-16            2            1            2 
     605     2.377929        5 5.4078826e-16            2            1            2 
     606    2.3805871        5 5.4116014e-16            2            1            2 
     607    2.3856211        5 5.415324e-16            2            1            2 
     608     2.389266        5 5.4190502e-16            2            1            2 
     609     2.392369        5 5.4227803e-16            2            1            2 
     610    2.3953071        5 5.426514e-16            2            1            2 
     611     2.398165        5 5.4302515e-16            2            1            2 
     612     2.402848        5 5.4339928e-16            2            1            2 
     613    2.4093151        5 5.4377378e-16            2            1            2 
     614     2.414165        5 5.4414866e-16            2            1            2 
     615    2.4169021        5 5.4452392e-16            2            1            2 
     616     2.419718        5 5.4489955e-16            2            1            2 
     617    2.4224801        5 5.4527556e-16            2            1            2 
     618    2.4251702        5 5.4565195e-16            2            1            2 
     619    2.4278791        5 5.4602871e-16            2            1            2 
     620    2.4311051        5 5.4640586e-16            2            1            2 
     621     2.434237        5 5.4678338e-16            2            1            2 
     622      2.43751        5 5.4716128e-16            2            1            2 
     623    2.4407771        5 5.4753956e-16            2            1            2 
     624     2.443644        5 5.4791822e-16            2            1            2 
     625     2.446542        5 5.4829726e-16            2            1            2 
     626    2.4495862        5 5.4867668e-16            2            1            2 
     627     2.452517        5 5.4905649e-16            2            1            2 
     628    2.4554191        5 5.4943667e-16            2            1            2 
     629     2.458359        5 5.4981724e-16            2            1            2 
     630    2.4610682        5 5.5019819e-16            2            1            2 
     631    2.4638751        5 5.5057952e-16            2            1            2 
     632    2.4674861        5 5.5096123e-16            2            1            2 
     633    2.4722631        5 5.5134333e-16            2            1            2 
     634    2.4751592        5 5.5172581e-16            2            1            2 
     635    2.4780591        5 5.5210868e-16            2            1            2 
     636       2.4826        5 5.5249192e-16            2            1            2 
     637     2.488204        5 5.5287556e-16            2            1            2 
     638    2.4911721        5 5.5325958e-16            2            1            2 
     639    2.4966762        5 5.5364398e-16            2            1            2 
     640     2.499613        5 5.5402878e-16            2            1            2 
     641    2.5024972        5 5.5441395e-16            2            1            2 
     642    2.5052202        5 5.5479952e-16            2            1            2 
     643     2.508002        5 5.5518547e-16            2            1            2 
     644    2.5118191        5 5.5557181e-16            2            1            2 
     645    2.5159302        5 5.5595854e-16            2            1            2 
     646      2.51878        5 5.5634565e-16            2            1            2 
     647    2.5223231        5 5.5673315e-16            2            1            2 
     648    2.5289981        5 5.5712105e-16            2            1            2 
     649    2.5356481        5 5.5750933e-16            2            1            2 
     650    2.5387061        5  5.57898e-16            2            1            2 
     651    2.5415611        5 5.5828707e-16            2            1            2 
     652     2.544311        5 5.5867652e-16            2            1            2 
     653    2.5470681        5 5.5906636e-16            2            1            2 
     654    2.5498362        5 5.594566e-16            2            1            2 
     655    2.5531421        5 5.5984723e-16            2            1            2 
     656    2.5575931        5 5.6023825e-16            2            1            2 
     657    2.5603821        5 5.6062966e-16            2            1            2 
     658      2.56321        5 5.6102146e-16            2            1            2 
     659    2.5680361        5 5.6141366e-16            2            1            2 
     660    2.5738251        5 5.6180626e-16            2            1            2 
     661     2.579483        5 5.6219924e-16            2            1            2 
     662    2.5823491        5 5.6259262e-16            2            1            2 
     663     2.585417        5 5.629864e-16            2            1            2 
     664    2.5882151        5 5.6338057e-16            2            1            2 
     665     2.591361        5 5.6377514e-16            2            1            2 
     666    2.5942512        5 5.641701e-16            2            1            2 
     667    2.5969791        5 5.6456546e-16            2            1            2 
     668    2.5997031        5 5.6496122e-16            2            1            2 
     669     2.602788        5 5.6535737e-16            2            1            2 
     670     2.606323        5 5.6575393e-16            2            1            2 
     671    2.6091871        5 5.6615088e-16            2            1            2 
     672    2.6119912        5 5.6654822e-16            2            1            2 
     673    2.6149242        5 5.6694597e-16            2            1            2 
     674     2.617718        5 5.6734412e-16            2            1            2 
     675     2.620898        5 5.6774266e-16            2            1            2 
     676    2.6236131        5 5.6814161e-16            2            1            2 
     677    2.6265061        5 5.6854096e-16            2            1            2 
     678     2.629178        5 5.689407e-16            2            1            2 
     679    2.6319861        5 5.6934085e-16            2            1            2 
     680    2.6363761        5 5.697414e-16            2            1            2 
     681    2.6396871        5 5.7014236e-16            2            1            2 
     682    2.6425002        5 5.7054371e-16            2            1            2 
     683    2.6458311        5 5.7094547e-16            2            1            2 
     684    2.6517191        5 5.7134763e-16            2            1            2 
     685    2.6581402        5 5.717502e-16            2            1            2 
     686     2.660974        5 5.7215317e-16            2            1            2 
     687    2.6637831        5 5.7255654e-16            2            1            2 
     688     2.666466        5 5.7296032e-16            2            1            2 
     689    2.6693871        5 5.733645e-16            2            1            2 
     690      2.67204        5 5.7376909e-16            2            1            2 
     691    2.6746871        5 5.7417409e-16            2            1            2 
     692    2.6783671        5 5.7457949e-16            2            1            2 
     693    2.6813121        5 5.749853e-16            2            1            2 
     694    2.6846881        5 5.7539151e-16            2            1            2 
     695    2.6875021        5 5.7579814e-16            2            1            2 
     696    2.6901751        5 5.7620517e-16            2            1            2 
     697     2.693017        5 5.7661261e-16            2            1            2 
     698    2.6957541        5 5.7702046e-16            2            1            2 
     699     2.698616        5 5.7742872e-16            2            1            2 
     700    2.7012341        5 5.7783739e-16            2            1            2 
     701    2.7041471        5 5.7824647e-16            2            1            2 
     702    2.7067261        5 5.7865596e-16            2            1            2 
     703    2.7092531        5 5.7906586e-16            2            1            2 
     704     2.712903        5 5.7947617e-16            2            1            2 
     705    2.7158711        5 5.7988689e-16            2            1            2 
     706    2.7187161        5 5.8029803e-16            2            1            2 
     707    2.7214351        5 5.8070958e-16            2            1            2 
     708    2.7267132        5 5.8112154e-16            2            1            2 
     709    2.7325091        5 5.8153391e-16            2            1            2 
     710    2.7372031        5 5.819467e-16            2            1            2 
     711    2.7400641        5 5.823599e-16            2            1            2 
     712     2.742836        5 5.8277352e-16            2            1            2 
     713    2.7456172        5 5.8318755e-16            2            1            2 
     714    2.7482741        5  5.83602e-16            2            1            2 
     715     2.750972        5 5.8401687e-16            2            1            2 
     716    2.7540541        5 5.8443215e-16            2            1            2 
     717    2.7573981        5 5.8484785e-16            2            1            2 
     718    2.7606781        5 5.8526396e-16            2            1            2 
     719     2.763834        5 5.8568049e-16            2            1            2 
     720    2.7666531        5 5.8609744e-16            2            1            2 
     721    2.7694352        5 5.8651481e-16            2            1            2 
     722     2.772568        5 5.869326e-16            2            1            2 
     723     2.775841        5 5.873508e-16            2            1            2 
     724     2.778789        5 5.8776943e-16            2            1            2 
     725    2.7816651        5 5.8818848e-16            2            1            2 
     726    2.7850521        5 5.8860794e-16            2            1            2 
     727    2.7878962        5 5.8902783e-16            2            1            2 
     728    2.7907381        5 5.8944814e-16            2            1            2 
     729     2.793596        5 5.8986887e-16            2            1            2 
     730    2.7967782        5 5.9029003e-16            2            1            2 
     731     2.799638        5 5.907116e-16            2            1            2 
     732    2.8024211        5 5.911336e-16            2            1            2 
     733    2.8056412        5 5.9155602e-16            2            1            2 
     734    2.8110821        5 5.9197887e-16            2            1            2 
     735    2.8152471        5 5.9240214e-16            2            1            2 
     736     2.818064        5 5.9282583e-16            2            1            2 
     737    2.8207772        5 5.9324995e-16            2            1            2 
     738    2.8234971        5 5.936745e-16            2            1            2 
     739    2.8262382        5 5.9409947e-16            2            1            2 
     740    2.8298242        5 5.9452487e-16            2            1            2 
     741    2.8345342        5 5.9495069e-16            2            1            2 
     742    2.8381371        5 5.9537695e-16            2            1            2 
     743    2.8410442        5 5.9580363e-16            2            1            2 
     744    2.8438592        5 5.9623074e-16            2            1            2 
     745    2.8479931        5 5.9665827e-16            2            1            2 
     746    2.8546932        5 5.9708624e-16            2            1            2 
     747     2.859674        5 5.9751463e-16            2            1            2 
     748    2.8625391        5 5.9794346e-16            2            1            2 
     749     2.865257        5 5.9837271e-16            2            1            2 
     750    2.8680091        5 5.988024e-16            2            1            2 
     751    2.8707011        5 5.9923252e-16            2            1            2 
     752    2.8735092        5 5.9966306e-16            2            1            2 
     753     2.876889        5 6.0009404e-16            2            1            2 
     754    2.8801541        5 6.0052546e-16            2            1            2 
     755     2.883496        5 6.009573e-16            2            1            2 
     756     2.886446        5 6.0138958e-16            2            1            2 
     757    2.8892601        5 6.018223e-16            2            1            2 
     758     2.891983        5 6.0225544e-16            2            1            2 
     759    2.8947101        5 6.0268902e-16            2            1            2 
     760    2.8975611        5 6.0312304e-16            2            1            2 
     761    2.9003232        5 6.0355749e-16            2            1            2 
     762     2.903053        5 6.0399238e-16            2            1            2 
     763    2.9062731        5 6.044277e-16            2            1            2 
     764    2.9093502        5 6.0486347e-16            2            1            2 
     765     2.912636        5 6.0529966e-16            2            1            2 
     766    2.9162591        5 6.057363e-16            2            1            2 
     767    2.9192641        5 6.0617337e-16            2            1            2 
     768    2.9220891        5 6.0661089e-16            2            1            2 
     769     2.924931        5 6.0704884e-16            2            1            2 
     770    2.9301682        5 6.0748723e-16            2            1            2 
     771    2.9348881        5 6.0792606e-16            2            1            2 
     772    2.9377172        5 6.0836533e-16            2            1            2 
     773    2.9403882        5 6.0880504e-16            2            1            2 
     774    2.9431491        5 6.0924519e-16            2            1            2 
     775      2.94591        5 6.0968579e-16            2            1            2 
     776     2.949306        5 6.1012682e-16            2            1            2 
     777    2.9542751        5 6.105683e-16            2            1            2 
     778     2.957978        5 6.1101022e-16            2            1            2 
     779    2.9608941        5 6.1145259e-16            2            1            2 
     780     2.963758        5 6.1189539e-16            2            1            2 
     781    2.9671781        5 6.1233865e-16            2            1            2 
     782     2.973274        5 6.1278234e-16            2            1            2 
     783    2.9795861        5 6.1322649e-16            2            1            2 
     784    2.9824941        5 6.1367107e-16            2            1            2 
     785    2.9852321        5 6.1411611e-16            2            1            2 
     786    2.9880042        5 6.1456159e-16            2            1            2 
     787    2.9906881        5 6.1500752e-16            2            1            2 
     788    2.9934561        5 6.1545389e-16            2            1            2 
     789    2.9976232        5 6.1590071e-16            2            1            2 
     790     3.001493        5 6.1634798e-16            2            1            2 
     791    3.0042942        5 6.167957e-16            2            1            2 
     792    3.0070751        5 6.1724387e-16            2            1            2 
     793     3.013226        5 6.1769249e-16            2            1            2 
     794    3.0181651        5 6.1814156e-16            2            1            2 
     795    3.0233071        5 6.1859108e-16            2            1            2 
     796    3.0261791        5 6.1904105e-16            2            1            2 
     797    3.0289371        5 6.1949147e-16            2            1            2 
     798     3.031662        5 6.1994234e-16            2            1            2 
     799    3.0343852        5 6.2039366e-16            2            1            2 
     800     3.037189        5 6.2084544e-16            2            1            2 
     801    3.0399561        7 6.9242905e-16            2            3            2 
     802    3.0433052        7 6.9287461e-16            2            3            2 
     803     3.046319        7 6.9332063e-16            2            3            2 
     804    3.0491731        7 6.9376711e-16            2            3            2 
     805    3.0519762        7 6.9421404e-16            2            3            2 
     806     3.056931        7 6.9466143e-16            2            3            2 
     807    3.0625782        7 6.9510927e-16            2            3            2 
     808    3.0687761        7 6.9555757e-16            2            3            2 
     809     3.071944        7 6.9600633e-16            2            3            2 
     810    3.0747972        7 6.9645555e-16            2            3            2 
     811    3.0776031        7 6.9690522e-16            2            3            2 
     812    3.0803261        7 6.9735536e-16            2            3            2 
     813    3.0831411        7 6.9780595e-16            2            3            2 
     814    3.0858281        7  6.98257e-16            2            3            2 
     815     3.089138        7 6.9870852e-16            2            3            2 
     816    3.0923052        7 6.9916049e-16            2            3            2 
     817     3.095844        7 6.9961293e-16            2            3            2 
     818    3.0987051        7 7.0006582e-16            2            3            2 
     819    3.1032331        7 7.0051918e-16            2            3            2 
     820    3.1088111        7 7.0097301e-16            2            3            2 
     821     3.114727        7 7.0142729e-16            2            3            2 
     822     3.117728        7 7.0188204e-16            2            3            2 
     823    3.1207461        7 7.0233725e-16            2            3            2 
     824      3.12394        7 7.0279293e-16            2            3            2 
     825    3.1267822        7 7.0324907e-16            2            3            2 
     826    3.1297472        7 7.0370568e-16            2            3            2 
     827    3.1323671        7 7.0416275e-16            2            3            2 
     828     3.135051        7 7.0462029e-16            2            3            2 
     829    3.1380901        7 7.0507829e-16            2            3            2 
     830    3.1417251        7 7.0553677e-16            2            3            2 
     831    3.1446002        7 7.0599571e-16            2            3            2 
     832    3.1474991        7 7.0645512e-16            2            3            2 
     833    3.1504622        7 7.0691499e-16            2            3            2 
     834    3.1533382        7 7.0737534e-16            2            3            2 
     835    3.1567712        7 7.0783616e-16            2            3            2 
     836    3.1600182        7 7.0829744e-16            2            3            2 
     837    3.1630321        7 7.087592e-16            2            3            2 
     838       3.1661        7 7.0922143e-16            2            3            2 
     839     3.169235        7 7.0968413e-16            2            3            2 
     840    3.1743062        7 7.101473e-16            2            3            2 
     841    3.1791811        7 7.1061094e-16            2            3            2 
     842    3.1827252        7 7.1107506e-16            2            3            2 
     843    3.1872041        7 7.1153965e-16            2            3            2 
     844    3.1922681        7 7.1200471e-16            2            3            2 
     845    3.1976271        7 7.1247025e-16            2            3            2 
     846    3.2027941        7 7.1293626e-16            2            3            2 
     847    3.2067542        7 7.1340275e-16            2            3            2 
     848     3.211102        7 7.1386971e-16            2            3            2 
     849    3.2141612        7 7.1433715e-16            2            3            2 
     850     3.217206        7 7.1480507e-16            2            3            2 
     851      3.22246        7 7.1527346e-16            2            3            2 
     852     3.228245        7 7.1574233e-16            2            3            2 
     853    3.2333441        7 7.1621168e-16            2            3            2 
     854    3.2361622        7 7.166815e-16            2            3            2 
     855     3.238971        7 7.1715181e-16            2            3            2 
     856    3.2418811        7 7.176226e-16            2            3            2 
     857    3.2447181        7 7.1809386e-16            2            3            2 
     858    3.2476771        7 7.1856561e-16            2            3            2 
     859    3.2509842        7 7.1903784e-16            2            3            2 
     860    3.2540002        7 7.1951054e-16            2            3            2 
     861    3.2578671        7 7.1998373e-16            2            3            2 
     862     3.260813        8 7.2045741e-16            3            3            2 
     863    3.2636471        8 7.2093156e-16            3            3            2 
     864    3.2668262        8 7.214062e-16            3            3            2 
     865    3.2697761        8 7.2188132e-16            3            3            2 
     866    3.2725861        8 7.2235693e-16            3            3            2 
     867    3.2755852        8 7.2283302e-16            3            3            2 
     868    3.2783301        8 7.233096e-16            3            3            2 
     869    3.2810671        8 7.2378666e-16            3            3            2 
     870    3.2856691        8 7.2426421e-16            3            3            2 
     871    3.2907901        8 7.2474225e-16            3            3            2 
     872    3.2957411        8 7.2522077e-16            3            3            2 
     873     3.298851        8 7.2569978e-16            3            3            2 
     874    3.3015752        8 7.2617928e-16            3            3            2 
     875    3.3048332        8 7.2665927e-16            3            3            2 
     876    3.3113232        8 7.2713975e-16            3            3            2 
     877    3.3174341        8 7.2762071e-16            3            3            2 
     878    3.3204122        8 7.2810217e-16            3            3            2 
     879     3.323225        8 7.2858412e-16            3            3            2 
     880      3.32604        8 7.2906656e-16            3            3            2 
     881     3.328748        8 7.2954949e-16            3            3            2 
     882    3.3317702        8 7.3003291e-16            3            3            2 
     883     3.335299        8 7.3051682e-16            3            3            2 
     884     3.338644        8 7.3100123e-16            3            3            2 
     885     3.342119        8 7.3148613e-16            3            3            2 
     886    3.3455381        8 7.3197153e-16            3            3            2 
     887    3.3483951        8 7.3245742e-16            3            3            2 
     888     3.352052        8 7.329438e-16            3            3            2 
     889    3.3552642        8 7.3343068e-16            3            3            2 
     890    3.3584752        8 7.3391806e-16            3            3            2 
     891    3.3618391        8 7.3440593e-16            3            3            2 
     892     3.365258        8 7.3489431e-16            3            3            2 
     893    3.3680661        8 7.3538317e-16            3            3            2 
     894    3.3709221        8 7.3587254e-16            3            3            2 
     895    3.3738921        8 7.363624e-16            3            3            2 
     896    3.3767571        8 7.3685277e-16            3            3            2 
     897    3.3796432        8 7.3734363e-16            3            3            2 
     898    3.3827982        8 7.3783499e-16            3            3            2 
     899     3.387825        8 7.3832686e-16            3            3            2 
     900    3.3926342        8 7.3881922e-16            3            3            2 
     901     3.395668        8 7.3931209e-16            3            3            2 
     902    3.3987272        8 7.3980546e-16            3            3            2 
     903     3.401634        8 7.4029933e-16            3            3            2 
     904    3.4044292        8 7.407937e-16            3            3            2 
     905    3.4090521        8 7.4128858e-16            3            3            2 
     906    3.4140842        8 7.4178396e-16            3            3            2 
     907    3.4182072        8 7.4227985e-16            3            3            2 
     908    3.4212902        8 7.4277624e-16            3            3            2 
[...]
    4778    19.923531      605 3.5701879e-14          200          358           47 
    4779     19.92935      605 3.5727262e-14          200          358           47 
    4780    19.937006      605 3.5752673e-14          200          358           47 
    4781     19.94492      605 3.5778112e-14          200          358           47 
    4782    19.951198      605 3.5803578e-14          200          358           47 
    4783    19.959482      605 3.5829072e-14          200          358           47 
    4784    19.966259      605 3.5854594e-14          200          358           47 
    4785    19.972451      619 3.6319243e-14          200          372           47 
    4786    19.979632      619 3.6344776e-14          200          372           47 
    4787    19.989156      620 3.6370338e-14          201          372           47 
    4788    19.995751      620 3.6395927e-14          201          372           47 
    4789    20.004805      621 3.6421544e-14          202          372           47 
    4790    20.011981      621 3.644719e-14          202          372           47 
    4791    20.018144      621 3.6472863e-14          202          372           47 
    4792    20.027086      621 3.6498564e-14          202          372           47 
    4793    20.035336      621 3.6524293e-14          202          372           47 
    4794    20.042549      621 3.655005e-14          202          372           47 
    4795    20.050468      621 3.6575836e-14          202          372           47 
    4796    20.056414      621 3.6601649e-14          202          372           47 
    4797     20.06237      622 3.6627491e-14          203          372           47 
    4798    20.069295      622 3.6653361e-14          203          372           47 
    4799    20.078302      623 3.6679259e-14          204          372           47 
    4800    20.086944      625 3.6705185e-14          205          372           48 
    4801    20.096568      635 3.7035091e-14          205          382           48 
    4802     20.10385      635 3.7061043e-14          205          382           48 
    4803    20.109914      635 3.7087024e-14          205          382           48 
    4804    20.118637      635 3.7113034e-14          205          382           48 
    4805    20.126808      635 3.7139071e-14          205          382           48 
    4806    20.133878      635 3.7165137e-14          205          382           48 
    4807    20.141212      635 3.7191232e-14          205          382           48 
    4808    20.148957      636 3.7217355e-14          205          382           49 
    4809    20.155206      636 3.7243506e-14          205          382           49 
    4810    20.163827      636 3.7269686e-14          205          382           49 
    4811    20.172016      637 3.7295895e-14          206          382           49 
    4812    20.178778      637 3.7322132e-14          206          382           49 
    4813     20.18625      637 3.7348398e-14          206          382           49 
    4814    20.192573      637 3.7374692e-14          206          382           49 
    4815    20.198757      637 3.7401016e-14          206          382           49 
    4816    20.207053      637 3.7427368e-14          206          382           49 
    4817    20.215238      655 3.8026121e-14          206          400           49 
    4818    20.221649      656 3.8052473e-14          207          400           49 
    4819    20.227811      656 3.8078854e-14          207          400           49 
    4820    20.233591      656 3.8105264e-14          207          400           49 
    4821    20.240031      656 3.8131703e-14          207          400           49 
    4822    20.246082      656 3.815817e-14          207          400           49 
    4823      20.2569      656 3.8184667e-14          207          400           49 
    4824    20.263138      656 3.8211192e-14          207          400           49 
    4825    20.269172      656 3.8237747e-14          207          400           49 
    4826    20.275075      657 3.8264331e-14          208          400           49 
    4827    20.280937      657 3.8290943e-14          208          400           49 
    4828    20.287427      657 3.8317585e-14          208          400           49 
    4829     20.29367      658 3.8344256e-14          209          400           49 
    4830    20.299945      658 3.8370956e-14          209          400           49 
    4831    20.306396      658 3.8397685e-14          209          400           49 
    4832    20.313432      658 3.8424444e-14          209          400           49 
    4833    20.319916      674 3.8891515e-14          209          416           49 
    4834    20.327025      674 3.8918288e-14          209          416           49 
    4835    20.335539      674 3.894509e-14          209          416           49 
    4836    20.342143      674 3.8971921e-14          209          416           49 
    4837     20.34811      674 3.8998782e-14          209          416           49 
    4838    20.355865      675 3.9025673e-14          210          416           49 
    4839    20.362062      675 3.9052593e-14          210          416           49 
    4840    20.371614      677 3.9079542e-14          212          416           49 
    4841    20.379098      677 3.9106521e-14          212          416           49 
    4842    20.385158      677 3.9133529e-14          212          416           49 
    4843    20.391107      677 3.9160567e-14          212          416           49 
    4844    20.397196      677 3.9187634e-14          212          416           49 
    4845    20.403673      677 3.9214731e-14          212          416           49 
    4846    20.409886      677 3.9241858e-14          212          416           49 
    4847    20.416612      677 3.9269014e-14          212          416           49 
    4848    20.423859      678 3.9296201e-14          213          416           49 
    4849    20.430603      686 3.9647036e-14          213          424           49 
    4850    20.437401      686 3.9674249e-14          213          424           49 
    4851    20.446482      686 3.9701492e-14          213          424           49 
    4852    20.452661      686 3.9728765e-14          213          424           49 
    4853    20.458606      686 3.9756068e-14          213          424           49 
    4854     20.46547      686  3.97834e-14          213          424           49 
    4855    20.472849      686 3.9810763e-14          213          424           49 
    4856    20.479096      686 3.9838155e-14          213          424           49 
    4857    20.488797      686 3.9865578e-14          213          424           49 
    4858    20.496228      687 3.9893031e-14          214          424           49 
    4859    20.504796      687 3.9920513e-14          214          424           49 
    4860    20.512618      687 3.9948026e-14          214          424           49 
    4861    20.519773      687 3.9975569e-14          214          424           49 
    4862    20.528376      687 4.0003142e-14          214          424           49 
    4863    20.537767      687 4.0030745e-14          214          424           49 
    4864    20.544794      687 4.0058379e-14          214          424           49 
    4865    20.551488      691 4.0183198e-14          214          428           49 
    4866    20.558211      692 4.0210883e-14          214          428           50 
    4867    20.564665      692 4.0238597e-14          214          428           50 
    4868     20.57408      693 4.0266342e-14          215          428           50 
    4869    20.582962      693 4.0294118e-14          215          428           50 
    4870    20.589383      694 4.0321923e-14          216          428           50 
    4871    20.595815      695 4.0349759e-14          216          428           51 
    4872    20.602038      695 4.0377626e-14          216          428           51 
    4873    20.608774      695 4.0405523e-14          216          428           51 
    4874    20.615287      696 4.0433451e-14          217          428           51 
    4875    20.621301      696 4.0461409e-14          217          428           51 
    4876    20.627751      697 4.0489398e-14          218          428           51 
    4877    20.633929      697 4.0517417e-14          218          428           51 
    4878     20.64016      697 4.0545467e-14          218          428           51 
    4879    20.649031      698 4.0573548e-14          219          428           51 
    4880    20.657129      698 4.060166e-14          219          428           51 
    4881    20.663679      703 4.0794085e-14          219          433           51 
    4882    20.669788      703 4.0822242e-14          219          433           51 
    4883      20.6762      704 4.0850429e-14          219          433           52 
    4884    20.683148      704 4.0878647e-14          219          433           52 
    4885    20.690996      704 4.0906897e-14          219          433           52 
    4886    20.700801      705 4.0935177e-14          220          433           52 
    4887    20.707411      705 4.0963488e-14          220          433           52 
    4888    20.713687      705 4.099183e-14          220          433           52 
    4889     20.71995      706 4.1020203e-14          221          433           52 
    4890    20.727004      707 4.1048607e-14          222          433           52 
    4891    20.733265      707 4.1077043e-14          222          433           52 
    4892    20.739895      707 4.1105509e-14          222          433           52 
    4893    20.746233      707 4.1134007e-14          222          433           52 
    4894    20.753052      708 4.1162535e-14          223          433           52 
    4895    20.759474      708 4.1191095e-14          223          433           52 
    4896    20.766888      708 4.1219686e-14          223          433           52 
    4897    20.775319      712 4.1383589e-14          223          437           52 
    4898    20.781409      712 4.1412229e-14          223          437           52 
    4899    20.788054      713 4.1440901e-14          224          437           52 
    4900    20.797168      713 4.1469604e-14          224          437           52 
    4901    20.803779      714 4.1498338e-14          225          437           52 
    4902    20.814544      714 4.1527104e-14          225          437           52 
    4903    20.820722      714 4.1555901e-14          225          437           52 
    4904    20.826875      717 4.158473e-14          227          437           53 
    4905     20.83343      717 4.161359e-14          227          437           53 
    4906     20.84055      717 4.1642482e-14          227          437           53 
    4907    20.846874      717 4.1671406e-14          227          437           53 
    4908    20.858091      717 4.1700361e-14          227          437           53 
    4909    20.864498      718 4.1729348e-14          228          437           53 
    4910    20.871115      718 4.1758367e-14          228          437           53 
    4911    20.878345      718 4.1787417e-14          228          437           53 
    4912    20.887062      718 4.1816499e-14          228          437           53 
    4913    20.893391      720 4.1913552e-14          228          439           53 
    4914    20.899539      720 4.1942691e-14          228          439           53 
    4915     20.90632      721 4.1971862e-14          229          439           53 
    4916    20.914476      721 4.2001065e-14          229          439           53 
    4917    20.920862      721 4.2030299e-14          229          439           53 
    4918    20.932169      721 4.2059566e-14          229          439           53 
    4919    20.938574      723 4.2088865e-14          231          439           53 
    4920    20.945056      724 4.2118196e-14          232          439           53 
    4921    20.951322      724 4.2147558e-14          232          439           53 
    4922     20.95773      725 4.2176953e-14          233          439           53 
    4923    20.964114      725 4.220638e-14          233          439           53 
    4924    20.973121      725 4.223584e-14          233          439           53 
    4925     20.98143      726 4.2265331e-14          234          439           53 
    4926    20.987966      726 4.2294855e-14          234          439           53 
    4927    20.994342      726 4.2324411e-14          234          439           53 
    4928    21.000708      726 4.2353999e-14          234          439           53 
    4929    21.007229      731 4.2513081e-14          235          443           53 
    4930    21.016328      732 4.2542721e-14          236          443           53 
    4931    21.025106      732 4.2572394e-14          236          443           53 
    4932    21.031666      732 4.2602099e-14          236          443           53 
    4933    21.037952      732 4.2631836e-14          236          443           53 
    4934    21.044193      732 4.2661606e-14          236          443           53 
    4935    21.051148      732 4.2691409e-14          236          443           53 
    4936    21.057647      732 4.2721244e-14          236          443           53 
    4937    21.064474      732 4.2751112e-14          236          443           53 
    4938    21.071289      732 4.2781012e-14          236          443           53 
    4939     21.07758      734 4.2810945e-14          238          443           53 
    4940    21.083929      734 4.2840911e-14          238          443           53 
    4941    21.092048      734 4.2870909e-14          238          443           53 
    4942    21.100031      735 4.2900941e-14          239          443           53 
    4943    21.106703      735 4.2931005e-14          239          443           53 
    4944     21.11321      735 4.2961102e-14          239          443           53 
    4945    21.120475      742 4.3221936e-14          239          450           53 
    4946    21.127559      742 4.3252076e-14          239          450           53 
    4947    21.137665      742 4.3282248e-14          239          450           53 
    4948    21.144104      742 4.3312454e-14          239          450           53 
    4949    21.150743      742 4.3342693e-14          239          450           53 
    4950    21.158248      742 4.3372965e-14          239          450           53 
    4951     21.16478      742 4.340327e-14          239          450           53 
    4952    21.174219      742 4.3433608e-14          239          450           53 
    4953    21.183181      745 4.3463979e-14          241          450           54 
    4954    21.189793      746 4.3494384e-14          242          450           54 
    4955    21.196358      747 4.3524821e-14          243          450           54 
    4956    21.203566      748 4.3555292e-14          244          450           54 
    4957    21.211698      748 4.3585797e-14          244          450           54 
    4958    21.219528      748 4.3616334e-14          244          450           54 
    4959     21.22668      749 4.3646905e-14          245          450           54 
    4960    21.235036      749 4.367751e-14          245          450           54 
    4961    21.242138      757 4.3940233e-14          245          458           54 
    4962    21.250198      757 4.3970881e-14          245          458           54 
    4963    21.257361      758 4.4001563e-14          245          458           55 
    4964     21.26491      759 4.4032278e-14          246          458           55 
    4965    21.272005      760 4.4063027e-14          247          458           55 
    4966    21.281422      760 4.4093809e-14          247          458           55 
    4967    21.290391      760 4.4124626e-14          247          458           55 
    4968    21.296863      760 4.4155475e-14          247          458           55 
    4969    21.303222      761 4.4186359e-14          248          458           55 
    4970    21.310361      762 4.4217276e-14          249          458           55 
    4971    21.317108      762 4.4248228e-14          249          458           55 
    4972    21.328055      763 4.4279213e-14          250          458           55 
    4973    21.335616      764 4.4310231e-14          251          458           55 
    4974    21.342344      764 4.4341284e-14          251          458           55 
    4975    21.348973      764 4.4372371e-14          251          458           55 
    4976    21.357325      764 4.4403492e-14          251          458           55 
    4977    21.365891      767 4.455496e-14          251          461           55 
    4978    21.375888      767 4.4586137e-14          251          461           55 
    4979    21.382617      767 4.4617348e-14          251          461           55 
    4980      21.3891      768 4.4648593e-14          252          461           55 
    4981    21.396304      768 4.4679872e-14          252          461           55 
    4982    21.403147      768 4.4711185e-14          252          461           55 
    4983    21.412307      768 4.4742533e-14          252          461           55 
    4984    21.421067      770 4.4773915e-14          254          461           55 
    4985    21.427781      771 4.4805331e-14          255          461           55 
    4986    21.434521      771 4.4836781e-14          255          461           55 
    4987     21.44197      771 4.4868266e-14          255          461           55 
    4988    21.450711      771 4.4899785e-14          255          461           55 
    4989    21.458634      771 4.4931339e-14          255          461           55 
    4990    21.465305      771 4.4962927e-14          255          461           55 
    4991    21.472276      771 4.499455e-14          255          461           55 
    4992     21.47904      771 4.5026207e-14          255          461           55 
    4993    21.488517      777 4.5221772e-14          255          467           55 
    4994    21.497881      777 4.5253482e-14          255          467           55 
    4995    21.504642      777 4.5285227e-14          255          467           55 
    4996    21.511161      777 4.5317006e-14          255          467           55 
    4997    21.518892      777 4.5348821e-14          255          467           55 
    4998    21.527247      777 4.538067e-14          255          467           55 
    4999    21.535994      777 4.5412554e-14          255          467           55 
    5000    21.555475      777 4.5444472e-14          255          467           55 
Loop time of 21.5555 on 1 procs for 5000 steps with 777 atoms

Performance: 721486594.065 tau/day, 231.959 timesteps/s
87.7% CPU use with 1 MPI tasks x no OpenMP threads

MPI task timing breakdown:
Section |  min time  |  avg time  |  max time  |%varavg| %total
---------------------------------------------------------------
Pair    | 0.2463     | 0.2463     | 0.2463     |   0.0 |  1.14
Neigh   | 15.568     | 15.568     | 15.568     |   0.0 | 72.22
Comm    | 0.064521   | 0.064521   | 0.064521   |   0.0 |  0.30
Output  | 3.0349     | 3.0349     | 3.0349     |   0.0 | 14.08
Modify  | 2.6105     | 2.6105     | 2.6105     |   0.0 | 12.11
Other   |            | 0.03108    |            |       |  0.14

Nlocal:    777 ave 777 max 777 min
Histogram: 1 0 0 0 0 0 0 0 0 0
Nghost:    0 ave 0 max 0 min
Histogram: 1 0 0 0 0 0 0 0 0 0
Neighs:    9162 ave 9162 max 9162 min
Histogram: 1 0 0 0 0 0 0 0 0 0

Total # of neighbors = 9162
Ave neighs/atom = 11.7915
Neighbor list builds = 5000
Dangerous builds = 0


Total wall time: 0:00:21
