ITEM: TIMESTEP
0
ITEM: NUMBER OF ATOMS
3
ITEM: BOX BOUNDS ff ff ff
0.0000000000000000e+00 1.0000000000000000e-04
0.0000000000000000e+00 1.0000000000000000e-04
0.0000000000000000e+00 1.0000000000000000e-04
ITEM: ATOMS id type diameter x y z 
2 2 9.66e-07 5e-05 1.36e-05 5e-07 
3 3 9.66e-07 5e-05 5.1e-05 5e-07 
1 1 8.66e-07 5e-05 4.9e-05 5e-05 
ITEM: TIMESTEP
50
ITEM: NUMBER OF ATOMS
3
ITEM: BOX BOUNDS ff ff ff
0.0000000000000000e+00 1.0000000000000000e-04
0.0000000000000000e+00 1.0000000000000000e-04
0.0000000000000000e+00 1.0000000000000000e-04
ITEM: ATOMS id type diameter x y z 
2 2 9.66e-07 5e-05 1.36e-05 5e-07 
3 3 9.78219e-07 5e-05 5.1e-05 5e-07 
1 1 8.82672e-07 5e-05 4.9e-05 5e-05 
ITEM: TIMESTEP
100
ITEM: NUMBER OF ATOMS
3
ITEM: BOX BOUNDS ff ff ff
0.0000000000000000e+00 1.0000000000000000e-04
0.0000000000000000e+00 1.0000000000000000e-04
0.0000000000000000e+00 1.0000000000000000e-04
ITEM: ATOMS id type diameter x y z 
2 2 9.66e-07 5e-05 1.36e-05 5e-07 
3 3 9.90553e-07 5e-05 5.1e-05 5e-07 
1 1 8.99597e-07 5e-05 4.9e-05 5e-05 
ITEM: TIMESTEP
150
ITEM: NUMBER OF ATOMS
4
ITEM: BOX BOUNDS ff ff ff
0.0000000000000000e+00 1.0000000000000000e-04
0.0000000000000000e+00 1.0000000000000000e-04
0.0000000000000000e+00 1.0000000000000000e-04
ITEM: ATOMS id type diameter x y z 
2 2 9.66e-07 5e-05 1.36e-05 5e-07 
3 3 7.68004e-07 5.0315e-05 5.11171e-05 7.20121e-07 
1 1 9.16841e-07 5e-05 4.9e-05 5e-05 
4 3 8.22367e-07 4.96691e-05 5.08769e-05 4.21948e-07 
ITEM: TIMESTEP
200
ITEM: NUMBER OF ATOMS
4
ITEM: BOX BOUNDS ff ff ff
0.0000000000000000e+00 1.0000000000000000e-04
0.0000000000000000e+00 1.0000000000000000e-04
0.0000000000000000e+00 1.0000000000000000e-04
ITEM: ATOMS id type diameter x y z 
2 2 9.66e-07 5e-05 1.36e-05 5e-07 
3 3 7.77684e-07 5.033e-05 5.11227e-05 7.1687e-07 
1 1 9.34408e-07 5e-05 4.9e-05 5e-05 
4 3 8.32732e-07 4.96566e-05 5.08723e-05 4.2732e-07 
ITEM: TIMESTEP
250
ITEM: NUMBER OF ATOMS
4
ITEM: BOX BOUNDS ff ff ff
0.0000000000000000e+00 1.0000000000000000e-04
0.0000000000000000e+00 1.0000000000000000e-04
0.0000000000000000e+00 1.0000000000000000e-04
ITEM: ATOMS id type diameter x y z 
2 2 9.66e-07 5e-05 1.36e-05 5e-07 
3 3 7.87484e-07 5.03305e-05 5.11229e-05 7.15859e-07 
1 1 9.52305e-07 5e-05 4.9e-05 5e-05 
4 3 8.43226e-07 4.96562e-05 5.08722e-05 4.28127e-07 
ITEM: TIMESTEP
300
ITEM: NUMBER OF ATOMS
4
ITEM: BOX BOUNDS ff ff ff
0.0000000000000000e+00 1.0000000000000000e-04
0.0000000000000000e+00 1.0000000000000000e-04
0.0000000000000000e+00 1.0000000000000000e-04
ITEM: ATOMS id type diameter x y z 
2 2 9.66e-07 5e-05 1.36e-05 5e-07 
3 3 7.97405e-07 5.03305e-05 5.11229e-05 7.15702e-07 
1 1 9.70537e-07 5e-05 4.9e-05 5e-05 
4 3 8.53849e-07 4.9654e-05 5.08713e-05 4.3257e-07 
ITEM: TIMESTEP
350
ITEM: NUMBER OF ATOMS
4
ITEM: BOX BOUNDS ff ff ff
0.0000000000000000e+00 1.0000000000000000e-04
0.0000000000000000e+00 1.0000000000000000e-04
0.0000000000000000e+00 1.0000000000000000e-04
ITEM: ATOMS id type diameter x y z 
2 2 9.66e-07 5e-05 1.36e-05 5e-07 
3 3 8.07449e-07 5.03305e-05 5.11229e-05 7.15658e-07 
1 1 9.89112e-07 5e-05 4.9e-05 5e-05 
4 3 8.64604e-07 4.96512e-05 5.08703e-05 4.38267e-07 
ITEM: TIMESTEP
400
ITEM: NUMBER OF ATOMS
5
ITEM: BOX BOUNDS ff ff ff
0.0000000000000000e+00 1.0000000000000000e-04
0.0000000000000000e+00 1.0000000000000000e-04
0.0000000000000000e+00 1.0000000000000000e-04
ITEM: ATOMS id type diameter x y z 
2 2 9.66e-07 5e-05 1.36e-05 5e-07 
3 3 8.17617e-07 5.03306e-05 5.11229e-05 7.15634e-07 
1 1 7.55176e-07 5.02161e-05 4.87162e-05 5.02354e-05 
4 3 8.75492e-07 4.96439e-05 5.08676e-05 4.51832e-07 
5 1 8.40436e-07 4.97589e-05 4.93166e-05 4.97374e-05 
ITEM: TIMESTEP
450
ITEM: NUMBER OF ATOMS
5
ITEM: BOX BOUNDS ff ff ff
0.0000000000000000e+00 1.0000000000000000e-04
0.0000000000000000e+00 1.0000000000000000e-04
0.0000000000000000e+00 1.0000000000000000e-04
ITEM: ATOMS id type diameter x y z 
2 2 9.66e-07 5e-05 1.36e-05 5e-07 
3 3 8.27911e-07 5.03305e-05 5.11229e-05 7.15665e-07 
1 1 7.69618e-07 5.02161e-05 4.87162e-05 5.02354e-05 
4 3 8.86515e-07 4.96264e-05 5.08611e-05 4.7691e-07 
5 1 8.56509e-07 4.97589e-05 4.93166e-05 4.97374e-05 
ITEM: TIMESTEP
500
ITEM: NUMBER OF ATOMS
5
ITEM: BOX BOUNDS ff ff ff
0.0000000000000000e+00 1.0000000000000000e-04
0.0000000000000000e+00 1.0000000000000000e-04
0.0000000000000000e+00 1.0000000000000000e-04
ITEM: ATOMS id type diameter x y z 
2 2 9.66e-07 5e-05 1.36e-05 5e-07 
3 3 8.38333e-07 5.03304e-05 5.11229e-05 7.16107e-07 
1 1 7.8433e-07 5.02161e-05 4.87162e-05 5.02354e-05 
4 3 8.97675e-07 4.9599e-05 5.08509e-05 5.08016e-07 
5 1 8.72882e-07 4.97589e-05 4.93166e-05 4.97374e-05 
ITEM: TIMESTEP
550
ITEM: NUMBER OF ATOMS
5
ITEM: BOX BOUNDS ff ff ff
0.0000000000000000e+00 1.0000000000000000e-04
0.0000000000000000e+00 1.0000000000000000e-04
0.0000000000000000e+00 1.0000000000000000e-04
ITEM: ATOMS id type diameter x y z 
2 2 9.66e-07 5e-05 1.36e-05 5e-07 
3 3 8.48884e-07 5.03303e-05 5.11228e-05 7.16714e-07 
1 1 7.99318e-07 5.02161e-05 4.87162e-05 5.02354e-05 
4 3 9.08972e-07 4.95846e-05 5.08455e-05 5.31218e-07 
5 1 8.89562e-07 4.97589e-05 4.93166e-05 4.97374e-05 
ITEM: TIMESTEP
600
ITEM: NUMBER OF ATOMS
5
ITEM: BOX BOUNDS ff ff ff
0.0000000000000000e+00 1.0000000000000000e-04
0.0000000000000000e+00 1.0000000000000000e-04
0.0000000000000000e+00 1.0000000000000000e-04
ITEM: ATOMS id type diameter x y z 
2 2 9.66e-07 5e-05 1.36e-05 5e-07 
3 3 8.59565e-07 5.03301e-05 5.11228e-05 7.17442e-07 
1 1 8.14586e-07 5.02161e-05 4.87162e-05 5.02354e-05 
4 3 9.2041e-07 4.95737e-05 5.08415e-05 5.53409e-07 
5 1 9.06554e-07 4.97589e-05 4.93166e-05 4.97374e-05 
ITEM: TIMESTEP
650
ITEM: NUMBER OF ATOMS
5
ITEM: BOX BOUNDS ff ff ff
0.0000000000000000e+00 1.0000000000000000e-04
0.0000000000000000e+00 1.0000000000000000e-04
0.0000000000000000e+00 1.0000000000000000e-04
ITEM: ATOMS id type diameter x y z 
2 2 9.66e-07 5e-05 1.36e-05 5e-07 
3 3 8.70379e-07 5.03299e-05 5.11227e-05 7.18857e-07 
1 1 8.3014e-07 5.02161e-05 4.87162e-05 5.02354e-05 
4 3 9.31988e-07 4.95569e-05 5.08352e-05 5.83169e-07 
5 1 9.23864e-07 4.97589e-05 4.93166e-05 4.97374e-05 
ITEM: TIMESTEP
700
ITEM: NUMBER OF ATOMS
5
ITEM: BOX BOUNDS ff ff ff
0.0000000000000000e+00 1.0000000000000000e-04
0.0000000000000000e+00 1.0000000000000000e-04
0.0000000000000000e+00 1.0000000000000000e-04
ITEM: ATOMS id type diameter x y z 
2 2 9.66e-07 5e-05 1.36e-05 5e-07 
3 3 8.81326e-07 5.03296e-05 5.11226e-05 7.21145e-07 
1 1 8.45985e-07 5.02161e-05 4.87162e-05 5.02354e-05 
4 3 9.43711e-07 4.9539e-05 5.08286e-05 6.14347e-07 
5 1 9.41498e-07 4.97589e-05 4.93166e-05 4.97374e-05 
ITEM: TIMESTEP
750
ITEM: NUMBER OF ATOMS
5
ITEM: BOX BOUNDS ff ff ff
0.0000000000000000e+00 1.0000000000000000e-04
0.0000000000000000e+00 1.0000000000000000e-04
0.0000000000000000e+00 1.0000000000000000e-04
ITEM: ATOMS id type diameter x y z 
2 2 9.66e-07 5e-05 1.36e-05 5e-07 
3 3 8.92408e-07 5.03294e-05 5.11225e-05 7.23691e-07 
1 1 8.62126e-07 5.02161e-05 4.87162e-05 5.02354e-05 
4 3 9.55578e-07 4.95267e-05 5.0824e-05 6.41368e-07 
5 1 9.59461e-07 4.97589e-05 4.93166e-05 4.97374e-05 
ITEM: TIMESTEP
800
ITEM: NUMBER OF ATOMS
5
ITEM: BOX BOUNDS ff ff ff
0.0000000000000000e+00 1.0000000000000000e-04
0.0000000000000000e+00 1.0000000000000000e-04
0.0000000000000000e+00 1.0000000000000000e-04
ITEM: ATOMS id type diameter x y z 
2 2 9.66e-07 5e-05 1.36e-05 5e-07 
3 3 9.03628e-07 5.03293e-05 5.11224e-05 7.26967e-07 
1 1 8.78569e-07 5.02161e-05 4.87162e-05 5.02354e-05 
4 3 9.67591e-07 4.95154e-05 5.08198e-05 6.6942e-07 
5 1 9.7776e-07 4.97589e-05 4.93166e-05 4.97374e-05 
ITEM: TIMESTEP
850
ITEM: NUMBER OF ATOMS
7
ITEM: BOX BOUNDS ff ff ff
0.0000000000000000e+00 1.0000000000000000e-04
0.0000000000000000e+00 1.0000000000000000e-04
0.0000000000000000e+00 1.0000000000000000e-04
ITEM: ATOMS id type diameter x y z 
2 2 9.66e-07 5e-05 1.36e-05 5e-07 
3 3 9.14986e-07 5.03293e-05 5.11224e-05 7.31934e-07 
1 1 8.95319e-07 5.02161e-05 4.87161e-05 5.02352e-05 
4 3 9.79754e-07 4.95018e-05 5.08148e-05 7.01394e-07 
5 1 9.96401e-07 4.97592e-05 4.93192e-05 4.97402e-05 
6 2 6.67425e-07 5.01471e-05 4.94415e-05 5.0655e-05 
7 2 7.7054e-07 4.9357e-05 4.9963e-05 4.91754e-05 
ITEM: TIMESTEP
900
ITEM: NUMBER OF ATOMS
8
ITEM: BOX BOUNDS ff ff ff
0.0000000000000000e+00 1.0000000000000000e-04
0.0000000000000000e+00 1.0000000000000000e-04
0.0000000000000000e+00 1.0000000000000000e-04
ITEM: ATOMS id type diameter x y z 
2 2 9.66e-07 5e-05 1.36e-05 5e-07 
3 3 9.26485e-07 5.03295e-05 5.11225e-05 7.3828e-07 
1 1 9.12382e-07 5.02397e-05 4.87086e-05 5.02053e-05 
4 3 9.92066e-07 4.94896e-05 5.08102e-05 7.32617e-07 
5 1 7.7815e-07 4.96312e-05 4.92302e-05 5.01914e-05 
6 2 6.67425e-07 5.01491e-05 4.9437e-05 5.0648e-05 
7 2 7.7054e-07 4.93432e-05 4.99694e-05 4.91927e-05 
8 1 8.31889e-07 4.98921e-05 4.94157e-05 4.92848e-05 
ITEM: TIMESTEP
950
ITEM: NUMBER OF ATOMS
9
ITEM: BOX BOUNDS ff ff ff
0.0000000000000000e+00 1.0000000000000000e-04
0.0000000000000000e+00 1.0000000000000000e-04
0.0000000000000000e+00 1.0000000000000000e-04
ITEM: ATOMS id type diameter x y z 
2 2 9.66e-07 5e-05 1.36e-05 5e-07 
3 3 9.38125e-07 5.03299e-05 5.11227e-05 7.43124e-07 
1 1 9.29763e-07 5.02464e-05 4.87096e-05 5.01893e-05 
4 3 7.85847e-07 4.95521e-05 5.09133e-05 3.98658e-07 
5 1 7.92974e-07 4.96325e-05 4.92533e-05 5.02023e-05 
6 2 6.67425e-07 5.01543e-05 4.94354e-05 5.06408e-05 
7 2 7.7054e-07 4.93394e-05 4.9969e-05 4.92008e-05 
8 1 8.47737e-07 4.98986e-05 4.94111e-05 4.93036e-05 
9 3 8.08427e-07 4.94062e-05 5.06971e-05 1.1371e-06 
ITEM: TIMESTEP
1000
ITEM: NUMBER OF ATOMS
9
ITEM: BOX BOUNDS ff ff ff
0.0000000000000000e+00 1.0000000000000000e-04
0.0000000000000000e+00 1.0000000000000000e-04
0.0000000000000000e+00 1.0000000000000000e-04
ITEM: ATOMS id type diameter x y z 
4 3 7.95718e-07 4.95557e-05 5.09203e-05 3.99078e-07 
2 2 9.66e-07 5e-05 1.36e-05 5e-07 
3 3 9.4991e-07 5.03299e-05 5.11227e-05 7.43124e-07 
9 3 8.18582e-07 4.94063e-05 5.06971e-05 1.13724e-06 
8 1 8.63881e-07 4.98998e-05 4.94125e-05 4.93214e-05 
7 2 7.7054e-07 4.93363e-05 4.99679e-05 4.92099e-05 
1 1 9.47468e-07 5.02484e-05 4.8711e-05 5.01821e-05 
5 1 8.08075e-07 4.96332e-05 4.92867e-05 5.02017e-05 
6 2 6.67425e-07 5.01609e-05 4.94387e-05 5.06324e-05 
ITEM: TIMESTEP
1050
ITEM: NUMBER OF ATOMS
9
ITEM: BOX BOUNDS ff ff ff
0.0000000000000000e+00 1.0000000000000000e-04
0.0000000000000000e+00 1.0000000000000000e-04
0.0000000000000000e+00 1.0000000000000000e-04
ITEM: ATOMS id type diameter x y z 
4 3 8.05712e-07 4.95576e-05 5.0923e-05 3.97081e-07 
2 2 9.66e-07 5e-05 1.36e-05 5e-07 
3 3 9.6184e-07 5.03298e-05 5.11224e-05 7.44008e-07 
9 3 8.28863e-07 4.94073e-05 5.06977e-05 1.13765e-06 
8 1 8.80325e-07 4.99012e-05 4.94156e-05 4.93354e-05 
7 2 7.7054e-07 4.93333e-05 4.99669e-05 4.92187e-05 
1 1 9.65504e-07 5.02489e-05 4.87116e-05 5.01782e-05 
5 1 8.23457e-07 4.96391e-05 4.93127e-05 5.01877e-05 
6 2 6.67425e-07 5.01698e-05 4.9442e-05 5.06223e-05 
ITEM: TIMESTEP
1100
ITEM: NUMBER OF ATOMS
9
ITEM: BOX BOUNDS ff ff ff
0.0000000000000000e+00 1.0000000000000000e-04
0.0000000000000000e+00 1.0000000000000000e-04
0.0000000000000000e+00 1.0000000000000000e-04
ITEM: ATOMS id type diameter x y z 
4 3 8.15829e-07 4.9558e-05 5.09245e-05 4.12849e-07 
2 2 9.66e-07 5e-05 1.36e-05 5e-07 
3 3 9.73917e-07 5.03294e-05 5.11216e-05 7.46129e-07 
9 3 8.3927e-07 4.94107e-05 5.06979e-05 1.13863e-06 
8 1 8.97076e-07 4.99044e-05 4.94201e-05 4.93455e-05 
7 2 7.7054e-07 4.93304e-05 4.99661e-05 4.92272e-05 
1 1 9.83876e-07 5.02485e-05 4.87111e-05 5.01761e-05 
5 1 8.39126e-07 4.96455e-05 4.93448e-05 5.0163e-05 
6 2 6.67425e-07 5.01806e-05 4.94457e-05 5.06112e-05 
ITEM: TIMESTEP
1150
ITEM: NUMBER OF ATOMS
10
ITEM: BOX BOUNDS ff ff ff
0.0000000000000000e+00 1.0000000000000000e-04
0.0000000000000000e+00 1.0000000000000000e-04
0.0000000000000000e+00 1.0000000000000000e-04
ITEM: ATOMS id type diameter x y z 
4 3 8.2607e-07 4.95416e-05 5.0935e-05 4.16483e-07 
2 2 9.66e-07 5e-05 1.36e-05 5e-07 
3 3 9.86144e-07 5.03291e-05 5.1121e-05 7.47276e-07 
9 3 8.49806e-07 4.94186e-05 5.06978e-05 1.14088e-06 
8 1 9.1414e-07 4.99143e-05 4.94275e-05 4.93385e-05 
7 2 7.7054e-07 4.93273e-05 4.99652e-05 4.92363e-05 
1 1 8.34065e-07 5.01679e-05 4.82663e-05 4.99267e-05 
5 1 8.55087e-07 4.96288e-05 4.93652e-05 5.01832e-05 
6 2 6.67425e-07 5.01856e-05 4.94806e-05 5.06192e-05 
10 1 7.53354e-07 5.03334e-05 4.90795e-05 5.03823e-05 
ITEM: TIMESTEP
1200
ITEM: NUMBER OF ATOMS
10
ITEM: BOX BOUNDS ff ff ff
0.0000000000000000e+00 1.0000000000000000e-04
0.0000000000000000e+00 1.0000000000000000e-04
0.0000000000000000e+00 1.0000000000000000e-04
ITEM: ATOMS id type diameter x y z 
4 3 8.36439e-07 4.95234e-05 5.09497e-05 4.18844e-07 
2 2 9.66e-07 5e-05 1.36e-05 5e-07 
3 3 9.98521e-07 5.03289e-05 5.11205e-05 7.48082e-07 
9 3 8.60472e-07 4.94417e-05 5.06982e-05 1.15121e-06 
8 1 9.31521e-07 4.99249e-05 4.94357e-05 4.93443e-05 
7 2 7.7054e-07 4.93234e-05 4.99641e-05 4.9247e-05 
1 1 8.49924e-07 5.01722e-05 4.82712e-05 4.99218e-05 
5 1 8.71345e-07 4.9618e-05 4.93596e-05 5.01915e-05 
6 2 6.67425e-07 5.01609e-05 4.95718e-05 5.06643e-05 
10 1 7.67678e-07 5.03676e-05 4.899e-05 5.03227e-05 
ITEM: TIMESTEP
1250
ITEM: NUMBER OF ATOMS
13
ITEM: BOX BOUNDS ff ff ff
0.0000000000000000e+00 1.0000000000000000e-04
0.0000000000000000e+00 1.0000000000000000e-04
0.0000000000000000e+00 1.0000000000000000e-04
ITEM: ATOMS id type diameter x y z 
4 3 8.46935e-07 4.95135e-05 5.09596e-05 4.18574e-07 
2 2 9.66e-07 5e-05 1.36e-05 5e-07 
3 3 7.53144e-07 5.01531e-05 5.07959e-05 8.48456e-07 
9 3 8.7127e-07 4.9455e-05 5.06821e-05 1.21417e-06 
8 1 9.49225e-07 4.99429e-05 4.94474e-05 4.93469e-05 
7 2 7.7054e-07 4.93188e-05 4.99626e-05 4.92589e-05 
1 1 8.66078e-07 5.01747e-05 4.82746e-05 4.99152e-05 
5 1 8.87906e-07 4.96097e-05 4.93595e-05 5.01986e-05 
6 2 6.67425e-07 5.01657e-05 4.95781e-05 5.0657e-05 
10 1 7.82269e-07 5.03726e-05 4.89934e-05 5.0321e-05 
11 3 8.46382e-07 5.05336e-05 5.14737e-05 6.46156e-07 
12 2 6.48673e-07 5.02448e-05 4.74523e-05 4.9982e-05 
13 2 5.88172e-07 5.06577e-05 4.87503e-05 5.0968e-05 
ITEM: TIMESTEP
1300
ITEM: NUMBER OF ATOMS
15
ITEM: BOX BOUNDS ff ff ff
0.0000000000000000e+00 1.0000000000000000e-04
0.0000000000000000e+00 1.0000000000000000e-04
0.0000000000000000e+00 1.0000000000000000e-04
ITEM: ATOMS id type diameter x y z 
4 3 8.5756e-07 4.95061e-05 5.09704e-05 4.196e-07 
2 2 9.66e-07 5e-05 1.36e-05 5e-07 
3 3 7.62593e-07 5.01627e-05 5.07894e-05 8.57725e-07 
9 3 8.82201e-07 4.94425e-05 5.06744e-05 1.23588e-06 
8 1 9.6726e-07 4.99975e-05 4.94618e-05 4.93538e-05 
7 2 7.7054e-07 4.9307e-05 4.99794e-05 4.92934e-05 
1 1 8.82533e-07 5.01822e-05 4.82839e-05 4.99177e-05 
5 1 9.04776e-07 4.95988e-05 4.93575e-05 5.02086e-05 
6 2 6.67425e-07 5.01734e-05 4.958e-05 5.0652e-05 
10 1 7.97131e-07 5.03765e-05 4.89963e-05 5.03184e-05 
11 3 8.57001e-07 5.05343e-05 5.14772e-05 6.44507e-07 
12 2 6.48673e-07 5.02448e-05 4.74523e-05 4.9982e-05 
13 2 5.88172e-07 5.06505e-05 4.87517e-05 5.09563e-05 
14 2 7.99244e-07 4.92976e-05 4.9775e-05 4.87448e-05 
15 2 6.75392e-07 4.95383e-05 4.93512e-05 4.93409e-05 
ITEM: TIMESTEP
1350
ITEM: NUMBER OF ATOMS
15
ITEM: BOX BOUNDS ff ff ff
0.0000000000000000e+00 1.0000000000000000e-04
0.0000000000000000e+00 1.0000000000000000e-04
0.0000000000000000e+00 1.0000000000000000e-04
ITEM: ATOMS id type diameter x y z 
4 3 8.68317e-07 4.9502e-05 5.09748e-05 4.38703e-07 
2 2 9.66e-07 5e-05 1.36e-05 5e-07 
3 3 7.72159e-07 5.01695e-05 5.07825e-05 8.59724e-07 
9 3 8.93267e-07 4.94312e-05 5.06734e-05 1.23893e-06 
8 1 9.8563e-07 5.0173e-05 4.95027e-05 4.93706e-05 
7 2 7.7054e-07 4.93065e-05 5.00209e-05 4.93865e-05 
1 1 8.99293e-07 5.01826e-05 4.82888e-05 4.9908e-05 
5 1 9.21959e-07 4.95997e-05 4.93587e-05 5.02067e-05 
6 2 6.67425e-07 5.01783e-05 4.95818e-05 5.06483e-05 
10 1 8.1227e-07 5.03872e-05 4.90031e-05 5.03073e-05 
11 3 8.67751e-07 5.05445e-05 5.14846e-05 6.45523e-07 
12 2 6.48673e-07 5.02448e-05 4.74523e-05 4.9982e-05 
13 2 5.88172e-07 5.06432e-05 4.87535e-05 5.09453e-05 
14 2 7.99244e-07 4.92986e-05 4.97408e-05 4.86592e-05 
15 2 6.75392e-07 4.93833e-05 4.92847e-05 4.93527e-05 
ITEM: TIMESTEP
1400
ITEM: NUMBER OF ATOMS
16
ITEM: BOX BOUNDS ff ff ff
0.0000000000000000e+00 1.0000000000000000e-04
0.0000000000000000e+00 1.0000000000000000e-04
0.0000000000000000e+00 1.0000000000000000e-04
ITEM: ATOMS id type diameter x y z 
4 3 8.79206e-07 4.94988e-05 5.09877e-05 4.39558e-07 
2 2 9.66e-07 5e-05 1.36e-05 5e-07 
3 3 7.81842e-07 5.01758e-05 5.0776e-05 8.6569e-07 
9 3 9.04469e-07 4.94145e-05 5.06692e-05 1.24809e-06 
8 1 7.92247e-07 4.98274e-05 4.93698e-05 4.93692e-05 
7 2 7.7054e-07 4.93087e-05 5.00223e-05 4.93928e-05 
1 1 9.16366e-07 5.01672e-05 4.82985e-05 4.98968e-05 
5 1 9.39462e-07 4.95977e-05 4.93571e-05 5.02087e-05 
6 2 6.67425e-07 5.0186e-05 4.95856e-05 5.0642e-05 
10 1 8.2769e-07 5.04109e-05 4.90095e-05 5.02965e-05 
11 3 8.78633e-07 5.0547e-05 5.14843e-05 6.47002e-07 
12 2 6.48673e-07 5.02448e-05 4.74523e-05 4.9982e-05 
13 2 5.88172e-07 5.06272e-05 4.87669e-05 5.09361e-05 
14 2 7.99244e-07 4.92992e-05 4.97421e-05 4.86628e-05 
15 2 6.75392e-07 4.9303e-05 4.92454e-05 4.93637e-05 
16 1 8.01986e-07 5.06197e-05 4.96393e-05 4.93879e-05 
ITEM: TIMESTEP
1450
ITEM: NUMBER OF ATOMS
16
ITEM: BOX BOUNDS ff ff ff
0.0000000000000000e+00 1.0000000000000000e-04
0.0000000000000000e+00 1.0000000000000000e-04
0.0000000000000000e+00 1.0000000000000000e-04
ITEM: ATOMS id type diameter x y z 
4 3 8.9023e-07 4.94958e-05 5.09978e-05 4.38795e-07 
2 2 9.66e-07 5e-05 1.36e-05 5e-07 
3 3 7.91645e-07 5.01806e-05 5.07743e-05 8.68762e-07 
9 3 9.15809e-07 4.93989e-05 5.0666e-05 1.25328e-06 
8 1 8.07282e-07 4.98899e-05 4.9373e-05 4.93721e-05 
7 2 7.7054e-07 4.93202e-05 5.00222e-05 4.94019e-05 
1 1 9.33756e-07 5.01495e-05 4.83064e-05 4.98894e-05 
5 1 9.5729e-07 4.96036e-05 4.93481e-05 5.0205e-05 
6 2 6.67425e-07 5.02016e-05 4.9595e-05 5.06292e-05 
10 1 8.43398e-07 5.04499e-05 4.90176e-05 5.02816e-05 
11 3 8.89649e-07 5.05471e-05 5.14843e-05 6.47091e-07 
12 2 6.48673e-07 5.02447e-05 4.74522e-05 4.9982e-05 
13 2 5.88172e-07 5.06104e-05 4.87743e-05 5.0932e-05 
14 2 7.99244e-07 4.92997e-05 4.97403e-05 4.86704e-05 
15 2 6.75392e-07 4.92037e-05 4.92304e-05 4.93635e-05 
16 1 8.17205e-07 5.06163e-05 4.96462e-05 4.94118e-05 
ITEM: TIMESTEP
1500
ITEM: NUMBER OF ATOMS
16
ITEM: BOX BOUNDS ff ff ff
0.0000000000000000e+00 1.0000000000000000e-04
0.0000000000000000e+00 1.0000000000000000e-04
0.0000000000000000e+00 1.0000000000000000e-04
ITEM: ATOMS id type diameter x y z 
4 3 9.01389e-07 4.94872e-05 5.1021e-05 4.4147e-07 
2 2 9.66e-07 5e-05 1.36e-05 5e-07 
3 3 8.01569e-07 5.01749e-05 5.07732e-05 8.66853e-07 
9 3 9.27289e-07 4.93976e-05 5.06656e-05 1.25303e-06 
8 1 8.22596e-07 4.98948e-05 4.93541e-05 4.93676e-05 
7 2 7.7054e-07 4.93337e-05 5.00196e-05 4.94108e-05 
1 1 9.51469e-07 5.01445e-05 4.8306e-05 4.98936e-05 
5 1 9.7545e-07 4.96023e-05 4.93393e-05 5.02112e-05 
6 2 6.67425e-07 5.02192e-05 4.96032e-05 5.06173e-05 
10 1 8.59397e-07 5.04948e-05 4.90255e-05 5.02646e-05 
11 3 9.00802e-07 5.0547e-05 5.14843e-05 6.47029e-07 
12 2 6.48673e-07 5.02445e-05 4.7452e-05 4.99821e-05 
13 2 5.88172e-07 5.05947e-05 4.8774e-05 5.09345e-05 
14 2 7.99244e-07 4.9301e-05 4.97376e-05 4.86776e-05 
15 2 6.75392e-07 4.91974e-05 4.92432e-05 4.93596e-05 
16 1 8.32708e-07 5.06162e-05 4.96619e-05 4.94446e-05 
ITEM: TIMESTEP
1550
ITEM: NUMBER OF ATOMS
16
ITEM: BOX BOUNDS ff ff ff
0.0000000000000000e+00 1.0000000000000000e-04
0.0000000000000000e+00 1.0000000000000000e-04
0.0000000000000000e+00 1.0000000000000000e-04
ITEM: ATOMS id type diameter x y z 
4 3 9.12686e-07 4.94829e-05 5.10322e-05 4.62007e-07 
2 2 9.66e-07 5e-05 1.36e-05 5e-07 
3 3 8.11614e-07 5.01815e-05 5.07656e-05 8.73277e-07 
9 3 9.38911e-07 4.93972e-05 5.0665e-05 1.25273e-06 
8 1 8.38194e-07 4.99017e-05 4.93285e-05 4.93582e-05 
7 2 7.7054e-07 4.93479e-05 5.00161e-05 4.94186e-05 
1 1 9.69511e-07 5.01379e-05 4.83063e-05 4.98984e-05 
5 1 9.93947e-07 4.9599e-05 4.93328e-05 5.02197e-05 
6 2 6.67425e-07 5.02372e-05 4.96093e-05 5.06064e-05 
10 1 8.75693e-07 5.05435e-05 4.90311e-05 5.02519e-05 
11 3 9.12091e-07 5.05465e-05 5.14845e-05 6.46707e-07 
12 2 6.48673e-07 5.02439e-05 4.74514e-05 4.99823e-05 
13 2 5.88172e-07 5.05765e-05 4.87736e-05 5.09362e-05 
14 2 7.99244e-07 4.93025e-05 4.97347e-05 4.86839e-05 
15 2 6.75392e-07 4.91953e-05 4.92521e-05 4.93556e-05 
16 1 8.48498e-07 5.06146e-05 4.96835e-05 4.94796e-05 
ITEM: TIMESTEP
1600
ITEM: NUMBER OF ATOMS
17
ITEM: BOX BOUNDS ff ff ff
0.0000000000000000e+00 1.0000000000000000e-04
0.0000000000000000e+00 1.0000000000000000e-04
0.0000000000000000e+00 1.0000000000000000e-04
ITEM: ATOMS id type diameter x y z 
4 3 9.24123e-07 4.94864e-05 5.10543e-05 4.6581e-07 
2 2 9.66e-07 5e-05 1.36e-05 5e-07 
3 3 8.21784e-07 5.01945e-05 5.07536e-05 8.84548e-07 
9 3 9.50676e-07 4.9384e-05 5.06404e-05 1.25948e-06 
8 1 8.54082e-07 4.99094e-05 4.92992e-05 4.9356e-05 
7 2 7.7054e-07 4.93648e-05 5.00074e-05 4.94311e-05 
1 1 9.87889e-07 5.01713e-05 4.82536e-05 4.98815e-05 
5 1 8.1428e-07 4.93667e-05 4.97595e-05 5.02756e-05 
6 2 6.67425e-07 5.02389e-05 4.96155e-05 5.0596e-05 
10 1 8.92292e-07 5.05952e-05 4.9039e-05 5.02402e-05 
11 3 9.2352e-07 5.05461e-05 5.14846e-05 6.46511e-07 
12 2 6.48673e-07 5.02425e-05 4.74503e-05 4.99828e-05 
13 2 5.88172e-07 5.05607e-05 4.87702e-05 5.09354e-05 
14 2 7.99244e-07 4.93042e-05 4.97319e-05 4.86897e-05 
15 2 6.75392e-07 4.91934e-05 4.9261e-05 4.93619e-05 
16 1 8.64581e-07 5.06093e-05 4.97051e-05 4.95109e-05 
17 1 7.93142e-07 4.97653e-05 4.89773e-05 5.01779e-05 
ITEM: TIMESTEP
1650
ITEM: NUMBER OF ATOMS
18
ITEM: BOX BOUNDS ff ff ff
0.0000000000000000e+00 1.0000000000000000e-04
0.0000000000000000e+00 1.0000000000000000e-04
0.0000000000000000e+00 1.0000000000000000e-04
ITEM: ATOMS id type diameter x y z 
4 3 9.357e-07 4.94891e-05 5.10685e-05 4.65395e-07 
2 2 9.66e-07 5e-05 1.36e-05 5e-07 
3 3 8.32079e-07 5.01988e-05 5.0752e-05 8.86967e-07 
9 3 9.62585e-07 4.93834e-05 5.06341e-05 1.27726e-06 
8 1 8.70266e-07 4.99186e-05 4.92656e-05 4.93527e-05 
7 2 7.7054e-07 4.93822e-05 4.99959e-05 4.94433e-05 
1 1 8.13399e-07 4.99465e-05 4.82323e-05 5.03299e-05 
5 1 8.29709e-07 4.93708e-05 4.97584e-05 5.02692e-05 
6 2 6.67425e-07 5.0229e-05 4.96188e-05 5.05826e-05 
10 1 9.09199e-07 5.06075e-05 4.90485e-05 5.02336e-05 
11 3 9.35089e-07 5.05461e-05 5.14847e-05 6.46475e-07 
12 2 6.48673e-07 5.02419e-05 4.74498e-05 4.99827e-05 
13 2 5.88172e-07 5.05464e-05 4.8767e-05 5.09333e-05 
14 2 7.99244e-07 4.93062e-05 4.97286e-05 4.86955e-05 
15 2 6.75392e-07 4.91915e-05 4.927e-05 4.93752e-05 
16 1 8.80963e-07 5.06002e-05 4.97266e-05 4.95369e-05 
17 1 8.0817e-07 4.97466e-05 4.89978e-05 5.01646e-05 
18 1 7.83948e-07 5.04061e-05 4.82684e-05 4.94545e-05 
ITEM: TIMESTEP
1700
ITEM: NUMBER OF ATOMS
21
ITEM: BOX BOUNDS ff ff ff
0.0000000000000000e+00 1.0000000000000000e-04
0.0000000000000000e+00 1.0000000000000000e-04
0.0000000000000000e+00 1.0000000000000000e-04
ITEM: ATOMS id type diameter x y z 
4 3 9.47419e-07 4.94766e-05 5.10822e-05 4.7051e-07 
2 2 9.66e-07 5e-05 1.36e-05 5e-07 
3 3 8.42501e-07 5.01801e-05 5.07439e-05 8.80692e-07 
9 3 9.74642e-07 4.93927e-05 5.0641e-05 1.30002e-06 
8 1 8.86749e-07 4.99293e-05 4.92287e-05 4.93439e-05 
7 2 7.7054e-07 4.93989e-05 4.99842e-05 4.94527e-05 
1 1 8.28805e-07 4.99553e-05 4.82409e-05 5.03488e-05 
5 1 8.45424e-07 4.93734e-05 4.97587e-05 5.02646e-05 
6 2 6.67425e-07 5.02187e-05 4.9621e-05 5.05692e-05 
10 1 9.2642e-07 5.06152e-05 4.90542e-05 5.0229e-05 
11 3 9.46801e-07 5.05456e-05 5.14848e-05 6.46261e-07 
12 2 6.48673e-07 5.02432e-05 4.745e-05 4.99816e-05 
13 2 5.88172e-07 5.05329e-05 4.87677e-05 5.09323e-05 
14 2 7.99244e-07 4.93084e-05 4.97251e-05 4.87011e-05 
15 2 6.75392e-07 4.91907e-05 4.92769e-05 4.93866e-05 
16 1 8.97649e-07 5.05878e-05 4.97484e-05 4.95563e-05 
17 1 8.23478e-07 4.97482e-05 4.89972e-05 5.01498e-05 
18 1 7.98796e-07 5.04019e-05 4.82671e-05 4.94622e-05 
19 2 6.87095e-07 4.98778e-05 4.74775e-05 5.06134e-05 
20 2 6.82275e-07 5.13083e-05 4.91539e-05 4.96939e-05 
21 2 6.60314e-07 4.97482e-05 4.80193e-05 4.98026e-05 
ITEM: TIMESTEP
1750
ITEM: NUMBER OF ATOMS
23
ITEM: BOX BOUNDS ff ff ff
0.0000000000000000e+00 1.0000000000000000e-04
0.0000000000000000e+00 1.0000000000000000e-04
0.0000000000000000e+00 1.0000000000000000e-04
ITEM: ATOMS id type diameter x y z 
4 3 9.59283e-07 4.94684e-05 5.10903e-05 4.77137e-07 
2 2 9.66e-07 5e-05 1.36e-05 5e-07 
3 3 8.53051e-07 5.01886e-05 5.07198e-05 8.58917e-07 
9 3 9.86847e-07 4.93981e-05 5.06305e-05 1.32624e-06 
8 1 9.03538e-07 4.99106e-05 4.93224e-05 4.92934e-05 
7 2 7.7054e-07 4.94257e-05 4.99641e-05 4.9473e-05 
1 1 8.44497e-07 4.99901e-05 4.82542e-05 5.04107e-05 
5 1 8.61431e-07 4.93748e-05 4.97572e-05 5.0262e-05 
6 2 6.67425e-07 5.01926e-05 4.96214e-05 5.05437e-05 
10 1 9.4396e-07 5.06128e-05 4.90545e-05 5.02184e-05 
11 3 9.58658e-07 5.05434e-05 5.14858e-05 6.45554e-07 
12 2 6.48673e-07 5.02423e-05 4.74498e-05 4.99813e-05 
13 2 5.88172e-07 5.05215e-05 4.87701e-05 5.09319e-05 
14 2 7.99244e-07 4.93142e-05 4.97167e-05 4.87123e-05 
15 2 6.75392e-07 4.91902e-05 4.92791e-05 4.94036e-05 
16 1 9.14645e-07 5.05767e-05 4.97633e-05 4.95781e-05 
17 1 8.39069e-07 4.97358e-05 4.89967e-05 5.01438e-05 
18 1 8.1392e-07 5.04441e-05 4.82481e-05 4.94799e-05 
19 2 6.87095e-07 4.98785e-05 4.74765e-05 5.06057e-05 
20 2 6.82275e-07 5.12895e-05 4.91414e-05 4.96863e-05 
21 2 6.60314e-07 4.97361e-05 4.80086e-05 4.97515e-05 
22 2 6.58851e-07 4.88282e-05 5.03165e-05 5.00201e-05 
23 2 6.26268e-07 5.00067e-05 4.87195e-05 4.94543e-05 
ITEM: TIMESTEP
1800
ITEM: NUMBER OF ATOMS
23
ITEM: BOX BOUNDS ff ff ff
0.0000000000000000e+00 1.0000000000000000e-04
0.0000000000000000e+00 1.0000000000000000e-04
0.0000000000000000e+00 1.0000000000000000e-04
ITEM: ATOMS id type diameter x y z 
4 3 9.71293e-07 4.94631e-05 5.10955e-05 4.83415e-07 
2 2 9.66e-07 5e-05 1.36e-05 5e-07 
3 3 8.63731e-07 5.01719e-05 5.07023e-05 8.48035e-07 
9 3 9.99202e-07 4.93842e-05 5.06255e-05 1.33182e-06 
8 1 9.20639e-07 4.99096e-05 4.93541e-05 4.92083e-05 
7 2 7.7054e-07 4.94337e-05 4.99667e-05 4.94746e-05 
1 1 8.6048e-07 5.00015e-05 4.82595e-05 5.04134e-05 
5 1 8.77734e-07 4.93718e-05 4.97575e-05 5.02664e-05 
6 2 6.67425e-07 5.01677e-05 4.962e-05 5.05192e-05 
10 1 9.61826e-07 5.06063e-05 4.90488e-05 5.02078e-05 
11 3 9.7066e-07 5.05413e-05 5.14867e-05 6.44717e-07 
12 2 6.48673e-07 5.02418e-05 4.74495e-05 4.99802e-05 
13 2 5.88172e-07 5.05106e-05 4.8773e-05 5.09315e-05 
14 2 7.99244e-07 4.93154e-05 4.97102e-05 4.87193e-05 
15 2 6.75392e-07 4.91874e-05 4.92819e-05 4.94352e-05 
16 1 9.31956e-07 5.05743e-05 4.97836e-05 4.96298e-05 
17 1 8.54949e-07 4.97161e-05 4.89952e-05 5.01247e-05 
18 1 8.29324e-07 5.05022e-05 4.82226e-05 4.94948e-05 
19 2 6.87095e-07 4.9879e-05 4.74755e-05 5.05979e-05 
20 2 6.82275e-07 5.12723e-05 4.91305e-05 4.96814e-05 
21 2 6.60314e-07 4.97343e-05 4.80114e-05 4.97454e-05 
22 2 6.58851e-07 4.88359e-05 5.03036e-05 5.00109e-05 
23 2 6.26268e-07 4.99645e-05 4.86895e-05 4.95037e-05 
ITEM: TIMESTEP
1850
ITEM: NUMBER OF ATOMS
24
ITEM: BOX BOUNDS ff ff ff
0.0000000000000000e+00 1.0000000000000000e-04
0.0000000000000000e+00 1.0000000000000000e-04
0.0000000000000000e+00 1.0000000000000000e-04
ITEM: ATOMS id type diameter x y z 
4 3 9.83451e-07 4.9467e-05 5.11043e-05 4.89462e-07 
2 2 9.66e-07 5e-05 1.36e-05 5e-07 
3 3 8.74543e-07 5.02386e-05 5.06595e-05 8.41155e-07 
9 3 8.07583e-07 4.94578e-05 5.05238e-05 1.05427e-06 
8 1 9.38056e-07 4.99141e-05 4.93449e-05 4.91699e-05 
7 2 7.7054e-07 4.94438e-05 4.99631e-05 4.948e-05 
1 1 8.7676e-07 5.00098e-05 4.82538e-05 5.04066e-05 
5 1 8.9434e-07 4.93739e-05 4.97675e-05 5.02813e-05 
6 2 6.67425e-07 5.01449e-05 4.96181e-05 5.04967e-05 
10 1 9.80022e-07 5.06158e-05 4.90504e-05 5.0191e-05 
11 3 9.8281e-07 5.05371e-05 5.14885e-05 6.44118e-07 
12 2 6.48673e-07 5.02412e-05 4.74493e-05 4.9979e-05 
13 2 5.88172e-07 5.04991e-05 4.87759e-05 5.09309e-05 
14 2 7.99244e-07 4.93079e-05 4.97085e-05 4.87233e-05 
15 2 6.75392e-07 4.91899e-05 4.92857e-05 4.94496e-05 
16 1 9.49587e-07 5.05666e-05 4.98161e-05 4.96411e-05 
17 1 8.71124e-07 4.96997e-05 4.89911e-05 5.01194e-05 
18 1 8.45014e-07 5.05144e-05 4.82323e-05 4.95033e-05 
19 2 6.87095e-07 4.98792e-05 4.74746e-05 5.05906e-05 
20 2 6.82275e-07 5.12561e-05 4.91209e-05 4.96762e-05 
21 2 6.60314e-07 4.9731e-05 4.8017e-05 4.97434e-05 
22 2 6.58851e-07 4.88431e-05 5.02921e-05 5.00027e-05 
23 2 6.26268e-07 4.99522e-05 4.86812e-05 4.95119e-05 
24 3 7.98351e-07 4.92367e-05 5.05881e-05 1.77123e-06 
ITEM: TIMESTEP
1900
ITEM: NUMBER OF ATOMS
26
ITEM: BOX BOUNDS ff ff ff
0.0000000000000000e+00 1.0000000000000000e-04
0.0000000000000000e+00 1.0000000000000000e-04
0.0000000000000000e+00 1.0000000000000000e-04
ITEM: ATOMS id type diameter x y z 
4 3 9.95759e-07 4.94673e-05 5.11113e-05 4.95503e-07 
2 2 9.66e-07 5e-05 1.36e-05 5e-07 
3 3 8.85487e-07 5.02567e-05 5.06401e-05 8.39454e-07 
9 3 8.1769e-07 4.94487e-05 5.04468e-05 1.07169e-06 
8 1 9.55796e-07 4.99152e-05 4.93477e-05 4.91492e-05 
7 2 7.7054e-07 4.94535e-05 4.99613e-05 4.94848e-05 
1 1 8.9334e-07 5.0021e-05 4.82452e-05 5.03986e-05 
5 1 9.11253e-07 4.93732e-05 4.97791e-05 5.03009e-05 
6 2 6.67425e-07 5.01298e-05 4.96154e-05 5.04825e-05 
10 1 9.98556e-07 5.06335e-05 4.90454e-05 5.01851e-05 
11 3 9.95109e-07 5.05358e-05 5.1489e-05 6.44049e-07 
12 2 6.48673e-07 5.02407e-05 4.74491e-05 4.99774e-05 
13 2 5.88172e-07 5.04872e-05 4.87791e-05 5.093e-05 
14 2 7.99244e-07 4.92021e-05 4.95344e-05 4.87319e-05 
15 2 6.75392e-07 4.9191e-05 4.92905e-05 4.94546e-05 
16 1 9.67545e-07 5.05609e-05 4.98394e-05 4.96531e-05 
17 1 8.87598e-07 4.96945e-05 4.89887e-05 5.01172e-05 
18 1 8.60995e-07 5.05219e-05 4.82405e-05 4.9509e-05 
19 2 6.87095e-07 4.98791e-05 4.74735e-05 5.05836e-05 
20 2 6.82275e-07 5.12457e-05 4.91159e-05 4.96646e-05 
21 2 6.60314e-07 4.97237e-05 4.80315e-05 4.97397e-05 
22 2 6.58851e-07 4.88504e-05 5.0282e-05 4.99947e-05 
23 2 6.26268e-07 4.99421e-05 4.8671e-05 4.95022e-05 
24 3 8.08342e-07 4.9222e-05 5.06193e-05 1.81183e-06 
25 2 7.45655e-07 4.95366e-05 5.01747e-05 4.86926e-05 