  Granular Flow Simulation 

       1  atoms 
       1 atom types 
       1 nutrients

   0.0   1.000000e-04  xlo xhi 
   0.0   1.000000e-04  ylo yhi 
   0.0   1.000000e-04  zlo zhi 

 Atoms

     1 1 1.0839e-6 150 5e-05 5.1e-05 0.2e-05 1.4307e-6 hety

 Nutrients

     1 o2 l  8.00e-02  8.00e-02  8.00e-02  8.00e-02  8.00e-02  8.00e-02  8.00e-02

 Diffusion Coeffs
     
     o2 0.4e-9

 Ks
     
     hety 0.01

 Growth

     hety 0.000069

 Yield
    
     hety 0.61
  
 Catabolism Coeffs
         
    hety -2

 Anabolism Coeffs
          
    hety 0 
 
 Nutrient Energy

    o2 inf 1.64e1 inf inf inf 2

 Type Energy

    hety inf -67 inf inf inf 2

 Dissipation

    hety 115
