ITEM: TIMESTEP
0
ITEM: NUMBER OF ATOMS
2
ITEM: BOX BOUNDS ff ff ff
0.0000000000000000e+00 1.0000000000000000e-04
0.0000000000000000e+00 1.0000000000000000e-04
0.0000000000000000e+00 1.0000000000000000e-04
ITEM: ATOMS id type diameter x y z vx vy vz fx fy fz 
2 2 7.8e-07 5e-05 5e-05 2e-06 0 0 0 0 0 0 
1 1 7.8e-07 5e-05 5.2e-05 2e-06 0 0 0 0 0 0 
ITEM: TIMESTEP
1800
ITEM: NUMBER OF ATOMS
7
ITEM: BOX BOUNDS ff ff ff
0.0000000000000000e+00 1.0000000000000000e-04
0.0000000000000000e+00 1.0000000000000000e-04
0.0000000000000000e+00 1.0000000000000000e-04
ITEM: ATOMS id type diameter x y z vx vy vz fx fy fz 
4 2 6.35292e-07 4.98028e-05 5.2622e-05 1.56497e-06 -1.76689e-10 -8.52018e-10 -4.92795e-10 -1.76266e-11 -8.49981e-11 -4.91617e-11 
2 2 7.8e-07 5.00005e-05 5.001e-05 2.00063e-06 -5.83974e-11 -9.97135e-10 -4.80857e-11 -5.82325e-12 -9.94318e-11 -4.79498e-12 
5 2 6.29289e-07 5.00669e-05 5.12073e-05 2.0778e-06 8.38924e-11 -8.58208e-10 -5.064e-10 8.40772e-12 -8.60098e-11 -5.07515e-11 
1 1 9.31363e-07 4.99994e-05 5.20082e-05 2.0058e-06 8.97537e-11 -8.72897e-10 -4.79579e-10 9.57792e-12 -9.31498e-11 -5.11775e-11 
3 2 5.96815e-07 4.99358e-05 5.26413e-05 2.36777e-06 -8.61597e-11 8.6425e-10 4.9563e-10 -9.15044e-12 9.17862e-11 5.26375e-11 
6 2 6.53489e-07 5.03136e-05 5.17407e-05 2.71966e-06 8.57047e-11 -8.66537e-10 -4.917e-10 8.5685e-12 -8.66338e-11 -4.91587e-11 
7 2 7.40685e-07 4.92522e-05 5.22138e-05 1.43909e-06 9.80744e-10 -2.81091e-11 -1.93266e-10 9.81882e-11 -2.81418e-12 -1.9349e-11 
ITEM: TIMESTEP
3600
ITEM: NUMBER OF ATOMS
12
ITEM: BOX BOUNDS ff ff ff
0.0000000000000000e+00 1.0000000000000000e-04
0.0000000000000000e+00 1.0000000000000000e-04
0.0000000000000000e+00 1.0000000000000000e-04
ITEM: ATOMS id type diameter x y z vx vy vz fx fy fz 
7 2 7.40685e-07 4.92629e-05 5.21264e-05 1.35449e-06 9.35302e-10 2.60856e-10 2.39092e-10 9.17348e-11 2.55849e-11 2.34503e-11 
8 2 7.01922e-07 4.99711e-05 5.20194e-05 1.11828e-06 4.64413e-11 8.17627e-12 -9.98888e-10 5.25243e-12 9.24721e-13 -1.12972e-10 
10 2 7.46104e-07 5.07302e-05 5.21126e-05 1.40157e-06 2.42708e-10 -9.69682e-10 -2.84582e-11 2.42831e-11 -9.70171e-11 -2.84726e-12 
5 2 6.29289e-07 5.01773e-05 5.11796e-05 1.91875e-06 -6.06942e-10 3.36676e-10 7.1991e-10 -5.56765e-11 3.08842e-11 6.60393e-11 
1 1 1.11386e-06 4.99353e-05 5.19825e-05 1.95908e-06 -3.38396e-11 -7.77186e-10 6.2836e-10 -4.24548e-12 -9.75049e-11 7.88334e-11 
4 2 6.35292e-07 4.98994e-05 5.26551e-05 1.52223e-06 -1.54037e-10 8.48207e-10 -5.06771e-10 -1.76036e-11 9.69345e-11 -5.79147e-11 
2 2 7.8e-07 4.99979e-05 5.00099e-05 2.00574e-06 -5.7783e-11 -9.97325e-10 -4.47731e-11 -5.74779e-12 -9.92059e-11 -4.45367e-12 
9 2 8.00005e-07 4.9807e-05 5.10481e-05 2.48018e-06 5.30152e-10 2.2403e-10 -8.17771e-10 4.99331e-11 2.11006e-11 -7.70229e-11 
11 2 8.63826e-07 4.91303e-05 5.16694e-05 2.44043e-06 9.27407e-10 -1.58844e-10 -3.38653e-10 9.34886e-11 -1.60125e-11 -3.41384e-11 
3 2 5.96815e-07 4.98993e-05 5.26636e-05 2.3327e-06 3.81115e-12 8.18795e-10 5.74073e-10 4.39162e-13 9.43504e-11 6.61509e-11 
6 2 6.53489e-07 5.03027e-05 5.17309e-05 2.72083e-06 -4.27671e-10 2.71187e-10 -8.62296e-10 -4.27848e-11 2.71299e-11 -8.62654e-11 
12 2 8.45086e-07 4.91799e-05 5.28093e-05 1.74958e-06 6.13474e-10 -6.83341e-10 3.95848e-10 6.14567e-11 -6.84558e-11 3.96553e-11 
ITEM: TIMESTEP
5400
ITEM: NUMBER OF ATOMS
17
ITEM: BOX BOUNDS ff ff ff
0.0000000000000000e+00 1.0000000000000000e-04
0.0000000000000000e+00 1.0000000000000000e-04
0.0000000000000000e+00 1.0000000000000000e-04
ITEM: ATOMS id type diameter x y z vx vy vz fx fy fz 
16 2 1.0477e-06 4.92853e-05 5.1412e-05 8.76122e-07 -3.72713e-10 3.22266e-10 8.7019e-10 -3.72612e-11 3.22179e-11 8.69956e-11 
13 2 8.48524e-07 5.04133e-05 5.15629e-05 9.53291e-07 6.15214e-10 -6.16375e-10 -4.91522e-10 7.15393e-11 -7.16743e-11 -5.71559e-11 
15 2 9.90597e-07 4.91297e-05 5.24616e-05 8.58667e-07 -4.57229e-10 -7.94903e-10 -3.98838e-10 -4.71757e-11 -8.20159e-11 -4.1151e-11 
8 2 7.01922e-07 4.99657e-05 5.21224e-05 9.28276e-07 -4.25144e-10 6.57651e-10 -6.2189e-10 -5.08517e-11 7.86621e-11 -7.43847e-11 
10 2 7.46104e-07 5.07929e-05 5.21351e-05 1.40655e-06 8.72097e-10 2.38774e-10 -4.27123e-10 9.8269e-11 2.69054e-11 -4.81288e-11 
14 2 9.22074e-07 4.95634e-05 5.32054e-05 1.23243e-06 5.01727e-10 7.5806e-10 4.16672e-10 5.18699e-11 7.83703e-11 4.30767e-11 
5 2 6.29289e-07 5.0148e-05 5.09965e-05 2.00559e-06 -4.91137e-10 8.57882e-10 -1.51073e-10 -4.33495e-11 7.57197e-11 -1.33343e-11 
7 2 7.40685e-07 4.90025e-05 5.19481e-05 1.56575e-06 -9.3948e-10 -4.76784e-12 -3.4257e-10 -1.00185e-10 -5.08436e-13 -3.65311e-11 
1 1 1.33001e-06 4.99614e-05 5.18822e-05 1.848e-06 -2.1807e-10 -6.17521e-10 7.5572e-10 -2.26868e-11 -6.42434e-11 7.86209e-11 
12 2 8.45086e-07 4.91121e-05 5.27766e-05 1.93095e-06 -4.01194e-10 -6.60842e-11 9.13606e-10 -3.99879e-11 -6.58677e-12 9.10613e-11 
4 2 6.35292e-07 5.00918e-05 5.27054e-05 1.52577e-06 8.97651e-11 9.41177e-10 -3.25773e-10 1.05754e-11 1.10882e-10 -3.83801e-11 
2 2 7.8e-07 4.99954e-05 5.00097e-05 2.01229e-06 -5.54784e-11 -9.97425e-10 -4.54384e-11 -5.52554e-12 -9.93415e-11 -4.52557e-12 
11 2 8.63826e-07 4.91116e-05 5.17406e-05 2.44368e-06 5.89308e-10 5.52194e-10 -5.89744e-10 5.26857e-11 4.93676e-11 -5.27246e-11 
3 2 5.96815e-07 4.98538e-05 5.26889e-05 2.28794e-06 -1.15095e-10 8.59949e-10 4.97233e-10 -1.23685e-11 9.24136e-11 5.34346e-11 
9 2 8.00005e-07 4.9618e-05 5.11995e-05 2.46543e-06 -4.54402e-11 6.78344e-10 -7.33338e-10 -4.47703e-12 6.68343e-11 -7.22527e-11 
6 2 6.53489e-07 5.02689e-05 5.17215e-05 2.73251e-06 -3.45579e-10 1.86326e-10 -9.19705e-10 -3.17725e-11 1.71308e-11 -8.45575e-11 
17 2 1.09059e-06 5.01566e-05 5.08047e-05 2.85766e-06 -5.16506e-10 -4.6731e-10 7.17525e-10 -5.2954e-11 -4.79103e-11 7.35632e-11 
ITEM: TIMESTEP
7200
ITEM: NUMBER OF ATOMS
23
ITEM: BOX BOUNDS ff ff ff
0.0000000000000000e+00 1.0000000000000000e-04
0.0000000000000000e+00 1.0000000000000000e-04
0.0000000000000000e+00 1.0000000000000000e-04
ITEM: ATOMS id type diameter x y z vx vy vz fx fy fz 
22 2 9.43358e-07 5.01185e-05 5.04261e-05 8.46954e-07 -4.05005e-10 -7.8766e-10 4.64287e-10 -4.05297e-11 -7.8823e-11 4.64623e-11 
16 2 1.0477e-06 4.9001e-05 5.14389e-05 7.68371e-07 8.91458e-10 3.97092e-10 -2.18221e-10 8.91457e-11 3.97091e-11 -2.1822e-11 
13 2 8.48524e-07 5.08466e-05 5.14048e-05 9.35747e-07 7.84281e-10 -4.11245e-11 -6.19041e-10 8.64805e-11 -4.53469e-12 -6.826e-11 
19 2 1.08049e-06 4.99698e-05 5.18248e-05 5.37043e-07 -1.38544e-11 -1.02572e-11 9.99851e-10 -8.873e-08 -6.56919e-08 6.4035e-06 
15 2 9.90597e-07 4.90997e-05 5.2463e-05 8.61264e-07 -4.86829e-10 -7.6766e-10 -4.16769e-10 -4.96339e-11 -7.82657e-11 -4.24911e-11 
8 2 7.01922e-07 4.99961e-05 5.26408e-05 8.70295e-07 1.81525e-10 -7.31975e-10 -6.56705e-10 1.8754e-11 -7.56228e-11 -6.78464e-11 
18 2 1.08739e-06 4.93201e-05 5.06031e-05 1.44973e-06 8.54331e-10 1.27955e-10 5.03733e-10 8.04747e-11 1.20529e-11 4.74497e-11 
10 2 7.46104e-07 5.06918e-05 5.22912e-05 1.18912e-06 8.07683e-10 3.84032e-10 -4.47401e-10 8.06433e-11 3.83438e-11 -4.46709e-11 
4 2 6.35292e-07 5.01724e-05 5.27881e-05 1.48642e-06 6.89808e-10 -2.48942e-10 6.79848e-10 7.22119e-11 -2.60602e-11 7.11693e-11 
14 2 9.22074e-07 4.95672e-05 5.31862e-05 1.25274e-06 -5.10154e-10 8.28576e-10 2.30663e-10 -5.4841e-11 8.9071e-11 2.4796e-11 
1 1 1.17673e-06 5.00984e-05 5.144e-05 1.53857e-06 -6.28232e-10 -5.28968e-11 7.76226e-10 -6.9579e-11 -5.85851e-12 8.59698e-11 
7 2 7.40685e-07 4.89734e-05 5.19838e-05 1.61889e-06 -9.7348e-10 5.63418e-11 -2.21727e-10 -9.69739e-11 5.61253e-12 -2.20875e-11 
12 2 8.45086e-07 4.91117e-05 5.27544e-05 1.9303e-06 -3.27588e-10 -7.01279e-11 9.42214e-10 -3.26433e-11 -6.98806e-12 9.38892e-11 
2 2 7.8e-07 4.99918e-05 5.00106e-05 2.01252e-06 -9.15065e-11 -9.81379e-10 -1.68884e-10 -9.12853e-12 -9.79007e-11 -1.68476e-11 
5 2 6.29289e-07 4.9906e-05 5.07361e-05 2.02027e-06 -5.13656e-10 2.23281e-10 -8.28434e-10 -4.70627e-11 2.04576e-11 -7.59035e-11 
9 2 8.00005e-07 4.94385e-05 5.11289e-05 2.39866e-06 -4.43931e-10 8.94506e-10 5.27679e-11 -4.24287e-11 8.54925e-11 5.0433e-12 
11 2 8.63826e-07 4.90727e-05 5.18487e-05 2.45475e-06 8.32125e-10 -5.5154e-10 -5.80612e-11 7.98038e-11 -5.28947e-11 -5.56828e-12 
21 1 1.33793e-06 5.00921e-05 5.22688e-05 2.45898e-06 -3.89914e-11 -9.45864e-10 3.22212e-10 -3.61401e-12 -8.76697e-11 2.9865e-11 
3 2 5.96815e-07 4.97839e-05 5.3024e-05 2.01473e-06 -3.34998e-10 8.26685e-10 -4.52072e-10 -3.62184e-11 8.93774e-11 -4.8876e-11 
17 2 1.09059e-06 5.01385e-05 5.05869e-05 2.8467e-06 5.84919e-10 7.38578e-10 3.35219e-10 5.74871e-11 7.2589e-11 3.29461e-11 
6 2 6.53489e-07 4.98885e-05 5.14651e-05 2.88699e-06 1.52819e-10 8.24636e-10 -5.4463e-10 1.33153e-11 7.18513e-11 -4.74541e-11 
23 2 1.03571e-06 5.12654e-05 5.2185e-05 2.6019e-06 -3.77423e-10 -7.79514e-10 4.9991e-10 -3.73016e-11 -7.70413e-11 4.94073e-11 
20 2 1.16578e-06 5.07921e-05 5.14154e-05 3.22223e-06 -5.24431e-10 -6.12379e-10 -5.91577e-10 -5.18133e-11 -6.05025e-11 -5.84473e-11 
ITEM: TIMESTEP
9000
ITEM: NUMBER OF ATOMS
34
ITEM: BOX BOUNDS ff ff ff
0.0000000000000000e+00 1.0000000000000000e-04
0.0000000000000000e+00 1.0000000000000000e-04
0.0000000000000000e+00 1.0000000000000000e-04
ITEM: ATOMS id type diameter x y z vx vy vz fx fy fz 
22 2 9.43358e-07 5.01106e-05 5.04532e-05 8.26658e-07 -7.10001e-10 -2.6204e-10 6.53632e-10 -6.91932e-11 -2.55371e-11 6.36997e-11 
16 2 1.0477e-06 4.89671e-05 5.13574e-05 8.51127e-07 2.64846e-10 -7.70953e-10 5.79213e-10 2.6138e-11 -7.60862e-11 5.71632e-11 
13 2 8.48524e-07 5.12358e-05 5.1492e-05 1.1676e-06 -5.93937e-10 -2.23906e-10 -7.72726e-10 -5.35182e-11 -2.01757e-11 -6.96285e-11 
19 2 1.08049e-06 4.97462e-05 5.19516e-05 5.37952e-07 5.50917e-10 -2.08477e-10 8.08101e-10 3.12575e-06 -1.18284e-06 4.58494e-06 
15 2 9.90597e-07 4.89542e-05 5.25112e-05 6.86779e-07 -8.78952e-10 4.71317e-10 7.28251e-11 -1.00496e-10 5.38887e-11 8.32656e-12 
8 2 7.01922e-07 5.00189e-05 5.28391e-05 6.59253e-07 7.65579e-10 -2.32703e-10 5.99782e-10 7.61064e-11 -2.3133e-11 5.96244e-11 
18 2 1.08739e-06 4.93021e-05 5.05345e-05 1.40736e-06 5.81726e-10 8.13261e-10 1.41741e-11 5.19838e-11 7.2674e-11 1.26662e-12 
10 2 7.46104e-07 5.10982e-05 5.22484e-05 1.11827e-06 2.14984e-12 9.66485e-10 -2.56713e-10 2.16427e-13 9.72975e-11 -2.58436e-11 
4 2 6.35292e-07 5.03555e-05 5.30273e-05 1.55096e-06 4.5036e-10 -7.26664e-10 -5.18783e-10 4.26689e-11 -6.88471e-11 -4.91515e-11 
14 2 9.22074e-07 4.95519e-05 5.33599e-05 1.19855e-06 -2.39173e-11 9.57986e-10 -2.85818e-10 -2.70086e-12 1.0818e-10 -3.22759e-11 
25 2 9.80455e-07 5.03982e-05 5.01956e-05 1.70081e-06 -9.25448e-10 4.71967e-11 3.75924e-10 -8.66867e-11 4.42091e-12 3.52128e-11 
27 2 1.01225e-06 5.12566e-05 5.06666e-05 1.60606e-06 9.39383e-10 3.42206e-10 -2.1312e-11 9.64491e-11 3.51353e-11 -2.18816e-12 
1 1 1.40507e-06 5.01391e-05 5.13516e-05 1.72743e-06 -5.73802e-10 -8.10752e-10 -1.159e-10 -6.85283e-11 -9.68268e-11 -1.38417e-11 
7 2 7.40685e-07 4.89404e-05 5.19095e-05 1.64459e-06 7.34314e-10 6.54434e-10 -1.80275e-10 6.44974e-11 5.74812e-11 -1.58342e-11 
12 2 8.45086e-07 4.90053e-05 5.27314e-05 2.12146e-06 4.00322e-10 -9.1589e-10 -2.98128e-11 3.61207e-11 -8.264e-11 -2.68999e-12 
3 2 5.96815e-07 4.97936e-05 5.30774e-05 2.00184e-06 -5.0929e-10 7.52029e-10 -4.18421e-10 -5.71544e-11 8.43955e-11 -4.69568e-11 
2 2 7.8e-07 4.9768e-05 4.98459e-05 2.13806e-06 5.71525e-10 7.27004e-10 -3.80558e-10 5.07162e-11 6.45131e-11 -3.37701e-11 
5 2 6.29289e-07 4.98205e-05 5.05192e-05 2.14092e-06 6.03524e-10 -5.97884e-10 -5.27536e-10 5.75805e-11 -5.70424e-11 -5.03307e-11 
9 2 8.00005e-07 4.91992e-05 5.10376e-05 2.18971e-06 6.41103e-10 -5.34462e-11 -7.65592e-10 6.21523e-11 -5.18139e-12 -7.42209e-11 
11 2 8.63826e-07 4.91108e-05 5.18654e-05 2.45258e-06 1.9988e-10 -9.51852e-10 -2.32433e-10 2.00142e-11 -9.53099e-11 -2.32738e-11 
23 2 1.03571e-06 5.10451e-05 5.1639e-05 2.36132e-06 8.21671e-10 3.99371e-10 4.06645e-10 9.38099e-11 4.5596e-11 4.64265e-11 
17 2 1.09059e-06 5.04682e-05 5.01679e-05 2.91475e-06 -6.28972e-10 7.77029e-10 -2.49169e-11 -6.0066e-11 7.42052e-11 -2.37953e-12 
26 2 1.03879e-06 4.98006e-05 5.09658e-05 2.89996e-06 9.18993e-10 -2.99387e-10 2.56553e-10 8.45533e-11 -2.75456e-11 2.36046e-11 
21 1 1.24461e-06 5.02333e-05 5.24475e-05 2.38827e-06 5.6921e-10 -1.22413e-10 8.13028e-10 6.48715e-11 -1.39512e-11 9.26589e-11 
24 2 1.11314e-06 5.13613e-05 5.30543e-05 2.95848e-06 -4.91914e-10 6.78652e-10 5.45391e-10 -4.91804e-11 6.785e-11 5.45269e-11 
20 2 1.16578e-06 5.07169e-05 5.13189e-05 3.34783e-06 -7.04402e-10 -2.35029e-10 -6.6976e-10 -6.69849e-11 -2.235e-11 -6.36906e-11 
6 2 6.53489e-07 4.96915e-05 5.17584e-05 3.18475e-06 2.85091e-10 9.5491e-10 -8.28878e-11 2.85277e-11 9.55535e-11 -8.29421e-12 
28 2 1.11112e-06 5.19922e-05 5.10861e-05 2.39288e-06 -3.12299e-11 9.97528e-10 -6.29547e-11 -3.12267e-12 9.97426e-11 -6.29483e-12 
29 2 1.06306e-06 4.95375e-05 5.24782e-05 1.4798e-06 -7.25286e-10 -5.55083e-10 4.07238e-10 -7.83534e-11 -5.99662e-11 4.39943e-11 
30 2 1.24745e-06 5.19852e-05 5.22702e-05 2.31851e-06 -5.63379e-10 -8.24878e-10 4.669e-11 -5.54443e-11 -8.11794e-11 4.59494e-12 
31 1 1.2905e-06 4.99448e-05 5.30191e-05 3.4852e-06 -1.83241e-10 -8.65792e-10 4.65648e-10 -1.83294e-11 -8.66045e-11 4.65784e-11 
32 2 1.10695e-06 5.05632e-05 5.13208e-05 5.51488e-07 -1.27502e-10 7.08181e-10 6.94423e-10 -7.29746e-07 4.05322e-06 3.97448e-06 
33 2 1.01164e-06 5.03672e-05 5.23043e-05 1.22613e-06 -1.82855e-10 8.15505e-10 -5.49105e-10 -2.05e-11 9.14268e-11 -6.15605e-11 
34 2 1.02486e-06 5.08321e-05 5.33336e-05 4.28062e-06 -1.89849e-10 -8.5063e-10 4.90292e-10 -1.89843e-11 -8.50602e-11 4.90275e-11 
ITEM: TIMESTEP
10800
ITEM: NUMBER OF ATOMS
51
ITEM: BOX BOUNDS ff ff ff
0.0000000000000000e+00 1.0000000000000000e-04
0.0000000000000000e+00 1.0000000000000000e-04
0.0000000000000000e+00 1.0000000000000000e-04
ITEM: ATOMS id type diameter x y z vx vy vz fx fy fz 
22 2 9.43358e-07 5.0086e-05 5.03161e-05 7.64348e-07 -7.27521e-10 -5.52787e-10 4.06374e-10 -6.9379e-11 -5.27157e-11 3.87532e-11 
32 2 1.10695e-06 5.06561e-05 5.11159e-05 5.78182e-07 -2.16165e-10 -4.50806e-10 -8.66052e-10 -2.54676e-11 -5.31118e-11 -1.02034e-10 
41 2 1.25502e-06 4.82311e-05 5.1859e-05 6.33047e-07 -5.82553e-11 8.31244e-10 -5.52847e-10 -6.01257e-12 8.57933e-11 -5.70598e-11 
19 2 1.08049e-06 4.99955e-05 5.20158e-05 5.38114e-07 6.64484e-10 -2.96927e-12 7.47296e-10 3.78983e-06 -1.6935e-08 4.26214e-06 
10 2 7.46104e-07 5.14842e-05 5.21611e-05 7.60337e-07 6.72124e-10 -3.46204e-10 6.54517e-10 6.47131e-11 -3.3333e-11 6.30178e-11 
15 2 9.90597e-07 4.87255e-05 5.2844e-05 5.5558e-07 -4.43605e-10 -8.94158e-10 6.07911e-11 -4.26687e-11 -8.60056e-11 5.84726e-12 
8 2 7.01922e-07 5.00242e-05 5.29039e-05 7.15697e-07 6.73397e-10 -6.53678e-10 3.45313e-10 6.73866e-11 -6.54133e-11 3.45553e-11 
18 2 1.08739e-06 4.934e-05 4.99534e-05 1.26354e-06 6.3877e-10 7.35273e-10 -2.26599e-10 5.41357e-11 6.23143e-11 -1.92042e-11 
16 2 1.0477e-06 4.84845e-05 5.08359e-05 1.01108e-06 2.20621e-10 -9.15019e-10 3.37738e-10 2.35203e-11 -9.75499e-11 3.60061e-11 
42 1 1.25432e-06 4.95496e-05 5.10393e-05 1.48136e-06 -1.40182e-10 -9.81954e-10 -1.26946e-10 -1.539e-11 -1.07804e-10 -1.39369e-11 
13 2 8.48524e-07 5.14767e-05 5.13595e-05 9.29191e-07 9.7942e-10 1.35329e-10 -1.49742e-10 1.14279e-10 1.57903e-11 -1.7472e-11 
33 2 1.01164e-06 5.09203e-05 5.27609e-05 1.03377e-06 -4.0881e-10 7.98298e-10 4.4226e-10 -4.20807e-11 8.21723e-11 4.55238e-11 
29 2 1.06306e-06 4.93047e-05 5.28773e-05 1.40226e-06 -3.19073e-10 -8.02023e-10 5.04927e-10 -2.82061e-11 -7.08991e-11 4.46357e-11 
14 2 9.22074e-07 4.92088e-05 5.37283e-05 1.05876e-06 -8.59755e-10 3.87547e-10 -3.32609e-10 -1.00015e-10 4.50834e-11 -3.86924e-11 
37 2 1.06297e-06 5.01053e-05 5.35844e-05 1.3228e-06 9.70301e-10 -7.35389e-11 2.3045e-10 1.05841e-10 -8.02164e-12 2.51375e-11 
25 2 9.80455e-07 5.03991e-05 5.02217e-05 1.68841e-06 -7.66569e-10 -4.166e-11 6.40809e-10 -7.11359e-11 -3.86595e-12 5.94656e-11 
27 2 1.01225e-06 5.1408e-05 5.05032e-05 1.61031e-06 7.3448e-10 -6.08836e-10 -2.99763e-10 8.70679e-11 -7.21736e-11 -3.5535e-11 
7 2 7.40685e-07 4.8878e-05 5.19161e-05 1.61456e-06 -7.69324e-10 -1.12123e-11 -6.38761e-10 -8.38336e-11 -1.22181e-12 -6.96062e-11 
1 1 1.4046e-06 5.08015e-05 5.14207e-05 1.76135e-06 -1.43274e-10 3.36755e-10 9.30628e-10 -1.70569e-11 4.0091e-11 1.10792e-10 
38 2 1.12771e-06 5.18027e-05 5.21748e-05 1.61237e-06 -4.15921e-10 -2.3871e-10 -8.77512e-10 -4.10802e-11 -2.35772e-11 -8.66712e-11 
4 2 6.35292e-07 5.08549e-05 5.32802e-05 1.57252e-06 -1.20802e-11 2.53692e-10 -9.6721e-10 -1.17244e-12 2.46221e-11 -9.38726e-11 
2 2 7.8e-07 4.97793e-05 4.98401e-05 2.14578e-06 5.17156e-10 8.06658e-10 -2.86099e-10 4.81127e-11 7.50459e-11 -2.66167e-11 
9 2 8.00005e-07 4.90283e-05 5.10543e-05 2.36747e-06 -4.4199e-10 6.79893e-10 -5.85141e-10 -4.62199e-11 7.1098e-11 -6.11895e-11 
5 2 6.29289e-07 4.98717e-05 5.05164e-05 2.19004e-06 3.30543e-10 -7.64045e-10 -5.54055e-10 3.08646e-11 -7.1343e-11 -5.17351e-11 
28 2 1.11112e-06 5.20012e-05 5.10673e-05 2.37763e-06 -9.65585e-10 -5.23472e-11 2.54766e-10 -7.97057e-11 -4.32108e-12 2.10301e-11 
11 2 8.63826e-07 4.92117e-05 5.18406e-05 2.30154e-06 -1.91449e-10 -5.29622e-10 8.26346e-10 -2.32005e-11 -6.41817e-11 1.0014e-10 
12 2 8.45086e-07 4.90017e-05 5.26435e-05 2.21945e-06 1.3821e-10 7.42403e-10 -6.55542e-10 1.29731e-11 6.96855e-11 -6.15323e-11 
21 1 1.48845e-06 5.05126e-05 5.27655e-05 2.40103e-06 1.01969e-10 -7.33706e-10 6.71772e-10 9.91273e-12 -7.13256e-11 6.53049e-11 
3 2 5.96815e-07 4.96677e-05 5.3281e-05 2.08486e-06 -4.9175e-10 8.03791e-10 3.34818e-10 -4.87255e-11 7.96443e-11 3.31757e-11 
17 2 1.09059e-06 5.04628e-05 5.01359e-05 2.89568e-06 -4.22108e-10 -8.31778e-10 -3.60514e-10 -5.04903e-11 -9.94927e-11 -4.31228e-11 
26 2 1.03879e-06 4.95872e-05 5.07363e-05 2.96476e-06 6.32682e-11 -8.36967e-10 5.43584e-10 7.19113e-12 -9.51306e-11 6.17843e-11 
23 2 1.03571e-06 5.10893e-05 5.08854e-05 2.70451e-06 7.11419e-10 5.447e-10 -4.44055e-10 6.44555e-11 4.93505e-11 -4.0232e-11 
35 2 1.10986e-06 5.00871e-05 5.16029e-05 2.73325e-06 4.69419e-10 8.29171e-10 -3.03516e-10 4.72336e-11 8.34323e-11 -3.05402e-11 
30 2 1.24745e-06 5.22269e-05 5.2577e-05 2.62215e-06 8.18613e-10 3.89545e-10 4.22052e-10 8.59017e-11 4.08771e-11 4.42883e-11 
39 2 1.11583e-06 4.87407e-05 5.19669e-05 3.12522e-06 4.31352e-10 -2.19855e-10 -8.74985e-10 4.02971e-11 -2.05389e-11 -8.17415e-11 
24 2 1.11314e-06 5.14194e-05 5.32253e-05 3.18294e-06 -9.86379e-10 7.15104e-11 -1.48134e-10 -9.54745e-11 6.9217e-12 -1.43383e-11 
20 2 1.16578e-06 5.06025e-05 5.09196e-05 3.63078e-06 -1.28841e-10 5.64838e-10 8.15081e-10 -1.50744e-11 6.60862e-11 9.53647e-11 
6 2 6.53489e-07 4.9459e-05 5.15174e-05 3.67742e-06 3.21436e-10 8.99837e-10 -2.94911e-10 3.2239e-11 9.02507e-11 -2.95787e-11 
40 2 1.02604e-06 4.96979e-05 5.22861e-05 3.41093e-06 3.69488e-10 -8.72059e-10 3.20922e-10 3.38381e-11 -7.98642e-11 2.93904e-11 
31 1 1.14578e-06 4.99755e-05 5.31571e-05 4.29935e-06 1.98246e-11 9.37488e-10 3.47453e-10 1.88938e-12 8.93469e-11 3.31139e-11 
34 2 1.02486e-06 5.10769e-05 5.33474e-05 4.30333e-06 1.63704e-10 1.21621e-10 9.78984e-10 1.63449e-11 1.21431e-11 9.7746e-11 
36 2 1.08304e-06 4.9309e-05 5.24073e-05 4.65788e-06 8.05333e-11 -9.31471e-10 -3.5479e-10 8.43608e-12 -9.75741e-11 -3.71652e-11 
43 2 1.07752e-06 5.13185e-05 5.18813e-05 2.76847e-06 -6.93996e-10 -6.07079e-10 -3.87072e-10 -6.4054e-11 -5.60318e-11 -3.57257e-11 
44 2 1.18689e-06 4.95567e-05 5.35562e-05 5.25148e-06 5.482e-10 7.23447e-10 -4.19643e-10 5.27059e-11 6.95547e-11 -4.03459e-11 
45 2 8.80811e-07 4.92318e-05 5.15053e-05 4.4719e-07 -8.50023e-10 -2.05779e-10 -4.84888e-10 -9.35309e-11 -2.26426e-11 -5.33538e-11 
46 2 1.10298e-06 4.9766e-05 5.20795e-05 1.6916e-06 7.14031e-10 6.55901e-10 -2.44855e-10 7.63168e-11 7.01037e-11 -2.61705e-11 
47 2 1.12636e-06 4.94551e-05 5.39589e-05 2.56015e-06 2.45976e-10 -7.76011e-10 -5.80777e-10 2.42333e-11 -7.64519e-11 -5.72176e-11 
48 2 1.18946e-06 5.04065e-05 5.19683e-05 4.14168e-06 -7.69708e-10 2.5622e-10 -5.84723e-10 -7.09313e-11 2.36116e-11 -5.38844e-11 
49 2 8.9497e-07 4.84119e-05 5.05843e-05 2.07789e-06 1.38911e-10 -2.02702e-10 9.69338e-10 1.36736e-11 -1.99528e-11 9.54158e-11 
50 2 1.0834e-06 5.04831e-05 5.2047e-05 1.01984e-06 -1.26726e-10 8.76935e-10 4.636e-10 -1.22591e-11 8.4832e-11 4.48472e-11 
51 1 1.29503e-06 5.02586e-05 5.36856e-05 3.35113e-06 1.32064e-10 3.10451e-10 -9.41371e-10 1.42684e-11 3.35417e-11 -1.01708e-10 
ITEM: TIMESTEP
12600
ITEM: NUMBER OF ATOMS
87
ITEM: BOX BOUNDS ff ff ff
0.0000000000000000e+00 1.0000000000000000e-04
0.0000000000000000e+00 1.0000000000000000e-04
0.0000000000000000e+00 1.0000000000000000e-04
ITEM: ATOMS id type diameter x y z vx vy vz fx fy fz 
45 2 8.80811e-07 4.91404e-05 5.16403e-05 4.69585e-07 8.52262e-10 5.0533e-10 1.35245e-10 7.49846e-11 4.44605e-11 1.18992e-11 
15 2 9.90597e-07 4.87219e-05 5.28937e-05 5.02343e-07 -1.50131e-10 5.79448e-11 -9.86967e-10 -1.51436e-11 5.84484e-12 -9.95545e-11 
22 2 9.43358e-07 5.03277e-05 5.01188e-05 6.51857e-07 -2.87221e-10 -3.92799e-10 -8.73621e-10 -3.10306e-11 -4.2437e-11 -9.43838e-11 
16 2 1.0477e-06 4.85149e-05 5.07873e-05 7.5311e-07 4.53953e-10 1.31517e-11 8.90928e-10 3.69415e-11 1.07025e-12 7.25013e-11 
56 2 1.06572e-06 4.95436e-05 5.07583e-05 5.38124e-07 1.38632e-10 -6.63e-10 -7.35672e-10 1.40952e-11 -6.74098e-11 -7.47987e-11 
32 2 1.10695e-06 5.06679e-05 5.11138e-05 5.57934e-07 -6.14947e-10 4.82713e-10 -6.23561e-10 -7.68591e-11 6.03319e-11 -7.79357e-11 
13 2 8.48524e-07 5.18024e-05 5.15026e-05 5.04893e-07 2.56673e-10 -9.1856e-10 -3.00611e-10 2.55681e-11 -9.15009e-11 -2.99449e-11 
41 2 1.25502e-06 4.81311e-05 5.19421e-05 6.39844e-07 4.10534e-10 -4.04162e-11 9.10949e-10 3.79299e-11 -3.73412e-12 8.41642e-11 
19 2 1.08049e-06 4.99306e-05 5.21061e-05 5.47288e-07 -5.38949e-10 -7.21978e-10 4.33915e-10 -4.49094e-11 -6.01609e-11 3.61572e-11 
10 2 7.46104e-07 5.16592e-05 5.2285e-05 6.25676e-07 7.81562e-10 1.84934e-11 6.23554e-10 7.8591e-11 1.85963e-12 6.27023e-11 
8 2 7.01922e-07 5.00183e-05 5.29656e-05 7.48442e-07 2.52074e-10 1.31849e-10 9.58684e-10 2.37683e-11 1.24321e-11 9.03951e-11 
33 2 1.01164e-06 5.11068e-05 5.30774e-05 7.65534e-07 -2.02587e-10 4.58621e-10 -8.65231e-10 -2.02352e-11 4.58089e-11 -8.64226e-11 
14 2 9.22074e-07 4.9309e-05 5.37934e-05 9.95838e-07 3.39702e-10 7.97207e-10 -4.99062e-10 3.55353e-11 8.33936e-11 -5.22055e-11 
18 2 1.08739e-06 4.94173e-05 4.9904e-05 1.19317e-06 -2.96729e-10 8.45832e-10 4.43306e-10 -2.40936e-11 6.86793e-11 3.59952e-11 
68 1 1.37347e-06 5.21542e-05 5.0583e-05 1.21358e-06 -9.68634e-12 4.91545e-11 9.98744e-10 -9.42105e-13 4.78083e-12 9.71391e-11 
71 2 1.02469e-06 4.99921e-05 5.13807e-05 1.23738e-06 -3.43772e-10 9.35668e-10 -7.96591e-11 -3.84266e-11 1.04588e-10 -8.90424e-12 
7 2 7.40685e-07 4.85744e-05 5.18889e-05 1.48981e-06 -4.92002e-10 2.46237e-11 -8.70246e-10 -5.28225e-11 2.64366e-12 -9.34315e-11 
50 2 1.0834e-06 5.09191e-05 5.2011e-05 1.07038e-06 -4.89224e-11 5.1158e-10 8.57842e-10 -5.19311e-12 5.43042e-11 9.10599e-11 
29 2 1.06306e-06 4.89716e-05 5.30288e-05 1.48384e-06 -1.60027e-10 -6.86905e-10 7.0891e-10 -1.53307e-11 -6.58059e-11 6.7914e-11 
4 2 6.35292e-07 5.09817e-05 5.35329e-05 1.49861e-06 -3.96054e-10 8.4968e-10 -3.48116e-10 -4.24266e-11 9.10207e-11 -3.72914e-11 
37 2 1.06297e-06 5.03439e-05 5.38242e-05 9.69262e-07 -1.80143e-10 2.23729e-10 9.57859e-10 -1.69118e-11 2.10037e-11 8.99238e-11 
25 2 9.80455e-07 5.03637e-05 4.95779e-05 1.56217e-06 -1.55338e-10 5.00186e-10 8.51871e-10 -1.36389e-11 4.3917e-11 7.47955e-11 
27 2 1.01225e-06 5.14967e-05 4.96699e-05 1.67274e-06 6.87464e-11 9.85775e-10 1.53366e-10 6.32537e-12 9.07014e-11 1.41112e-11 
42 1 1.49766e-06 4.90598e-05 5.08772e-05 1.80092e-06 7.89951e-11 -7.01353e-10 -7.08423e-10 8.03925e-12 -7.1376e-11 -7.20955e-11 
63 2 1.12823e-06 5.05119e-05 5.05927e-05 1.50674e-06 3.15731e-10 -3.97396e-10 8.61621e-10 3.62302e-11 -4.56013e-11 9.88712e-11 
46 2 1.10298e-06 4.94087e-05 5.20928e-05 1.66679e-06 5.57999e-10 7.44285e-10 -3.66983e-10 5.93193e-11 7.91228e-11 -3.90129e-11 
38 2 1.12771e-06 5.22301e-05 5.22189e-05 1.36613e-06 -3.35548e-10 1.02091e-10 -9.36475e-10 -3.73096e-11 1.13515e-11 -1.04127e-10 
21 1 1.33194e-06 5.02736e-05 5.29112e-05 1.69971e-06 -9.86669e-11 -2.85933e-10 -9.53156e-10 -1.14542e-11 -3.31939e-11 -1.10652e-10 
73 2 1.12998e-06 4.87769e-05 4.96176e-05 2.13698e-06 2.94507e-10 -4.52177e-10 -8.41903e-10 2.94746e-11 -4.52543e-11 -8.42585e-11 
2 2 7.8e-07 4.97891e-05 4.98122e-05 2.13978e-06 9.14334e-10 -2.62017e-10 -3.08772e-10 8.36883e-11 -2.39822e-11 -2.82617e-11 
49 2 8.9497e-07 4.80758e-05 5.04121e-05 2.18343e-06 -3.62188e-10 2.27439e-10 9.03931e-10 -3.77898e-11 2.37304e-11 9.43138e-11 
70 2 9.71839e-07 5.05811e-05 5.00008e-05 2.38558e-06 -6.48691e-10 -3.12531e-10 -6.9392e-10 -6.57218e-11 -3.16639e-11 -7.03042e-11 
5 2 6.29289e-07 4.98565e-05 5.04721e-05 2.28473e-06 7.06658e-10 6.10411e-10 -3.57818e-10 7.9789e-11 6.89217e-11 -4.04014e-11 
1 1 1.28588e-06 5.14366e-05 5.06348e-05 2.21445e-06 2.73294e-10 -4.92412e-11 -9.60669e-10 2.26855e-11 -4.08739e-12 -7.97428e-11 
11 2 8.63826e-07 4.85662e-05 5.17873e-05 2.23218e-06 -2.62552e-10 3.22588e-10 9.09397e-10 -2.87177e-11 3.52844e-11 9.94691e-11 
53 2 9.3653e-07 5.03064e-05 5.19002e-05 2.13252e-06 8.37355e-10 2.38936e-10 -4.91676e-10 9.15178e-11 2.61142e-11 -5.37372e-11 
59 2 8.73257e-07 5.12068e-05 5.19027e-05 2.01153e-06 -9.9453e-10 3.85261e-11 -9.70824e-11 -9.94994e-11 3.85441e-12 -9.71276e-12 
12 2 8.45086e-07 4.86873e-05 5.26063e-05 2.25898e-06 4.47583e-11 -2.26224e-11 -9.98742e-10 4.51676e-12 -2.28293e-12 -1.00788e-10 
30 2 1.24745e-06 5.25025e-05 5.2824e-05 2.30258e-06 2.36367e-10 5.34449e-10 8.11477e-10 2.55559e-11 5.77844e-11 8.77365e-11 
3 2 5.96815e-07 4.94985e-05 5.32898e-05 2.08016e-06 -8.73033e-10 3.09802e-10 -3.76612e-10 -9.8393e-11 3.49154e-11 -4.24451e-11 
72 2 9.98343e-07 5.0048e-05 5.36235e-05 2.49397e-06 -5.90165e-11 7.88407e-10 6.12317e-10 -6.50322e-12 8.68772e-11 6.74733e-11 
9 2 8.00005e-07 4.89661e-05 5.12282e-05 2.78576e-06 3.44463e-10 7.45997e-10 5.69941e-10 3.8631e-11 8.36626e-11 6.39181e-11 
28 2 1.11112e-06 5.24389e-05 5.10362e-05 2.85518e-06 5.75512e-10 -5.68593e-10 -5.87783e-10 5.82209e-11 -5.7521e-11 -5.94624e-11 
58 2 1.05781e-06 4.95403e-05 5.19369e-05 2.6901e-06 -7.32921e-10 -2.44341e-10 6.3492e-10 -8.67071e-11 -2.89064e-11 7.51132e-11 
43 2 1.07752e-06 5.16749e-05 5.18069e-05 2.86145e-06 -6.05447e-10 6.12761e-10 5.07896e-10 -5.0285e-11 5.08925e-11 4.2183e-11 
64 2 8.89068e-07 4.96937e-05 5.28225e-05 2.57613e-06 -4.92672e-10 -1.5567e-10 8.56178e-10 -5.69143e-11 -1.79833e-11 9.89072e-11 
47 2 1.12636e-06 4.9161e-05 5.40693e-05 2.66724e-06 6.40938e-10 -6.76292e-10 3.63081e-10 5.80699e-11 -6.12731e-11 3.28957e-11 
17 2 1.09059e-06 5.02881e-05 4.9724e-05 3.37121e-06 4.47271e-10 -2.50412e-10 8.58628e-10 4.4138e-11 -2.47114e-11 8.47321e-11 
26 2 1.03879e-06 4.95617e-05 5.02947e-05 2.97689e-06 -6.91154e-10 2.70283e-10 6.70264e-10 -7.69386e-11 3.00877e-11 7.46131e-11 
65 2 1.04666e-06 4.79585e-05 5.08136e-05 3.06482e-06 2.01316e-10 -4.06345e-10 -8.91266e-10 2.04514e-11 -4.128e-11 -9.05425e-11 
23 2 1.03571e-06 5.14276e-05 5.08572e-05 3.29939e-06 -1.82738e-10 5.75195e-10 7.97344e-10 -2.01325e-11 6.337e-11 8.78445e-11 
35 2 1.10986e-06 5.02676e-05 5.14787e-05 3.32765e-06 -2.13775e-10 3.88734e-10 8.96206e-10 -2.1282e-11 3.86997e-11 8.92201e-11 
39 2 1.11583e-06 4.83054e-05 5.18409e-05 3.14767e-06 1.07265e-10 -2.13943e-10 -9.70939e-10 1.11065e-11 -2.21522e-11 -1.00533e-10 
55 2 9.66527e-07 4.88713e-05 5.29149e-05 3.05558e-06 5.27258e-10 6.45634e-10 5.5241e-10 5.16077e-11 6.31943e-11 5.40696e-11 
57 1 1.4813e-06 5.08628e-05 5.26793e-05 2.95574e-06 9.3164e-10 -2.24326e-10 2.85877e-10 9.02259e-11 -2.17252e-11 2.76861e-11 
66 2 1.09525e-06 5.21276e-05 5.26134e-05 3.42117e-06 -5.32822e-10 5.48002e-10 -6.44821e-10 -5.27481e-11 5.42509e-11 -6.38357e-11 
54 2 8.44042e-07 4.95815e-05 5.33796e-05 3.22489e-06 -4.18238e-10 -3.96036e-10 -8.17455e-10 -4.37499e-11 -4.14274e-11 -8.551e-11 
24 2 1.11314e-06 5.17531e-05 5.35294e-05 2.94214e-06 4.8093e-10 -7.98203e-10 3.62736e-10 5.00863e-11 -8.31286e-11 3.77771e-11 
51 1 1.21191e-06 5.08829e-05 5.41465e-05 2.62451e-06 -3.45953e-10 5.74831e-10 -7.41543e-10 -3.40116e-11 5.65132e-11 -7.29031e-11 
6 2 6.53489e-07 4.95052e-05 5.14188e-05 3.70572e-06 5.23785e-10 8.46514e-10 -9.51991e-11 5.35615e-11 8.65632e-11 -9.73491e-12 
52 2 1.13941e-06 5.12285e-05 5.16767e-05 3.84789e-06 2.35882e-10 -2.10002e-10 -9.4882e-10 1.96115e-11 -1.74598e-11 -7.88859e-11 
40 2 1.02604e-06 4.99896e-05 5.23755e-05 3.69272e-06 -4.939e-10 -8.67421e-10 -6.03585e-11 -4.99111e-11 -8.76571e-11 -6.09952e-12 
74 2 1.19914e-06 5.18262e-05 5.48248e-05 3.92843e-06 7.73476e-10 2.53982e-10 5.80713e-10 8.23544e-11 2.70422e-11 6.18303e-11 
20 2 1.16578e-06 5.05632e-05 5.06957e-05 4.05771e-06 4.40185e-10 2.8965e-10 -8.49906e-10 4.25419e-11 2.79934e-11 -8.21396e-11 
60 2 1.05403e-06 5.05088e-05 5.30535e-05 4.08816e-06 3.68548e-10 5.81131e-10 7.25575e-10 4.40569e-11 6.94695e-11 8.67366e-11 
31 1 1.36806e-06 4.90836e-05 5.31895e-05 4.33866e-06 2.16651e-10 9.2533e-10 3.1117e-10 2.61314e-11 1.11609e-10 3.75318e-11 
34 2 1.02486e-06 5.1389e-05 5.35182e-05 4.36389e-06 -5.94726e-10 -7.53448e-10 2.80387e-10 -5.88207e-11 -7.4519e-11 2.77313e-11 
48 2 1.18946e-06 5.03565e-05 5.19259e-05 4.61225e-06 -8.5922e-10 4.84873e-10 1.63216e-10 -8.4671e-11 4.77814e-11 1.60839e-11 
36 2 1.08304e-06 4.92502e-05 5.21312e-05 4.87055e-06 -1.19847e-10 -8.93001e-10 -4.33804e-10 -1.38203e-11 -1.02977e-10 -5.00244e-11 
61 2 9.89068e-07 5.1059e-05 5.27302e-05 4.89546e-06 6.19379e-11 7.23034e-10 -6.8803e-10 6.18456e-12 7.21957e-11 -6.87005e-11 
62 2 1.06826e-06 5.03732e-05 5.38464e-05 4.76595e-06 -3.55455e-10 -8.43857e-10 -4.01942e-10 -3.49488e-11 -8.29692e-11 -3.95195e-11 
67 2 1.09058e-06 5.04446e-05 5.4923e-05 4.70406e-06 1.763e-10 6.61186e-10 -7.29213e-10 1.72571e-11 6.47202e-11 -7.1379e-11 
44 2 1.18689e-06 4.94656e-05 5.37624e-05 5.42212e-06 3.77398e-10 -2.34789e-10 -8.95793e-10 3.73614e-11 -2.32435e-11 -8.86812e-11 