LAMMPS data file for Nanoparticles
2 atoms
2 bodies
1 atom types
-15 15 xlo xhi
-15 15 ylo yhi
-0.5 0.5 zlo zhi

Atoms

1 1 1 1 1.5 1.5 1.5
2 1 1 1 2.5 4.5 1.5

Bodies

1 1 13
2
1 1 1.33333 0 0 0
-3 0 0
3 0 0
1
2 1 13
2
1 1 1.33333 0 0 0
-8 1 0
-1 2 0
1

