LAMMPS (5 Nov 2016)
# NUFEB simulation

atom_style	bio
atom_modify	map array sort 100 5.0e-7
boundary	pp pp ff
newton		off
processors  * * 1

comm_modify	vel yes
read_data_bio atom.in
  orthogonal box = (0 0 0) to (0.0001 4e-05 0.0001)
  4 by 1 by 1 MPI processor grid
  reading atoms ...
  41 atoms
  5 nutrients

group HET type 1
40 atoms in group HET
group EPS type 2
1 atoms in group EPS

neighbor	5e-7 bin
neigh_modify	delay 0 one 5000

##############Define DEM Variables&Commands##############

pair_style  gran/hooke/history 1.e-4 NULL 1.e-5 NULL 0.0 1
pair_coeff  * *

timestep 10

fix 1 all nve/limit 1e-8
fix fv all viscous 1e-5

fix zw all wall/gran hooke/history 2000 NULL 500.0 NULL 1.5 0 zplane  0.0  1e-04

variable kanc equal 50

fix zwa all walladh v_kanc zplane  0.0  1e-04

variable ke equal 5e+10
#fix j1 all epsadh 1 v_ke 1

##############Define IBm Variables##############

#variables used in fix eps_extract
variable EPSdens equal 30
variable EPSratio equal 1.3

#variables used in fix division
variable divDia equal 1.36e-6

#variables used in fix kinetics
variable diffT equal 1e-4
variable tol equal 1e-6
variable etaHET equal 0.6
variable layer equal -1

#variables used in fix death
variable deadDia equal 9e-7


##############Define IBm Commands##############

fix k1 all kinetics 100 25 10 25 v_diffT v_layer niter -1
fix kgm all kinetics/growth/monod v_EPSdens v_etaHET
fix g1 all kinetics/diffusion v_tol pp pp nd kg dcflag 2
fix d1 all divide 100 v_EPSdens v_divDia 64564
fix e1 HET eps_extract 100 v_EPSratio v_EPSdens 53453

##############Define IBm Computes##############

compute myNtypes all ntypes
compute myPressure all pressure thermo_temp

##############Simulation Output##############

dump		id all custom 1000 output.lammmps id type diameter x y z
dump		du1 all custom/vtk 1000 atom%_*.vtu id type diameter x y z
dump		du2 all grid 1000 grid_%_*.vti con
thermo_style    custom step cpu atoms biomass c_myNtypes[*] c_myPressure
thermo		100
thermo_modify	lost ignore

run 80000
Neighbor list info ...
  2 neighbor list requests
  update every 1 steps, delay 0 steps, check yes
  max neighbors/atom: 5000, page size: 100000
  master list distance cutoff = 1.5e-06
  ghost atom cutoff = 1.5e-06
  binsize = 7.5e-07 -> bins = 134 54 134
Memory usage per processor = 9.90244 Mbytes
Step CPU Atoms biomass c_myNtypes[1] c_myNtypes[2] c_myNtypes[3] c_myPressure 
       0            0       41 3.1415927e-15            0           40            1            0 
number of iterations: 49950 
     100    18.585466       41 3.7579297e-15            0           40            1            0 
number of iterations: 22348 
     200    26.837006       41 4.4848563e-15            0           40            1            0 
number of iterations: 24800 
     300    35.979816       41 5.3373898e-15            0           40            1 4.4478248e-21 
number of iterations: 27174 
     400    46.105307       41 6.3303139e-15            0           40            1 5.2752615e-21 
number of iterations: 29315 
     500    56.962059       41 7.4770085e-15            0           40            1 6.2308403e-21 
number of iterations: 31040 
     600    68.488886       41 8.7879465e-15            0           40            1 7.3232887e-21 
number of iterations: 32161 
     700    80.474802       81 1.0269062e-14            0           80            1 0.00019371491 
number of iterations: 32538 
     800    92.654055      161 1.3228196e-14            0           80           81 0.00064082033 
number of iterations: 32057 
     900    104.58319      161 1.5043491e-14            0           80           81 0.00020389369 
number of iterations: 30798 
    1000    116.11126      165 1.7010753e-14            0           84           81 0.00025393098 
number of iterations: 28946 
    1100    126.97165      191 1.9114135e-14            0          110           81 0.00078051171 
number of iterations: 27046 
    1200    137.11251      229 2.1338596e-14            0          148           81 0.00096117752 
number of iterations: 25054 
    1300    146.42552      241 2.3669381e-14            0          160           81 0.00057307179 
number of iterations: 22613 
    1400    154.85774      271 2.664477e-14            0          160          111 0.0007456517 
number of iterations: 20600 
    1500    162.59503      370 3.0775264e-14            0          168          202 0.0017881296 
number of iterations: 19462 
    1600    169.88175      444 3.4250818e-14            0          189          255 0.0021533778 
number of iterations: 17543 
    1700    176.54326      471 3.6873247e-14            0          216          255 0.0012881489 
number of iterations: 16057 
    1800    182.52854      499 3.9545668e-14            0          244          255 0.0013421099 
number of iterations: 14364 
    1900    187.90269      527 4.2259163e-14            0          272          255 0.0014328304 
number of iterations: 13534 
    2000    192.96948      561 4.5010272e-14            0          306          255 0.0016779095 
number of iterations: 12017 
    2100    197.53306      570 4.7791848e-14            0          315          255 0.0008057122 
number of iterations: 11077 
    2200    201.67662      576 5.0600107e-14            0          321          255 0.00065619541 
number of iterations: 10148 
    2300    205.46034      586 5.3484102e-14            0          328          258 0.00082094423 
number of iterations: 10013 
    2400    209.19591      613 5.6448927e-14            0          349          264 0.0014739825 
number of iterations: 9088 
    2500    212.57957      638 5.942806e-14            0          367          271 0.0012233745 
number of iterations: 8378 
    2600    215.73044      682 6.2628881e-14            0          393          289 0.0019176495 
number of iterations: 8471 
    2700     218.8988      743 6.610222e-14            0          416          327 0.0019518811 
number of iterations: 7437 
    2800    221.68565      822 6.9958881e-14            0          440          382 0.0025692335 
number of iterations: 7315 
    2900    224.42687      926 7.4069209e-14            0          470          456 0.0034838772 
number of iterations: 7237 
    3000    227.21345     1023 7.8056475e-14            0          500          523  0.003248856 
number of iterations: 6997 
    3100    229.84646     1117 8.2124489e-14            0          524          593 0.0035556727 
number of iterations: 6221 
    3200    232.21621     1187 8.584697e-14            0          549          638 0.0028422841 
number of iterations: 5536 
    3300    234.38774     1252 8.9520961e-14            0          571          681 0.0024271364 
number of iterations: 5895 
    3400    236.60531     1297 9.2904898e-14            0          590          707 0.0019895439 
number of iterations: 5528 
    3500    238.74049     1344 9.631627e-14            0          611          733 0.0022097187 
number of iterations: 5061 
    3600    240.64352     1368 9.9502694e-14            0          623          745 0.0015133781 
number of iterations: 4721 
    3700    242.41792     1390 1.0263029e-13            0          637          753 0.0015830581 
number of iterations: 4650 
    3800    244.17207     1407 1.0565028e-13            0          654          753  0.001506785 
number of iterations: 4603 
    3900     245.9279     1432 1.0867669e-13            0          679          753  0.001671905 
number of iterations: 4327 
    4000    247.59012     1457 1.117088e-13            0          704          753 0.0017015652 
number of iterations: 4510 
    4100    249.30516     1479 1.1474769e-13            0          726          753 0.0016274488 
number of iterations: 3969 
    4200     250.8487     1502 1.1779106e-13            0          749          753 0.0016416896 
number of iterations: 3750 
    4300     252.2705     1533 1.2087717e-13            0          778          755 0.0018865361 
number of iterations: 3973 
    4400    253.78629     1555 1.2397322e-13            0          797          758 0.0016122431 
number of iterations: 3856 
    4500    255.24351     1581 1.2705007e-13            0          822          759 0.0018227494 
number of iterations: 3678 
    4600    256.64686     1603 1.3018157e-13            0          839          764  0.001482901 
number of iterations: 3329 
    4700    257.91478     1631 1.333648e-13            0          859          772 0.0019162435 
number of iterations: 3018 
    4800    259.06111     1661 1.3650333e-13            0          884          777 0.0016444472 
number of iterations: 3133 
    4900     260.2444     1688 1.3972011e-13            0          901          787 0.0018022168 
number of iterations: 3275 
    5000    261.49196     1717 1.4286524e-13            0          926          791 0.0019393775 
number of iterations: 3124 
    5100    262.69162     1748 1.4606654e-13            0          949          799 0.0018628035 
number of iterations: 3378 
    5200    263.98025     1791 1.4946144e-13            0          973          818 0.0021650575 
number of iterations: 3064 
    5300     265.1469     1836 1.5288062e-13            0          997          839 0.0021222423 
number of iterations: 3074 
    5400    266.32915     1893 1.5640927e-13            0         1027          866 0.0027085975 
number of iterations: 3056 
    5500    267.48797     1970 1.601713e-13            0         1060          910 0.0029950231 
number of iterations: 2773 
    5600    268.53953     2003 1.6353675e-13            0         1076          927 0.0018023703 
number of iterations: 2402 
    5700    269.45738     2049 1.6704692e-13            0         1100          949 0.0025096576 
number of iterations: 2335 
    5800    270.34652     2086 1.7035099e-13            0         1125          961 0.0022977672 
number of iterations: 2338 
    5900    271.23795     2131 1.7380648e-13            0         1147          984 0.0025145083 
number of iterations: 3049 
    6000    272.40286     2173 1.7733947e-13            0         1163         1010 0.0022020049 
number of iterations: 2477 
    6100    273.37113     2218 1.8082076e-13            0         1185         1033  0.002469676 
number of iterations: 2384 
    6200    274.28294     2281 1.8452219e-13            0         1213         1068 0.0031410883 
number of iterations: 2668 
    6300    275.30189     2344 1.8827014e-13            0         1240         1104 0.0031375049 
number of iterations: 3228 
    6400    276.52966     2399 1.9184387e-13            0         1266         1133 0.0026937137 
number of iterations: 2604 
    6500    277.52236     2452 1.9554601e-13            0         1284         1168 0.0025367201 
number of iterations: 2443 
    6600    278.45614     2502 1.9916348e-13            0         1303         1199  0.002523564 
number of iterations: 2447 
    6700    279.38927     2547 2.0271078e-13            0         1322         1225 0.0024093813 
number of iterations: 2953 
    6800    280.51803     2597 2.0629243e-13            0         1346         1251 0.0028229549 
number of iterations: 2409 
    6900    281.45376     2655 2.0998158e-13            0         1369         1286 0.0028125044 
number of iterations: 2296 
    7000    282.34367     2716 2.1364853e-13            0         1396         1320 0.0030390377 
number of iterations: 2420 
    7100     283.3131     2761 2.1707106e-13            0         1425         1336 0.0028877987 
number of iterations: 2284 
    7200    284.23507     2828 2.2089217e-13            0         1449         1379  0.003222938 
number of iterations: 2485 
    7300     285.1992     2876 2.2446047e-13            0         1471         1405 0.0026598029 
number of iterations: 2364 
    7400    286.10867     2922 2.2803215e-13            0         1491         1431 0.0026843624 
number of iterations: 2756 
    7500    287.16647     2975 2.3178235e-13            0         1507         1468  0.002519601 
number of iterations: 2163 
    7600    288.00062     3033 2.3540919e-13            0         1535         1498 0.0031330965 
number of iterations: 1493 
    7700    288.58436     3079 2.3893291e-13            0         1559         1520 0.0028452501 
number of iterations: 2320 
    7800    289.47985     3137 2.425138e-13            0         1592         1545 0.0030429314 
number of iterations: 2428 
    7900    290.41164     3197 2.4624266e-13            0         1617         1580  0.003121106 
number of iterations: 2531 
    8000    291.43673     3228 2.4952454e-13            0         1640         1588 0.0023432137 
number of iterations: 2149 
    8100     292.3077     3284 2.5327011e-13            0         1659         1625 0.0031323139 
number of iterations: 2052 
    8200    293.12277     3338 2.5697769e-13            0         1678         1660 0.0027338886 
number of iterations: 1902 
    8300    293.86684     3383 2.6039296e-13            0         1707         1676  0.002726518 
number of iterations: 2168 
    8400    294.70686     3435 2.6408785e-13            0         1723         1712 0.0027955263 
number of iterations: 2022 
    8500    295.53296     3478 2.6763884e-13            0         1744         1734 0.0027007346 
number of iterations: 2037 
    8600    296.32243     3514 2.7109418e-13            0         1762         1752  0.002383495 
number of iterations: 1903 
    8700    297.07638     3562 2.7471416e-13            0         1783         1779 0.0029620513 
number of iterations: 1701 
    8800    297.75144     3620 2.7841093e-13            0         1808         1812 0.0033159683 
number of iterations: 2421 
    8900    298.68619     3672 2.8203151e-13            0         1832         1840 0.0032956121 
number of iterations: 2172 
    9000    299.53593     3710 2.8552546e-13            0         1852         1858 0.0023620021 
number of iterations: 2010 
    9100    300.36474     3758 2.891517e-13            0         1872         1886 0.0027378422 
number of iterations: 2149 
    9200    301.27452     3808 2.9275214e-13            0         1898         1910 0.0033084298 
number of iterations: 1618 
    9300    301.95775     3849 2.9630994e-13            0         1915         1934 0.0027017788 
number of iterations: 1773 
    9400    302.70727     3896 2.9989571e-13            0         1937         1959 0.0031625862 
number of iterations: 1672 
    9500     303.4152     3940 3.0344157e-13            0         1958         1982 0.0031031891 
number of iterations: 2053 
    9600    304.27684     3982 3.0682281e-13            0         1986         1996 0.0030812319 
number of iterations: 2299 
    9700     305.1757     4024 3.1023206e-13            0         2015         2009 0.0026764546 
number of iterations: 1809 
    9800    305.88462     4074 3.1380491e-13            0         2041         2033 0.0032022026 
number of iterations: 1768 
    9900    306.59735     4118 3.1716207e-13            0         2072         2046 0.0031615785 
number of iterations: 1933 
   10000    307.46802     4154 3.2067612e-13            0         2088         2066 0.0025789075 
number of iterations: 1751 
   10100    308.17028     4193 3.2405897e-13            0         2114         2079 0.0029119219 
number of iterations: 1951 
   10200    308.93908     4243 3.2758934e-13            0         2144         2099 0.0033604707 
number of iterations: 1908 
   10300     309.6874     4283 3.310618e-13            0         2166         2117 0.0029587198 
number of iterations: 1463 
   10400    310.26807     4323 3.3452613e-13            0         2190         2133 0.0030086434 
number of iterations: 1976 
   10500    311.04415     4369 3.3811696e-13            0         2211         2158 0.0034566454 
number of iterations: 1996 
   10600    311.82743     4426 3.4178965e-13            0         2237         2189 0.0035712934 
number of iterations: 1625 
   10700    312.46842     4471 3.4542591e-13            0         2252         2219 0.0029808451 
number of iterations: 1878 
   10800    313.20483     4513 3.4895736e-13            0         2272         2241 0.0028864982 
number of iterations: 1822 
   10900    313.92411     4552 3.5242624e-13            0         2294         2258 0.0027428869 
number of iterations: 1577 
   11000    314.55765     4590 3.5599076e-13            0         2310         2280 0.0028679176 
number of iterations: 1708 
   11100    315.25282     4632 3.5943918e-13            0         2338         2294 0.0033960183 
number of iterations: 1794 
   11200    315.95427     4677 3.6290253e-13            0         2366         2311 0.0031633842 
number of iterations: 1592 
   11300     316.5806     4721 3.6635066e-13            0         2396         2325 0.0031486602 
number of iterations: 1769 
   11400    317.27848     4776 3.6991613e-13            0         2429         2347 0.0037157264 
number of iterations: 1905 
   11500    318.05595     4806 3.7333025e-13            0         2447         2359 0.0026277988 
number of iterations: 1523 
   11600    318.69583     4856 3.7699852e-13            0         2469         2387 0.0032838676 
number of iterations: 1594 
   11700    319.33004     4888 3.8035605e-13            0         2491         2397 0.0027867751 
number of iterations: 1718 
   11800    320.00922     4919 3.8382792e-13            0         2507         2412  0.002767621 
number of iterations: 1793 
   11900    320.71375     4970 3.8743068e-13            0         2534         2436 0.0033942252 
number of iterations: 1743 
   12000     321.4097     5001 3.9086598e-13            0         2551         2450 0.0029248383 
number of iterations: 1530 
   12100    322.04073     5056 3.9439756e-13            0         2585         2471 0.0040041856 
number of iterations: 1420 
   12200    322.60249     5087 3.9774966e-13            0         2607         2480 0.0028045943 
number of iterations: 1559 
   12300    323.21881     5130 4.0130565e-13            0         2629         2501 0.0034102151 
number of iterations: 1692 
   12400     323.8915     5160 4.0472604e-13            0         2646         2514 0.0027757164 
number of iterations: 1730 
   12500      324.573     5216 4.0835538e-13            0         2680         2536 0.0038737791 
number of iterations: 1323 
   12600    325.10272     5268 4.1198169e-13            0         2709         2559 0.0034369987 
number of iterations: 1671 
   12700    325.76782     5313 4.1558151e-13            0         2731         2582 0.0032532248 
number of iterations: 1566 
   12800     326.4389     5362 4.1923256e-13            0         2753         2609 0.0030890274 
number of iterations: 1221 
   12900    326.93247     5415 4.2282355e-13            0         2785         2630 0.0036822452 
number of iterations: 1617 
   13000    327.58347     5455 4.263011e-13            0         2809         2646 0.0033373489 
number of iterations: 1396 
   13100    328.16887     5491 4.2983368e-13            0         2828         2663 0.0027425871 
number of iterations: 1390 
   13200    328.72624     5539 4.3343967e-13            0         2852         2687 0.0033293446 
number of iterations: 1201 
   13300    329.23672     5577 4.3696239e-13            0         2873         2704 0.0030824779 
number of iterations: 1444 
   13400    329.81183     5610 4.4041389e-13            0         2891         2719 0.0027504363 
number of iterations: 1491 
   13500    330.41601     5642 4.4377411e-13            0         2915         2727 0.0031249562 
number of iterations: 1259 
   13600    330.95345     5669  4.47129e-13            0         2935         2734 0.0027428171 
number of iterations: 1536 
   13700    331.56218     5708 4.5066158e-13            0         2957         2751 0.0029032919 
number of iterations: 1160 
   13800    332.02914     5754 4.5410081e-13            0         2989         2765 0.0035989677 
number of iterations: 1266 
   13900    332.54076     5799 4.5758844e-13            0         3017         2782 0.0032309579 
number of iterations: 1306 
   14000    333.08109     5843 4.6110574e-13            0         3044         2799 0.0036294422 
number of iterations: 1414 
   14100    333.68017     5889 4.6463641e-13            0         3071         2818 0.0031996975 
number of iterations: 1234 
   14200    334.17649     5924 4.6809549e-13            0         3092         2832 0.0032414554 
number of iterations: 1433 
   14300    334.74914     5980 4.7184056e-13            0         3117         2863 0.0036492926 
number of iterations: 1238 
   14400    335.24981     6011 4.7526004e-13            0         3137         2874 0.0029351306 
number of iterations: 1187 
   14500    335.73163     6052 4.7877743e-13            0         3161         2891 0.0033634315 
number of iterations: 1314 
   14600    336.26641     6096 4.8231443e-13            0         3186         2910 0.0031923748 
number of iterations: 782 
   14700    336.59524     6142 4.8589198e-13            0         3210         2932 0.0036723138 
number of iterations: 1233 
   14800     337.1003     6179 4.8938108e-13            0         3231         2948 0.0029690789 
number of iterations: 1232 
   14900    337.60239     6212 4.9279763e-13            0         3254         2958  0.003381579 
number of iterations: 1200 
   15000    338.10124     6255 4.9644878e-13            0         3273         2982 0.0034032996 
number of iterations: 761 
   15100    338.45583     6315 5.0016093e-13            0         3306         3009 0.0038729865 
number of iterations: 1440 
   15200    339.04263     6360 5.0373679e-13            0         3330         3030 0.0032828518 
number of iterations: 1266 
   15300    339.55575     6427 5.0744864e-13            0         3367         3060 0.0041210916 
number of iterations: 1184 
   15400     340.0404     6474 5.1104031e-13            0         3392         3082 0.0034037475 
number of iterations: 1247 
   15500    340.54967     6515 5.1464802e-13            0         3412         3103 0.0033529253 
number of iterations: 1076 
   15600    340.99749     6551 5.1814573e-13            0         3434         3117 0.0028976008 
number of iterations: 1230 
   15700    341.50473     6592 5.2168439e-13            0         3458         3134 0.0034440773 
number of iterations: 1234 
   15800    342.00659     6643 5.2536364e-13            0         3481         3162 0.0035804179 
number of iterations: 1384 
   15900     342.5602     6685 5.289572e-13            0         3503         3182 0.0032739434 
number of iterations: 1294 
   16000    343.09842     6742 5.326853e-13            0         3531         3211 0.0038811614 
number of iterations: 1003 
   16100    343.56824     6771 5.3617064e-13            0         3546         3225 0.0027754146 
number of iterations: 1208 
   16200    344.06662     6811 5.396562e-13            0         3572         3239 0.0036170058 
number of iterations: 1204 
   16300    344.56121     6861 5.4332973e-13            0         3598         3263  0.004023301 
number of iterations: 1396 
   16400    345.12409     6895 5.4681673e-13            0         3618         3277 0.0031280706 
number of iterations: 1005 
   16500    345.54036     6937 5.5036559e-13            0         3642         3295 0.0035009932 
number of iterations: 1083 
   16600    345.99074     6979 5.5399704e-13            0         3660         3319 0.0033586894 
number of iterations: 1317 
   16700     346.5311     7009 5.5740599e-13            0         3680         3329   0.00325332 
number of iterations: 1259 
   16800    347.04958     7056 5.6106227e-13            0         3703         3353 0.0037030784 
number of iterations: 1441 
   16900    347.63537     7097 5.6449409e-13            0         3733         3364 0.0036570679 
number of iterations: 1025 
   17000    348.08201     7141 5.681458e-13            0         3754         3387 0.0036822149 
number of iterations: 1119 
   17100    348.57225     7198 5.7181639e-13            0         3785         3413 0.0039326348 
number of iterations: 1222 
   17200    349.07376     7244 5.7547184e-13            0         3807         3437 0.0036629165 
number of iterations: 1043 
   17300     349.5121     7279 5.7895299e-13            0         3828         3451 0.0032691548 
number of iterations: 1170 
   17400    349.98878     7327 5.8255471e-13            0         3854         3473 0.0038353657 
number of iterations: 1276 
   17500     350.5138     7368 5.8606897e-13            0         3880         3488 0.0034678527 
number of iterations: 998 
   17600    350.93612     7425 5.8977939e-13            0         3909         3516 0.0040685591 
number of iterations: 1315 
   17700    351.48092     7456 5.9338853e-13            0         3918         3538  0.003067341 
number of iterations: 1094 
   17800    351.93669     7504 5.9689181e-13            0         3951         3553 0.0039744498 
number of iterations: 990 
   17900    352.39489     7565 6.0059388e-13            0         3984         3581 0.0040983841 
number of iterations: 1061 
   18000    352.84805     7618 6.041921e-13            0         4017         3601 0.0038853878 
number of iterations: 1065 
   18100    353.32533     7663 6.077292e-13            0         4046         3617  0.003801238 
number of iterations: 1091 
   18200    353.78622     7709 6.1131519e-13            0         4073         3636  0.003930275 
number of iterations: 915 
   18300    354.16978     7740 6.1475397e-13            0         4092         3648 0.0030640632 
number of iterations: 973 
   18400    354.57752     7780 6.1828787e-13            0         4116         3664 0.0037151342 
number of iterations: 947 
   18500    354.98317     7823 6.2187777e-13            0         4138         3685 0.0034812687 
number of iterations: 800 
   18600    355.38464     7874 6.2541399e-13            0         4173         3701 0.0039367695 
number of iterations: 985 
   18700    355.80319     7913 6.2900098e-13            0         4191         3722 0.0033348312 
number of iterations: 1084 
   18800    356.25343     7970 6.3293832e-13            0         4208         3762 0.0040507106 
number of iterations: 1062 
   18900    356.69982     8022 6.3663874e-13            0         4234         3788 0.0038217946 
number of iterations: 927 
   19000    357.10676     8075 6.4038881e-13            0         4256         3819 0.0040860221 
number of iterations: 952 
   19100    357.54877     8125 6.4410137e-13            0         4278         3847 0.0040194026 
number of iterations: 1034 
   19200    357.98517     8187 6.4795022e-13            0         4304         3883 0.0043802837 
number of iterations: 1011 
   19300    358.41075     8233 6.5166591e-13            0         4323         3910 0.0037548813 
number of iterations: 921 
   19400    358.80524     8291 6.5539668e-13            0         4356         3935  0.004657694 
number of iterations: 1282 
   19500    359.32994     8327 6.5888709e-13            0         4378         3949 0.0036799526 
number of iterations: 1201 
   19600    359.87021     8379 6.6268522e-13            0         4399         3980 0.0042120991 
number of iterations: 1306 
   19700    360.41103     8416 6.6619691e-13            0         4421         3995 0.0034413992 
number of iterations: 759 
   19800    360.74419     8466 6.6998929e-13            0         4440         4026 0.0038541855 
number of iterations: 1123 
   19900    361.21283     8510 6.7356773e-13            0         4466         4044 0.0040882372 
number of iterations: 1099 
   20000    361.68754     8571 6.7741332e-13            0         4492         4079 0.0045485953 
number of iterations: 796 
   20100    362.06383     8631 6.8120388e-13            0         4521         4110 0.0046292091 
number of iterations: 913 
   20200    362.45615     8696 6.8520661e-13            0         4539         4157  0.004416996 
number of iterations: 867 
   20300    362.83101     8742 6.8882126e-13            0         4565         4177 0.0040328829 
number of iterations: 1016 
   20400    363.26563     8794 6.9254798e-13            0         4589         4205 0.0042067756 
number of iterations: 1226 
   20500    363.78482     8862 6.9637555e-13            0         4622         4240 0.0049243255 
number of iterations: 1001 
   20600    364.21441     8899 6.9998095e-13            0         4640         4259 0.0035790424 
number of iterations: 914 
   20700    364.60924     8941 7.0359541e-13            0         4662         4279  0.003912414 
number of iterations: 1182 
   20800    365.10644     8994 7.0725163e-13            0         4689         4305 0.0043238834 
number of iterations: 1087 
   20900    365.56606     9052 7.1095257e-13            0         4721         4331 0.0046921134 
number of iterations: 1029 
   21000    366.01814     9104 7.1467017e-13            0         4745         4359 0.0044755347 
number of iterations: 950 
   21100    366.46069     9144 7.1817923e-13            0         4771         4373 0.0040023436 
number of iterations: 932 
   21200    366.86205     9188 7.2195589e-13            0         4786         4402   0.00396376 
number of iterations: 998 
   21300    367.29029     9232 7.2547467e-13            0         4814         4418  0.004023793 
number of iterations: 879 
   21400    367.66872     9282 7.2916166e-13            0         4838         4444 0.0041359414 
number of iterations: 1164 
   21500    368.15887     9322 7.3275255e-13            0         4858         4464 0.0038271006 
number of iterations: 990 
   21600      368.585     9368 7.3642586e-13            0         4881         4487 0.0040240726 
number of iterations: 1271 
   21700    369.11894     9420 7.4006396e-13            0         4912         4508 0.0044494318 
number of iterations: 982 
   21800    369.53928     9451 7.4358393e-13            0         4928         4523 0.0032987908 
number of iterations: 830 
   21900    369.91996     9504 7.4722963e-13            0         4957         4547 0.0041921558 
number of iterations: 1289 
   22000    370.47171     9534 7.5069045e-13            0         4977         4557 0.0034219399 
number of iterations: 1069 
   22100    370.97124     9571 7.542825e-13            0         4995         4576 0.0036415252 
number of iterations: 1382 
   22200    371.54729     9627 7.5792907e-13            0         5027         4600 0.0047905974 
number of iterations: 1219 
   22300    372.05981     9675 7.615712e-13            0         5052         4623 0.0040560116 
number of iterations: 805 
   22400    372.41613     9721 7.6523204e-13            0         5076         4645 0.0040394899 
number of iterations: 1246 
   22500    372.93642     9773 7.6888764e-13            0         5104         4669 0.0044151013 
number of iterations: 752 
   22600    373.27621     9824 7.7265896e-13            0         5126         4698 0.0042870721 
number of iterations: 1065 
   22700    373.73778     9873 7.7636899e-13            0         5149         4724 0.0042701446 
number of iterations: 838 
   22800    374.10867     9918 7.8001333e-13            0         5174         4744 0.0042105075 
number of iterations: 972 
   22900    374.52998     9960 7.8359474e-13            0         5198         4762 0.0042410646 
number of iterations: 1067 
   23000    375.00216    10017 7.8737507e-13            0         5225         4792 0.0044956547 
number of iterations: 995 
   23100    375.46282    10064 7.9108253e-13            0         5246         4818 0.0041550798 
number of iterations: 1110 
   23200    375.93461    10113 7.9481727e-13            0         5270         4843 0.0045401126 
number of iterations: 920 
   23300     376.3316    10176 7.986903e-13            0         5296         4880  0.004530728 
number of iterations: 922 
   23400     376.7355    10220 8.0230445e-13            0         5321         4899  0.004204306 
number of iterations: 1171 
   23500    377.23048    10263 8.0587793e-13            0         5347         4916 0.0037611054 
number of iterations: 943 
   23600    377.63848    10303 8.0957504e-13            0         5364         4939 0.0037518189 
number of iterations: 772 
   23700    377.98621    10359 8.1313484e-13            0         5403         4956  0.004870025 
number of iterations: 1219 
   23800    378.50043    10402 8.166778e-13            0         5429         4973 0.0041780304 
number of iterations: 1305 
   23900    379.04746    10441 8.2030649e-13            0         5449         4992 0.0037783226 
number of iterations: 1081 
   24000    379.52858    10477 8.2387778e-13            0         5470         5007 0.0036972697 
number of iterations: 912 
   24100    379.96588    10530 8.2765228e-13            0         5496         5034  0.004666042 
number of iterations: 883 
   24200    380.35749    10576 8.3112721e-13            0         5532         5044 0.0047059842 
number of iterations: 956 
   24300     380.7724    10610 8.3459639e-13            0         5556         5054 0.0039014815 
number of iterations: 1340 
   24400    381.33187    10657 8.3827086e-13            0         5581         5076 0.0042142274 
number of iterations: 1437 
   24500    381.93288    10691 8.4189242e-13            0         5596         5095 0.0036378799 
number of iterations: 1139 
   24600    382.42762    10736 8.4554053e-13            0         5617         5119  0.004110734 
number of iterations: 843 
   24700    382.80703    10799 8.4926761e-13            0         5656         5143 0.0051442189 
number of iterations: 1111 
   24800    383.28698    10837 8.5287173e-13            0         5675         5162 0.0041154706 
number of iterations: 810 
   24900    383.65939    10876 8.5641256e-13            0         5699         5177 0.0041808399 
number of iterations: 849 
   25000    384.05417    10917 8.5997522e-13            0         5723         5194 0.0040539919 
number of iterations: 1223 
   25100    384.61536    10957 8.6355664e-13            0         5744         5213  0.003955218 
number of iterations: 966 
   25200    385.04138    11011 8.673201e-13            0         5768         5243 0.0046016308 
number of iterations: 974 
   25300    385.46667    11073 8.7105006e-13            0         5803         5270 0.0051718072 
number of iterations: 1021 
   25400    385.91635    11113 8.7464766e-13            0         5826         5287 0.0044279158 
number of iterations: 1442 
   25500    386.52882    11171 8.7843698e-13            0         5853         5318 0.0047384709 
number of iterations: 1120 
   25600    387.01357    11223 8.8222695e-13            0         5877         5346 0.0048341402 
number of iterations: 1101 
   25700     387.5006    11271 8.8583648e-13            0         5907         5364 0.0045848998 
number of iterations: 969 
   25800    387.92423    11325 8.8971322e-13            0         5925         5400 0.0044588108 
number of iterations: 1142 
   25900    388.41645    11380 8.9345906e-13            0         5954         5426  0.005022133 
number of iterations: 1408 
   26000    389.03191    11431 8.9713985e-13            0         5983         5448 0.0047557661 
number of iterations: 1053 
   26100    389.52658    11479 9.0082668e-13            0         6009         5470 0.0047798096 
number of iterations: 1215 
   26200    390.04728    11517 9.0439943e-13            0         6030         5487 0.0040708174 
number of iterations: 1416 
   26300    390.67921    11560 9.080164e-13            0         6054         5506  0.004460305 
number of iterations: 1447 
   26400     391.2835    11605 9.1171073e-13            0         6075         5530 0.0043180385 
number of iterations: 1378 
   26500    391.85988    11644 9.1538868e-13            0         6092         5552  0.004248674 
number of iterations: 1182 
   26600     392.3683    11707 9.1907305e-13            0         6133         5574 0.0051805654 
number of iterations: 1390 
   26700    392.95676    11752 9.2282447e-13            0         6150         5602 0.0040814126 
number of iterations: 1317 
   26800    393.52769    11791 9.2641989e-13            0         6172         5619 0.0040604862 
number of iterations: 1095 
   26900    394.01265    11833 9.3005722e-13            0         6194         5639 0.0040589775 
number of iterations: 960 
   27000     394.4614    11881 9.3371121e-13            0         6219         5662 0.0045639816 
number of iterations: 1468 
   27100    395.12016    11925 9.3740537e-13            0         6241         5684  0.004351049 
number of iterations: 1101 
   27200    395.59985    11976 9.4112706e-13            0         6266         5710 0.0046947209 
number of iterations: 1156 
   27300    396.10345    12023 9.4472815e-13            0         6296         5727 0.0048625634 
number of iterations: 1043 
   27400    396.55548    12073 9.4849164e-13            0         6319         5754  0.004646468 
number of iterations: 868 
   27500    396.94666    12113 9.5219116e-13            0         6338         5775 0.0042187189 
number of iterations: 1192 
   27600    397.46809    12168 9.5596458e-13            0         6364         5804 0.0050314494 
number of iterations: 1397 
   27700    398.06799    12215 9.5962579e-13            0         6390         5825 0.0044509823 
number of iterations: 1281 
   27800    398.62448    12260 9.6331288e-13            0         6411         5849 0.0040858279 
number of iterations: 1277 
   27900    399.17978    12308 9.6701147e-13            0         6435         5873 0.0040321644 
number of iterations: 1379 
   28000    399.78791    12349 9.7057127e-13            0         6462         5887 0.0042651938 
number of iterations: 1485 
   28100    400.45291    12384 9.7415931e-13            0         6481         5903 0.0037661154 
number of iterations: 1182 
   28200    400.96522    12429 9.7777648e-13            0         6508         5921 0.0042967323 
number of iterations: 1021 
   28300    401.41501    12485 9.8156746e-13            0         6534         5951 0.0048344961 
number of iterations: 1297 
   28400    401.97941    12530 9.8525363e-13            0         6557         5973 0.0043237299 
number of iterations: 1047 
   28500    402.44219    12598 9.8915207e-13            0         6588         6010  0.005032529 
number of iterations: 1158 
   28600    402.94894    12654 9.9285832e-13            0         6619         6035 0.0049449818 
number of iterations: 1393 
   28700    403.53946    12701 9.9661473e-13            0         6638         6063 0.0043088391 
number of iterations: 965 
   28800    403.97603    12749 1.0002797e-12            0         6664         6085 0.0045733178 
number of iterations: 992 
   28900    404.41841    12801 1.0040921e-12            0         6688         6113 0.0046806692 
number of iterations: 1309 
   29000    405.00274    12857 1.0079224e-12            0         6713         6144 0.0049776209 
number of iterations: 1370 
   29100      405.632    12900 1.0116303e-12            0         6733         6167 0.0044556968 
number of iterations: 1108 
   29200     406.1184    12939 1.0152737e-12            0         6752         6187 0.0041548818 
number of iterations: 1170 
   29300    406.62881    12985 1.0190379e-12            0         6772         6213 0.0046316036 
number of iterations: 1108 
   29400    407.11543    13011 1.0225042e-12            0         6790         6221 0.0038261304 
number of iterations: 864 
   29500    407.51338    13047 1.0261154e-12            0         6810         6237 0.0041360183 
number of iterations: 1061 
   29600    407.98997    13103 1.0298714e-12            0         6839         6264 0.0047468261 
number of iterations: 1233 
   29700    408.53427    13152 1.0336312e-12            0         6862         6290 0.0044409624 
number of iterations: 754 
   29800    408.89502    13203 1.0372573e-12            0         6895         6308 0.0050622599 
number of iterations: 1457 
   29900    409.51562    13246 1.0408369e-12            0         6923         6323 0.0042619437 
number of iterations: 1091 
   30000    410.01915    13277 1.0443893e-12            0         6941         6336 0.0039146578 
number of iterations: 1041 
   30100    410.53082    13319 1.0480306e-12            0         6962         6357 0.0042709127 
number of iterations: 1213 
   30200    411.06898    13367 1.0516609e-12            0         6992         6375  0.004889823 
number of iterations: 1090 
   30300    411.55699    13409 1.0553172e-12            0         7016         6393 0.0044359753 
number of iterations: 912 
   30400    411.97361    13459 1.058953e-12            0         7047         6412 0.0045542484 
number of iterations: 938 
   30500    412.43962    13503 1.0627018e-12            0         7065         6438 0.0042333769 
number of iterations: 1222 
   30600    412.98426    13550 1.0664369e-12            0         7087         6463   0.00440306 
number of iterations: 1130 
   30700    413.48328    13597 1.0702091e-12            0         7109         6488 0.0046418749 
number of iterations: 1332 
   30800    414.06114    13652 1.0740021e-12            0         7136         6516 0.0049650419 
number of iterations: 958 
   30900    414.49271    13703 1.0778334e-12            0         7156         6547  0.004581412 
number of iterations: 1060 
   31000    414.99135    13742 1.0814854e-12            0         7176         6566  0.004449636 
number of iterations: 1289 
   31100    415.58403    13794 1.0852043e-12            0         7207         6587 0.0051922039 
number of iterations: 1091 
   31200    416.07345    13833 1.0888211e-12            0         7229         6604 0.0041765796 
number of iterations: 1224 
   31300    416.61365    13882 1.0926553e-12            0         7248         6634 0.0044121498 
number of iterations: 1172 
   31400     417.1312    13933 1.0963786e-12            0         7276         6657 0.0048617949 
number of iterations: 1220 
   31500    417.66947    13994 1.100099e-12            0         7314         6680 0.0050641655 
number of iterations: 1140 
   31600    418.17078    14044 1.1038617e-12            0         7338         6706 0.0044649616 
number of iterations: 1089 
   31700    418.65801    14092 1.1076445e-12            0         7359         6733 0.0046173253 
number of iterations: 1233 
   31800    419.19776    14132 1.111371e-12            0         7376         6756 0.0041673758 
number of iterations: 1003 
   31900    419.67055    14175 1.1150989e-12            0         7396         6779  0.003987392 
number of iterations: 1086 
   32000    420.22093    14238 1.1190623e-12            0         7421         6817 0.0050353412 
number of iterations: 1201 
   32100    420.79185    14293 1.1230631e-12            0         7439         6854  0.004977913 
number of iterations: 1410 
   32200    421.40284    14345 1.1268843e-12            0         7464         6881 0.0047768191 
number of iterations: 1106 
   32300    421.89965    14396 1.1306879e-12            0         7487         6909 0.0045471178 
number of iterations: 1055 
   32400    422.37777    14442 1.1343278e-12            0         7514         6928  0.004415045 
number of iterations: 1067 
   32500    422.85803    14480 1.1379578e-12            0         7534         6946 0.0042316398 
number of iterations: 1173 
   32600    423.38338    14517 1.1414299e-12            0         7565         6952 0.0043360824 
number of iterations: 1344 
   32700    423.98855    14579 1.1453082e-12            0         7595         6984 0.0051179345 
number of iterations: 1176 
   32800    424.53689    14614 1.1488737e-12            0         7618         6996 0.0043550152 
number of iterations: 1263 
   32900    425.09646    14657 1.1524977e-12            0         7646         7011 0.0044502684 
number of iterations: 1068 
   33000    425.59973    14704 1.1562308e-12            0         7669         7035 0.0047538941 
number of iterations: 1098 
   33100    426.13076    14742 1.1598131e-12            0         7694         7048 0.0045274109 
number of iterations: 1183 
   33200    426.65354    14788 1.1635632e-12            0         7718         7070 0.0047321331 
number of iterations: 1291 
   33300    427.22655    14845 1.1674172e-12            0         7744         7101 0.0049526177 
number of iterations: 1065 
   33400    427.70944    14905 1.1712684e-12            0         7774         7131 0.0051383549 
number of iterations: 1509 
   33500    428.35993    14959 1.175152e-12            0         7797         7162 0.0047831475 
number of iterations: 852 
   33600    428.76559    15003 1.1788754e-12            0         7818         7185 0.0041692019 
number of iterations: 1030 
   33700    429.22834    15064 1.1827017e-12            0         7850         7214 0.0055616944 
number of iterations: 1078 
   33800    429.71737    15103 1.1862904e-12            0         7876         7227 0.0046422793 
number of iterations: 1082 
   33900    430.22357    15150 1.1899042e-12            0         7907         7243 0.0047998774 
number of iterations: 1086 
   34000    430.74243    15198 1.1936481e-12            0         7931         7267 0.0045762711 
number of iterations: 1101 
   34100    431.26413    15232  1.19722e-12            0         7951         7281 0.0041747274 
number of iterations: 1204 
   34200    431.80412    15282 1.2010233e-12            0         7974         7308 0.0045989368 
number of iterations: 1282 
   34300    432.37001    15326 1.2046754e-12            0         8002         7324 0.0046294505 
number of iterations: 893 
   34400    432.79145    15380 1.2084051e-12            0         8032         7348 0.0049288825 
number of iterations: 1125 
   34500     433.2971    15426 1.2120793e-12            0         8059         7367 0.0045379114 
number of iterations: 1008 
   34600    433.76025    15466 1.2158153e-12            0         8076         7390 0.0043581163 
number of iterations: 1119 
   34700    434.26309    15502 1.2194408e-12            0         8096         7406 0.0044274656 
number of iterations: 1201 
   34800      434.799    15544 1.2231526e-12            0         8118         7426  0.004629616 
number of iterations: 1266 
   34900    435.35815    15608 1.2271749e-12            0         8142         7466  0.005040482 
number of iterations: 1179 
   35000     435.9133    15658 1.2309768e-12            0         8165         7493 0.0049756409 
number of iterations: 1086 
   35100     436.4404    15706 1.234814e-12            0         8186         7520  0.005053891 
number of iterations: 1098 
   35200    436.94727    15757 1.2386412e-12            0         8210         7547 0.0050906215 
number of iterations: 1170 
   35300    437.48447    15792 1.2422363e-12            0         8232         7560 0.0046950983 
number of iterations: 1148 
   35400    438.02166    15833 1.2459068e-12            0         8256         7577 0.0046267576 
number of iterations: 937 
   35500     438.5029    15877 1.2496071e-12            0         8279         7598 0.0045281449 
number of iterations: 1277 
   35600     439.0771    15921 1.2532989e-12            0         8304         7617 0.0045243763 
number of iterations: 1298 
   35700    439.65285    15954 1.2569082e-12            0         8324         7630 0.0040998996 
number of iterations: 1223 
   35800    440.20138    15998 1.2606446e-12            0         8349         7649 0.0044327669 
number of iterations: 953 
   35900    440.65138    16048 1.2644537e-12            0         8374         7674 0.0048491047 
number of iterations: 1387 
   36000    441.30088    16084 1.2681475e-12            0         8392         7692 0.0043583787 
number of iterations: 1123 
   36100     441.8425    16128 1.2718443e-12            0         8419         7709 0.0048815963 
number of iterations: 1027 
   36200    442.32004    16188 1.2756902e-12            0         8452         7736  0.005564008 
number of iterations: 971 
   36300    442.77862    16231 1.2792869e-12            0         8481         7750 0.0047506435 
number of iterations: 1182 
   36400    443.31386    16299 1.2832476e-12            0         8515         7784 0.0055808474 
number of iterations: 854 
   36500    443.72623    16352 1.2869594e-12            0         8547         7805 0.0052064605 
number of iterations: 1079 
   36600    444.23531    16396 1.2907507e-12            0         8566         7830  0.004674189 
number of iterations: 1061 
   36700    444.72998    16448 1.2945915e-12            0         8592         7856 0.0049630835 
number of iterations: 1072 
   36800    445.23203    16493 1.2982188e-12            0         8621         7872   0.00476621 
number of iterations: 1310 
   36900    445.81461    16547 1.3020177e-12            0         8648         7899 0.0050357572 
number of iterations: 1105 
   37000       446.39    16594 1.3057567e-12            0         8673         7921 0.0047143022 
number of iterations: 974 
   37100    446.88946    16648 1.309636e-12            0         8697         7951 0.0049297666 
number of iterations: 1189 
   37200      447.426    16691 1.3132883e-12            0         8723         7968 0.0044061507 
number of iterations: 1237 
   37300    447.99214    16733 1.3168927e-12            0         8750         7983 0.0047306872 
number of iterations: 1213 
   37400    448.54252    16780 1.3206235e-12            0         8775         8005 0.0047648843 
number of iterations: 1258 
   37500    449.11842    16835 1.3244936e-12            0         8803         8032 0.0052262703 
number of iterations: 1200 
   37600    449.67128    16880 1.328231e-12            0         8826         8054 0.0049556901 
number of iterations: 889 
   37700    450.09914    16911 1.3318581e-12            0         8843         8068 0.0041642028 
number of iterations: 1176 
   37800    450.66901    16954 1.3356303e-12            0         8864         8090  0.004794571 
number of iterations: 1286 
   37900    451.25362    17010 1.339376e-12            0         8897         8113 0.0052179789 
number of iterations: 1104 
   38000    451.80048    17065 1.3430865e-12            0         8931         8134 0.0058165082 
number of iterations: 838 
   38100    452.24321    17101 1.3467322e-12            0         8953         8148 0.0047444624 
number of iterations: 1570 
   38200    452.93001    17156 1.3506388e-12            0         8976         8180 0.0050782686 
number of iterations: 1347 
   38300    453.53541    17206 1.3544896e-12            0         9001         8205 0.0052831553 
number of iterations: 1116 
   38400     454.0529    17270 1.3583499e-12            0         9034         8236 0.0057132069 
number of iterations: 1535 
   38500    454.73277    17320 1.3620972e-12            0         9063         8257 0.0050910502 
number of iterations: 979 
   38600    455.19436    17355 1.3657315e-12            0         9085         8270 0.0046448186 
number of iterations: 1399 
   38700    455.81739    17413 1.3695503e-12            0         9120         8293 0.0055219858 
number of iterations: 1170 
   38800    456.35898    17468 1.3733975e-12            0         9146         8322 0.0049798694 
number of iterations: 1030 
   38900    456.84323    17509 1.3770962e-12            0         9169         8340 0.0047581094 
number of iterations: 960 
   39000    457.33376    17556 1.3808466e-12            0         9195         8361 0.0051408027 
number of iterations: 944 
   39100    457.82912    17606 1.3846463e-12            0         9222         8384 0.0050496727 
number of iterations: 1099 
   39200    458.34379    17640 1.3883297e-12            0         9239         8401  0.004370238 
number of iterations: 1146 
   39300    458.88002    17698 1.3921566e-12            0         9271         8427 0.0057534052 
number of iterations: 1272 
   39400    459.46562    17747 1.3959773e-12            0         9297         8450  0.005194938 
number of iterations: 1140 
   39500    460.00116    17780 1.3996123e-12            0         9316         8464 0.0044046744 
number of iterations: 1045 
   39600    460.49588    17836 1.4035868e-12            0         9338         8498 0.0053479803 
number of iterations: 1108 
   39700    461.02085    17882 1.4073687e-12            0         9360         8522 0.0048040084 
number of iterations: 1277 
   39800    461.61211    17928 1.4112317e-12            0         9380         8548 0.0051171096 
number of iterations: 1151 
   39900    462.15275    17982 1.4151965e-12            0         9401         8581 0.0052978853 
number of iterations: 793 
   40000    462.58153    18021 1.418821e-12            0         9426         8595 0.0045435969 
number of iterations: 1042 
   40100    463.11059    18063 1.422644e-12            0         9443         8620 0.0048164934 
number of iterations: 1238 
   40200    463.68121    18103 1.4264072e-12            0         9465         8638 0.0049514422 
number of iterations: 1021 
   40300    464.18228    18144 1.4300528e-12            0         9492         8652 0.0049568151 
number of iterations: 1167 
   40400    464.72352    18187 1.4336648e-12            0         9524         8663 0.0050479709 
number of iterations: 1107 
   40500    465.24298    18236 1.4374593e-12            0         9552         8684 0.0051065969 
number of iterations: 1495 
   40600    465.91467    18278 1.441197e-12            0         9572         8706 0.0046269062 
number of iterations: 1086 
   40700    466.42712    18324 1.4449149e-12            0         9600         8724 0.0053076504 
number of iterations: 1308 
   40800    467.03093    18358 1.4485736e-12            0         9618         8740  0.004503169 
number of iterations: 1213 
   40900    467.59352    18388 1.4522159e-12            0         9637         8751   0.00453957 
number of iterations: 1125 
   41000    468.16178    18444 1.4561091e-12            0         9664         8780 0.0055302782 
number of iterations: 1017 
   41100    468.67639    18488 1.4597476e-12            0         9694         8794 0.0049177285 
number of iterations: 1140 
   41200    469.22164    18542 1.4636595e-12            0         9718         8824 0.0052684733 
number of iterations: 1616 
   41300    469.93671    18577 1.4672945e-12            0         9741         8836 0.0046610896 
number of iterations: 1210 
   41400    470.49682    18620 1.470996e-12            0         9767         8853 0.0048662982 
number of iterations: 1058 
   41500    470.99754    18654 1.4746875e-12            0         9786         8868 0.0047039009 
number of iterations: 1413 
   41600    471.64228    18693 1.4783058e-12            0         9815         8878 0.0049320621 
number of iterations: 921 
   41700    472.09903    18747 1.4820687e-12            0         9848         8899 0.0055897951 
number of iterations: 1051 
   41800    472.64293    18804 1.485756e-12            0         9888         8916 0.0056494552 
number of iterations: 1258 
   41900    473.22021    18868 1.4895898e-12            0         9926         8942 0.0058515953 
number of iterations: 1189 
   42000    473.80875    18912 1.4932885e-12            0         9953         8959 0.0052534262 
number of iterations: 1187 
   42100    474.40339    18952 1.4969557e-12            0         9979         8973 0.0049681662 
number of iterations: 1736 
   42200    475.15975    19004 1.5007596e-12            0        10008         8996 0.0052197386 
number of iterations: 1120 
   42300    475.69319    19068 1.5046959e-12            0        10041         9027 0.0058093156 
number of iterations: 1029 
   42400    476.19135    19120 1.5085637e-12            0        10067         9053 0.0053230206 
number of iterations: 951 
   42500    476.65776    19169 1.512403e-12            0        10092         9077 0.0052800065 
number of iterations: 1173 
   42600    477.21104    19218 1.5162043e-12            0        10117         9101 0.0054876458 
number of iterations: 1100 
   42700    477.74653    19272 1.5199952e-12            0        10147         9125 0.0055313861 
number of iterations: 1077 
   42800    478.26346    19328 1.5239095e-12            0        10170         9158 0.0052029136 
number of iterations: 1479 
   42900    478.93554    19371 1.5276637e-12            0        10195         9176 0.0051410572 
number of iterations: 1265 
   43000    479.54859    19412 1.531472e-12            0        10212         9200 0.0047095508 
number of iterations: 1091 
   43100    480.10626    19463 1.5352943e-12            0        10239         9224 0.0053710097 
number of iterations: 1278 
   43200    480.69246    19516 1.5391882e-12            0        10265         9251 0.0053547673 
number of iterations: 1130 
   43300    481.23907    19558 1.5428665e-12            0        10292         9266 0.0050533804 
number of iterations: 1278 
   43400     481.8291    19599 1.5466167e-12            0        10313         9286 0.0049348307 
number of iterations: 1170 
   43500    482.38617    19659 1.5505573e-12            0        10340         9319 0.0052088674 
number of iterations: 1432 
   43600    483.03954    19701  1.55425e-12            0        10367         9334 0.0046659917 
number of iterations: 1322 
   43700    483.65327    19749 1.5580834e-12            0        10390         9359 0.0052564049 
number of iterations: 1356 
   43800    484.31481    19786 1.5617442e-12            0        10415         9371 0.0047503453 
number of iterations: 1434 
   43900    484.97483    19834 1.5656335e-12            0        10436         9398 0.0052446211 
number of iterations: 1042 
   44000    485.51204    19879 1.5694531e-12            0        10460         9419 0.0051373882 
number of iterations: 1165 
   44100    486.09678    19916 1.5732011e-12            0        10479         9437 0.0047894508 
number of iterations: 1659 
   44200    486.84006    19971 1.5769689e-12            0        10516         9455 0.0056709411 
number of iterations: 1085 
   44300    487.36125    20024 1.5809481e-12            0        10536         9488 0.0054242048 
number of iterations: 1548 
   44400    488.06207    20070 1.5847418e-12            0        10561         9509 0.0052332359 
number of iterations: 1173 
   44500    488.62473    20124 1.5886365e-12            0        10587         9537 0.0055175812 
number of iterations: 1127 
   44600    489.16281    20168 1.5924067e-12            0        10612         9556 0.0050980773 
number of iterations: 1583 
   44700    489.87712    20217 1.5963218e-12            0        10632         9585 0.0049322647 
number of iterations: 1151 
   44800    490.42377    20259 1.5999969e-12            0        10660         9599 0.0050288915 
number of iterations: 1263 
   44900    491.01286    20310 1.6038901e-12            0        10685         9625 0.0051712703 
number of iterations: 1002 
   45000    491.54447    20363 1.6077893e-12            0        10712         9651 0.0054341311 
number of iterations: 1429 
   45100    492.24437    20405 1.6115212e-12            0        10736         9669 0.0046999328 
number of iterations: 1292 
   45200    492.86379    20474 1.6155859e-12            0        10768         9706 0.0062020161 
number of iterations: 1246 
   45300    493.45453    20520 1.6195051e-12            0        10785         9735 0.0053155535 
number of iterations: 1231 
   45400    494.03532    20561 1.6232104e-12            0        10811         9750 0.0049126934 
number of iterations: 1259 
   45500     494.6339    20611 1.6270628e-12            0        10837         9774 0.0055264128 
number of iterations: 1219 
   45600    495.20588    20676 1.6310981e-12            0        10868         9808 0.0063204186 
number of iterations: 1409 
   45700    495.86322    20735 1.6349794e-12            0        10901         9834 0.0058284988 
number of iterations: 958 
   45800    496.34665    20786   1.6389e-12            0        10924         9862 0.0052799944 
number of iterations: 1698 
   45900    497.10881    20836 1.6427623e-12            0        10951         9885 0.0051740526 
number of iterations: 1161 
   46000    497.71689    20886 1.646656e-12            0        10971         9915 0.0051048915 
number of iterations: 1242 
   46100    498.37631    20939 1.6505919e-12            0        10995         9944  0.005402791 
number of iterations: 1131 
   46200    498.92951    20984 1.6542622e-12            0        11028         9956 0.0055821914 
number of iterations: 1089 
   46300    499.45757    21032 1.6580413e-12            0        11056         9976 0.0055522483 
number of iterations: 1487 
   46400    500.14162    21081 1.6617801e-12            0        11086         9995 0.0052104044 
number of iterations: 1385 
   46500    500.79023    21122 1.6655619e-12            0        11108        10014 0.0048343647 
number of iterations: 1124 
   46600    501.33918    21158 1.6693488e-12            0        11126        10032 0.0047550357 
number of iterations: 1466 
   46700    502.03244    21211 1.673381e-12            0        11146        10065 0.0053824576 
number of iterations: 1234 
   46800    502.62671    21279 1.6773151e-12            0        11185        10094 0.0066286132 
number of iterations: 1212 
   46900    503.21097    21316 1.6810402e-12            0        11207        10109 0.0048617329 
number of iterations: 1362 
   47000    503.87837    21368 1.6847925e-12            0        11242        10126 0.0059238678 
number of iterations: 1454 
   47100    504.59296    21423 1.6887324e-12            0        11270        10153 0.0059115591 
number of iterations: 1237 
   47200    505.18754    21474 1.6926798e-12            0        11293        10181 0.0054739152 
number of iterations: 1245 
   47300    505.78977    21518 1.6966565e-12            0        11307        10211 0.0051224906 
number of iterations: 1337 
   47400    506.42481    21561 1.7004199e-12            0        11334        10227 0.0053030566 
number of iterations: 1471 
   47500    507.11767    21622  1.70442e-12            0        11363        10259 0.0056511575 
number of iterations: 1274 
   47600     507.7273    21679 1.7083105e-12            0        11394        10285 0.0061833422 
number of iterations: 1659 
   47700    508.47707    21732 1.7122255e-12            0        11420        10312 0.0055485145 
number of iterations: 1369 
   47800    509.11847    21782  1.71612e-12            0        11444        10338 0.0051198081 
number of iterations: 1226 
   47900    509.71218    21825 1.7199297e-12            0        11468        10357 0.0051219986 
number of iterations: 1012 
   48000    510.26089    21874 1.7238201e-12            0        11490        10384 0.0052728628 
number of iterations: 1071 
   48100    510.82307    21924 1.7277214e-12            0        11515        10409 0.0053853709 
number of iterations: 1626 
   48200    511.57051    21982 1.7317122e-12            0        11542        10440  0.005537146 
number of iterations: 1208 
   48300    512.15966    22041 1.7355606e-12            0        11577        10464 0.0058757232 
number of iterations: 1093 
   48400    512.70256    22085 1.7393387e-12            0        11604        10481 0.0051528963 
number of iterations: 1424 
   48500    513.36775    22134 1.7431129e-12            0        11635        10499 0.0053139849 
number of iterations: 1275 
   48600    513.97967    22187 1.746995e-12            0        11664        10523 0.0059015834 
number of iterations: 1781 
   48700    514.78945    22238 1.7508568e-12            0        11693        10545 0.0057578421 
number of iterations: 1210 
   48800    515.37475    22274 1.7546679e-12            0        11709        10565 0.0047747291 
number of iterations: 1291 
   48900    516.00293    22323 1.7585815e-12            0        11732        10591  0.005351742 
number of iterations: 1194 
   49000    516.62004    22383 1.7625147e-12            0        11767        10616 0.0060150708 
number of iterations: 1608 
   49100    517.40433    22431 1.7664237e-12            0        11788        10643 0.0053144694 
number of iterations: 1367 
   49200    518.07301    22467 1.7700818e-12            0        11813        10654 0.0050002181 
number of iterations: 1131 
   49300    518.66853    22505 1.7737931e-12            0        11838        10667 0.0047615523 
number of iterations: 1305 
   49400    519.29543    22558 1.7776609e-12            0        11868        10690  0.005430037 
number of iterations: 1044 
   49500    519.83155    22602 1.7815393e-12            0        11889        10713 0.0053913306 
number of iterations: 1162 
   49600    520.40487    22646 1.7853212e-12            0        11917        10729 0.0054413819 
number of iterations: 1406 
   49700    521.07161    22682 1.7891978e-12            0        11932        10750 0.0048852802 
number of iterations: 1212 
   49800    521.67228    22721 1.7929945e-12            0        11953        10768  0.004937965 
number of iterations: 1220 
   49900    522.27088    22763 1.7968017e-12            0        11977        10786 0.0050812745 
number of iterations: 1388 
   50000     522.9673    22806 1.8006275e-12            0        12001        10805 0.0052519523 
number of iterations: 1149 
   50100    523.60818    22859 1.8044177e-12            0        12035        10824 0.0055801633 
number of iterations: 1379 
   50200    524.27327    22913 1.8083104e-12            0        12065        10848  0.005662738 
number of iterations: 1408 
   50300    524.94917    22949 1.8120486e-12            0        12087        10862 0.0048615995 
number of iterations: 1041 
   50400    525.48203    23004 1.8159738e-12            0        12116        10888  0.005381802 
number of iterations: 1638 
   50500    526.30396    23056 1.8196951e-12            0        12156        10900 0.0059384293 
number of iterations: 1334 
   50600    526.94486    23107 1.8235822e-12            0        12184        10923 0.0056018226 
number of iterations: 1151 
   50700    527.51473    23153 1.8275026e-12            0        12206        10947 0.0054329137 
number of iterations: 1214 
   50800    528.10677    23213 1.831519e-12            0        12235        10978 0.0062285454 
number of iterations: 1363 
   50900    528.76557    23253 1.8353978e-12            0        12253        11000  0.005344772 
number of iterations: 1048 
   51000    529.34068    23304 1.8392138e-12            0        12286        11018  0.006071839 
number of iterations: 1179 
   51100    529.96176    23355 1.8431015e-12            0        12317        11038 0.0058590679 
number of iterations: 1648 
   51200    530.78183    23404 1.8469485e-12            0        12343        11061 0.0054802045 
number of iterations: 1357 
   51300    531.43595    23446 1.8508715e-12            0        12359        11087 0.0047676113 
number of iterations: 1450 
   51400    532.13337    23503 1.8548463e-12            0        12388        11115 0.0058216953 
number of iterations: 1276 
   51500    532.81105    23543 1.8585794e-12            0        12414        11129 0.0054024643 
number of iterations: 1432 
   51600    533.49432    23582 1.8624456e-12            0        12432        11150 0.0049957487 
number of iterations: 1366 
   51700     534.1584    23628 1.866339e-12            0        12456        11172  0.005585828 
number of iterations: 1287 
   51800    534.79283    23665 1.8700159e-12            0        12484        11181 0.0051911746 
number of iterations: 1272 
   51900    535.42093    23716 1.8738792e-12            0        12514        11202 0.0056480615 
number of iterations: 1315 
   52000    536.10747    23757 1.877728e-12            0        12535        11222 0.0051521113 
number of iterations: 1488 
   52100    536.86098    23813  1.88174e-12            0        12562        11251 0.0059613366 
number of iterations: 1305 
   52200    537.51483    23853 1.8855948e-12            0        12582        11271 0.0053510761 
number of iterations: 1141 
   52300    538.10237    23902 1.8895597e-12            0        12603        11299 0.0052898231 
number of iterations: 1436 
   52400    538.79817    23942 1.8933724e-12            0        12625        11317 0.0051157351 
number of iterations: 1119 
   52500    539.36555    24001 1.8974326e-12            0        12651        11350 0.0059302356 
number of iterations: 1112 
   52600     539.9328    24044 1.9012778e-12            0        12676        11368 0.0055064594 
number of iterations: 1394 
   52700    540.60737    24103 1.9053486e-12            0        12703        11400 0.0059687835 
number of iterations: 1242 
   52800     541.2298    24153 1.9092377e-12            0        12732        11421 0.0060434061 
number of iterations: 1389 
   52900    541.91011    24212 1.913184e-12            0        12764        11448 0.0065438392 
number of iterations: 1634 
   53000    542.72528    24260 1.9171587e-12            0        12786        11474 0.0056812708 
number of iterations: 1094 
   53100    543.33453    24296 1.9209234e-12            0        12810        11486 0.0053041599 
number of iterations: 1213 
   53200    543.94967    24347 1.9248566e-12            0        12836        11511 0.0057827708 
number of iterations: 1257 
   53300     544.6184    24399 1.9287486e-12            0        12866        11533 0.0061605875 
number of iterations: 1452 
   53400    545.31726    24449 1.9325756e-12            0        12898        11551 0.0056567386 
number of iterations: 1480 
   53500    546.02496    24501 1.9364499e-12            0        12929        11572 0.0059415045 
number of iterations: 1405 
   53600    546.70879    24550 1.9404554e-12            0        12951        11599 0.0056250345 
number of iterations: 1567 
   53700    547.45856    24604 1.9443154e-12            0        12984        11620  0.005945486 
number of iterations: 1227 
   53800     548.0684    24659 1.9482342e-12            0        13016        11643 0.0062940215 
number of iterations: 1575 
   53900    548.85691    24696 1.9519672e-12            0        13042        11654 0.0051666814 
number of iterations: 1865 
   54000    549.76548    24757 1.9560535e-12            0        13072        11685 0.0061477396 
number of iterations: 1275 
   54100    550.44116    24799 1.9598586e-12            0        13097        11702 0.0053395918 
number of iterations: 1144 
   54200    551.03666    24858 1.9638507e-12            0        13128        11730 0.0060148354 
number of iterations: 1808 
   54300    551.88355    24908 1.9678121e-12            0        13152        11756 0.0054915733 
number of iterations: 1774 
   54400    552.71116    24963 1.9718573e-12            0        13178        11785  0.005636689 
number of iterations: 1272 
   54500     553.3486    25008 1.9757453e-12            0        13202        11806 0.0053613666 
number of iterations: 1160 
   54600     553.9419    25055 1.9796233e-12            0        13230        11825 0.0058468654 
number of iterations: 1421 
   54700    554.67878    25109 1.983546e-12            0        13260        11849 0.0059444632 
number of iterations: 1123 
   54800    555.26102    25170 1.9875721e-12            0        13292        11878 0.0059206118 
number of iterations: 1951 
   54900    556.16766    25209 1.9914249e-12            0        13313        11896 0.0053707973 
number of iterations: 1287 
   55000    556.86035    25256 1.9952848e-12            0        13341        11915 0.0058354158 
number of iterations: 1229 
   55100    557.52722    25302 1.9991722e-12            0        13368        11934 0.0054608359 
number of iterations: 1136 
   55200     558.1145    25351 2.0029717e-12            0        13404        11947 0.0058392322 
number of iterations: 1424 
   55300    558.81019    25401 2.0068822e-12            0        13432        11969 0.0057615114 
number of iterations: 1672 
   55400    559.60071    25449 2.0108273e-12            0        13456        11993 0.0057498928 
number of iterations: 1210 
   55500    560.22491    25504 2.014809e-12            0        13487        12017 0.0061312648 
number of iterations: 1689 
   55600    561.03396    25563 2.0187612e-12            0        13524        12039 0.0065181844 
number of iterations: 1638 
   55700    561.82934    25606 2.0226845e-12            0        13544        12062  0.005471808 
number of iterations: 1235 
   55800    562.46213    25668 2.0266601e-12            0        13580        12088 0.0063043618 
number of iterations: 1446 
   55900    563.17224    25723 2.0306613e-12            0        13607        12116  0.005987779 
number of iterations: 1226 
   56000    563.84306    25771 2.0344989e-12            0        13637        12134 0.0060360503 
number of iterations: 1160 
   56100    564.51698    25832 2.0386243e-12            0        13663        12169 0.0062698709 
number of iterations: 1626 
   56200    565.30402    25892 2.0426165e-12            0        13694        12198 0.0061053141 
number of iterations: 1533 
   56300    566.05276    25952 2.0466463e-12            0        13725        12227  0.006252111 
number of iterations: 1454 
   56400    566.77933    25998 2.0505358e-12            0        13752        12246 0.0059411082 
number of iterations: 1200 
   56500    567.39319    26039 2.0543215e-12            0        13780        12259 0.0055939269 
number of iterations: 1351 
   56600    568.06737    26090 2.058346e-12            0        13803        12287 0.0057420397 
number of iterations: 1228 
   56700    568.69668    26139 2.0623993e-12            0        13824        12315 0.0058720422 
number of iterations: 1385 
   56800    569.39236    26182 2.0663149e-12            0        13845        12337 0.0055139104 
number of iterations: 1548 
   56900    570.14963    26243 2.0705619e-12            0        13866        12377 0.0060364433 
number of iterations: 1648 
   57000     570.9884    26282 2.0744093e-12            0        13887        12395 0.0053854904 
number of iterations: 1477 
   57100    571.76936    26332 2.0783562e-12            0        13914        12418 0.0059105823 
number of iterations: 1183 
   57200    572.37528    26387 2.0824185e-12            0        13940        12447 0.0058845514 
number of iterations: 1232 
   57300      573.009    26443 2.086517e-12            0        13965        12478 0.0061817115 
number of iterations: 1837 
   57400    573.88726    26491 2.0904614e-12            0        13991        12500 0.0056229269 
number of iterations: 1568 
   57500    574.64888    26540 2.0944696e-12            0        14014        12526 0.0053823332 
number of iterations: 1400 
   57600    575.34039    26591 2.0984486e-12            0        14042        12549 0.0058568065 
number of iterations: 1017 
   57700    575.88539    26649 2.1025546e-12            0        14067        12582 0.0062387997 
number of iterations: 1399 
   57800    576.58493    26710 2.1065831e-12            0        14103        12607 0.0067097175 
number of iterations: 2046 
   57900    577.53089    26764 2.110669e-12            0        14127        12637 0.0061784568 
number of iterations: 1324 
   58000    578.24492    26817 2.1147125e-12            0        14152        12665 0.0060233709 
number of iterations: 1683 
   58100    579.07853    26862 2.1186437e-12            0        14175        12687 0.0054187396 
number of iterations: 1237 
   58200    579.72039    26916 2.1227239e-12            0        14198        12718 0.0061719506 
number of iterations: 1520 
   58300    580.47079    26973 2.1267248e-12            0        14228        12745 0.0061882638 
number of iterations: 1414 
   58400    581.17653    27020 2.1306986e-12            0        14250        12770 0.0058011886 
number of iterations: 1175 
   58500    581.79885    27064 2.1346547e-12            0        14274        12790 0.0057271381 
number of iterations: 1424 
   58600    582.51663    27122 2.1385867e-12            0        14311        12811 0.0064128112 
number of iterations: 1379 
   58700    583.21604    27170 2.1426432e-12            0        14332        12838 0.0056560332 
number of iterations: 1295 
   58800    583.88562    27215 2.1466174e-12            0        14354        12861   0.00606628 
number of iterations: 1700 
   58900    584.71106    27262 2.1504953e-12            0        14386        12876  0.006171566 
number of iterations: 1580 
   59000     585.6403    27320 2.154539e-12            0        14417        12903 0.0064440172 
number of iterations: 1187 
   59100    586.29112    27370 2.1586787e-12            0        14436        12934 0.0059300067 
number of iterations: 1292 
   59200    586.96071    27412 2.1626472e-12            0        14458        12954 0.0059270741 
number of iterations: 1660 
   59300    587.76871    27451 2.166567e-12            0        14478        12973 0.0056944799 
number of iterations: 1990 
   59400    588.69677    27485 2.1704792e-12            0        14495        12990 0.0052892935 
number of iterations: 1215 
   59500    589.32679    27544 2.1745833e-12            0        14524        13020 0.0062984121 
number of iterations: 1256 
   59600    589.98235    27592 2.1785007e-12            0        14554        13038 0.0060424965 
number of iterations: 1398 
   59700    590.69314    27632 2.1824603e-12            0        14572        13060 0.0054850612 
number of iterations: 1557 
   59800    591.46589    27675 2.186325e-12            0        14600        13075 0.0056747591 
number of iterations: 1696 
   59900    592.30254    27731 2.1903631e-12            0        14626        13105 0.0058094757 
number of iterations: 1228 
   60000    593.00836    27798 2.194548e-12            0        14660        13138 0.0067050205 
number of iterations: 1348 
   60100    593.74028    27849 2.1985478e-12            0        14687        13162 0.0063640983 
number of iterations: 1651 
   60200    594.55678    27907 2.2026143e-12            0        14719        13188 0.0067556633 
number of iterations: 1092 
   60300    595.14965    27962 2.2066958e-12            0        14748        13214 0.0063839265 
number of iterations: 1532 
   60400    595.91878    28009 2.2106795e-12            0        14774        13235  0.006056362 
number of iterations: 1589 
   60500    596.71278    28069 2.214716e-12            0        14809        13260 0.0064870797 
number of iterations: 1566 
   60600    597.49965    28134 2.2187911e-12            0        14847        13287 0.0070795946 
number of iterations: 1410 
   60700    598.27458    28181 2.2225846e-12            0        14884        13297 0.0061643684 
number of iterations: 1445 
   60800    599.00563    28236 2.2267555e-12            0        14906        13330 0.0060333035 
number of iterations: 1486 
   60900    599.75805    28287 2.2307924e-12            0        14932        13355 0.0056703017 
number of iterations: 1195 
   61000    600.43483    28346 2.2348974e-12            0        14962        13384 0.0060522474 
number of iterations: 1464 
   61100    601.20724    28391 2.2388232e-12            0        14987        13404 0.0057971882 
number of iterations: 1343 
   61200    601.89558    28449 2.2430756e-12            0        15007        13442 0.0061769193 
number of iterations: 1322 
   61300    602.57598    28499 2.2470652e-12            0        15036        13463 0.0061545782 
number of iterations: 1258 
   61400    603.23378    28545 2.2510822e-12            0        15058        13487 0.0056834028 
number of iterations: 1351 
   61500    604.04709    28590 2.2550035e-12            0        15085        13505 0.0058698582 
number of iterations: 1385 
[...]
number of iterations: 1884 
   65100    633.22651    30519 2.4026175e-12            0        16053        14466 0.0067395628 
number of iterations: 2134 
   65200    634.24972    30576 2.4068292e-12            0        16076        14500 0.0065046342 
number of iterations: 1392 
   65300    635.00086    30626 2.4108597e-12            0        16106        14520  0.006602549 
number of iterations: 1849 
   65400    635.91407    30677 2.4150123e-12            0        16130        14547 0.0064267598 
number of iterations: 1793 
   65500    636.82065    30729 2.4190149e-12            0        16162        14567 0.0067970865 
number of iterations: 1590 
   65600    637.63041    30783 2.4231593e-12            0        16188        14595 0.0069019277 
number of iterations: 1958 
   65700    638.58133    30831 2.4272398e-12            0        16213        14618 0.0065882678 
number of iterations: 1401 
   65800    639.31984    30887 2.4313172e-12            0        16246        14641 0.0070121167 
number of iterations: 1871 
   65900    640.24216    30922 2.4352826e-12            0        16266        14656 0.0059423983 
number of iterations: 1544 
   66000    641.09843    30981 2.4394163e-12            0        16299        14682 0.0071361699 
number of iterations: 1998 
   66100    642.14515    31032 2.4436304e-12            0        16320        14712 0.0065368711 
number of iterations: 1788 
   66200    643.04729    31094 2.4477941e-12            0        16354        14740 0.0072689232 
number of iterations: 1658 
   66300    643.92206    31147 2.4519131e-12            0        16381        14766 0.0064970463 
number of iterations: 1791 
   66400    644.87632    31193 2.4561091e-12            0        16399        14794 0.0060241044 
number of iterations: 1776 
   66500    645.78324    31248 2.4603013e-12            0        16424        14824 0.0064177149 
number of iterations: 1467 
   66600    646.60662    31305 2.4643975e-12            0        16457        14848 0.0070122213 
number of iterations: 1586 
   66700    647.43539    31342 2.4683756e-12            0        16479        14863 0.0060828056 
number of iterations: 1542 
   66800    648.25394    31394 2.4724983e-12            0        16504        14890  0.006204748 
number of iterations: 1617 
   66900    649.09461    31448 2.4766545e-12            0        16532        14916 0.0065452554 
number of iterations: 1837 
   67000    650.06795    31503 2.4808203e-12            0        16560        14943 0.0065886497 
number of iterations: 1394 
   67100     650.8658    31556 2.4848931e-12            0        16591        14965 0.0064946185 
number of iterations: 1563 
   67200    651.69209    31615 2.4889949e-12            0        16626        14989 0.0071358834 
number of iterations: 1739 
   67300    652.62289    31676 2.4930255e-12            0        16667        15009 0.0076533868 
number of iterations: 1574 
   67400    653.44267    31731 2.4971536e-12            0        16697        15034  0.006384262 
number of iterations: 1235 
   67500    654.13791    31788 2.5013617e-12            0        16726        15062 0.0065728491 
number of iterations: 2047 
   67600    655.15161    31834 2.505436e-12            0        16751        15083 0.0063696857 
number of iterations: 1928 
   67700    656.11485    31885 2.5096135e-12            0        16775        15110 0.0068456944 
number of iterations: 1580 
   67800    656.94876    31932 2.5137002e-12            0        16800        15132 0.0065321236 
number of iterations: 1639 
   67900    657.80675    31976 2.5177318e-12            0        16826        15150 0.0063729611 
number of iterations: 1531 
   68000    658.67087    32041 2.5219632e-12            0        16861        15180 0.0078321827 
number of iterations: 1501 
   68100    659.51001    32078 2.5260162e-12            0        16879        15199 0.0064237289 
number of iterations: 1600 
   68200    660.35251    32115 2.5301039e-12            0        16895        15220 0.0059240186 
number of iterations: 1454 
   68300    661.13681    32161 2.5342038e-12            0        16917        15244 0.0065187457 
number of iterations: 1665 
   68400    662.00806    32216 2.5383205e-12            0        16949        15267 0.0071699865 
number of iterations: 1375 
   68500    662.76613    32269 2.5424263e-12            0        16982        15287 0.0069861216 
number of iterations: 1524 
   68600    663.58064    32320 2.5466543e-12            0        17006        15314 0.0064420283 
number of iterations: 1633 
   68700    664.43684    32395 2.5510555e-12            0        17041        15354 0.0074192235 
number of iterations: 1891 
   68800    665.41243    32449 2.5553128e-12            0        17065        15384 0.0064402944 
number of iterations: 1843 
   68900     666.3643    32497 2.559465e-12            0        17090        15407 0.0067839833 
number of iterations: 1573 
   69000    667.24256    32536 2.5635479e-12            0        17109        15427 0.0058595391 
number of iterations: 1641 
   69100    668.13999    32592 2.5677206e-12            0        17141        15451 0.0070034548 
number of iterations: 1619 
   69200    668.99707    32636 2.5716641e-12            0        17173        15463 0.0065440804 
number of iterations: 1360 
   69300    669.74492    32688 2.5758486e-12            0        17201        15487 0.0069165644 
number of iterations: 1367 
   69400    670.49836    32734 2.5798278e-12            0        17233        15501 0.0067975882 
number of iterations: 1423 
   69500    671.27094    32788 2.5840506e-12            0        17259        15529 0.0071523019 
number of iterations: 1637 
   69600    672.13713    32833 2.5881384e-12            0        17284        15549 0.0064991718 
number of iterations: 1609 
   69700    672.99191    32900 2.5924701e-12            0        17316        15584 0.0072670174 
number of iterations: 1559 
   69800    673.82799    32966 2.596753e-12            0        17351        15615 0.0079167022 
number of iterations: 2064 
   69900    674.86076    33011 2.6009177e-12            0        17372        15639 0.0063768672 
number of iterations: 1483 
   70000    675.72447    33051 2.6048176e-12            0        17404        15647 0.0066826858 
number of iterations: 1645 
   70100    676.61846    33106 2.6090446e-12            0        17431        15675 0.0070964803 
number of iterations: 1129 
   70200    677.28142    33167 2.6132397e-12            0        17464        15703 0.0072078623 
number of iterations: 1516 
   70300     678.1621    33215 2.6173912e-12            0        17487        15728 0.0067307621 
number of iterations: 1318 
   70400    678.96945    33276 2.6214456e-12            0        17531        15745 0.0078167886 
number of iterations: 1644 
   70500    679.83341    33329 2.6256725e-12            0        17555        15774 0.0069768803 
number of iterations: 1494 
   70600    680.64058    33381 2.6297618e-12            0        17587        15794 0.0074280909 
number of iterations: 1509 
   70700    681.46744    33429 2.6338978e-12            0        17615        15814 0.0073140007 
number of iterations: 1535 
   70800    682.34255    33479 2.6380006e-12            0        17645        15834 0.0069780834 
number of iterations: 1407 
   70900    683.12866    33522 2.6419672e-12            0        17676        15846 0.0066781049 
number of iterations: 1361 
   71000    683.94735    33577 2.646245e-12            0        17701        15876 0.0070406622 
number of iterations: 1345 
   71100    684.73983    33633  2.65052e-12            0        17727        15906 0.0070157382 
number of iterations: 1470 
   71200     685.5569    33685 2.6549253e-12            0        17743        15942 0.0067303333 
number of iterations: 1737 
   71300    686.46204    33732 2.6590601e-12            0        17767        15965 0.0069817266 
number of iterations: 1764 
   71400    687.38861    33774 2.6631051e-12            0        17793        15981 0.0065443983 
number of iterations: 1326 
   71500    688.14487    33846 2.6674912e-12            0        17831        16015 0.0076925304 
number of iterations: 1719 
   71600    689.05338    33919 2.6720624e-12            0        17861        16058 0.0075087137 
number of iterations: 1628 
   71700    689.97055    33973 2.6762365e-12            0        17889        16084 0.0069417377 
number of iterations: 1513 
   71800    690.80008    34014 2.6803571e-12            0        17911        16103 0.0064742586 
number of iterations: 1282 
   71900    691.54055    34073 2.6846581e-12            0        17938        16135 0.0073465568 
number of iterations: 1489 
   72000    692.41083    34129 2.6889908e-12            0        17963        16166 0.0071269201 
number of iterations: 1587 
   72100    693.29848    34175 2.6931545e-12            0        17987        16188 0.0064913142 
number of iterations: 1367 
   72200    694.06286    34246 2.6975146e-12            0        18022        16224 0.0078059062 
number of iterations: 1614 
   72300    694.93366    34293 2.701739e-12            0        18046        16247 0.0070483315 
number of iterations: 1636 
   72400    695.81677    34338 2.7058771e-12            0        18072        16266 0.0070221169 
number of iterations: 1507 
   72500    696.66343    34384 2.7099475e-12            0        18103        16281 0.0071148219 
number of iterations: 1553 
   72600    697.51666    34442 2.714175e-12            0        18136        16306 0.0077322123 
number of iterations: 1640 
   72700    698.40295    34506 2.7185803e-12            0        18165        16341 0.0074977566 
number of iterations: 1858 
   72800    699.37335    34562 2.7227172e-12            0        18201        16361 0.0073159821 
number of iterations: 1252 
   72900    700.10909    34600 2.7267311e-12            0        18226        16374  0.006433145 
number of iterations: 1448 
   73000    700.96676    34671 2.7313004e-12            0        18251        16420  0.007506853 
number of iterations: 1344 
   73100     701.8054    34731 2.7355453e-12            0        18283        16448 0.0074788618 
number of iterations: 1552 
   73200    702.65334    34776 2.7396686e-12            0        18308        16468 0.0067876256 
number of iterations: 1894 
   73300     703.6447    34824 2.7438444e-12            0        18333        16491 0.0065977706 
number of iterations: 1785 
   73400    704.59561    34891 2.748225e-12            0        18364        16527 0.0075343491 
number of iterations: 1778 
   73500     705.5407    34959 2.7526354e-12            0        18395        16564 0.0076654065 
number of iterations: 1817 
   73600     706.4923    35009 2.7568279e-12            0        18424        16585 0.0071216998 
number of iterations: 1559 
   73700     707.3537    35057 2.7610564e-12            0        18447        16610 0.0067409842 
number of iterations: 1865 
   73800    708.33462    35113 2.7652906e-12            0        18479        16634 0.0074384841 
number of iterations: 1679 
   73900    709.23402    35162 2.7694592e-12            0        18507        16655 0.0068703955 
number of iterations: 1397 
   74000    710.07932    35224 2.7737914e-12            0        18538        16686 0.0074922394 
number of iterations: 1731 
   74100    711.03328    35295 2.778216e-12            0        18575        16720 0.0078281244 
number of iterations: 1942 
   74200    712.05033    35363 2.7826171e-12            0        18605        16758 0.0075550449 
number of iterations: 2092 
   74300     713.1755    35415 2.7868265e-12            0        18634        16781 0.0071277845 
number of iterations: 2020 
   74400    714.22464    35472 2.7912616e-12            0        18655        16817 0.0068733355 
number of iterations: 809 
   74500    714.86083    35519 2.795401e-12            0        18683        16836 0.0068309385 
number of iterations: 1556 
   74600    715.73959    35569 2.7997449e-12            0        18701        16868  0.006599268 
number of iterations: 1370 
   74700    716.53761    35637 2.8042314e-12            0        18730        16907 0.0078089104 
number of iterations: 1419 
   74800    717.36167    35702 2.8086803e-12            0        18758        16944 0.0079302852 
number of iterations: 1705 
   74900    718.28582    35741 2.8129067e-12            0        18776        16965 0.0068534435 
number of iterations: 1551 
   75000    719.19526    35791 2.8172601e-12            0        18796        16995 0.0069851046 
number of iterations: 1840 
   75100    720.20777    35869  2.82181e-12            0        18830        17039 0.0087401681 
number of iterations: 2325 
   75200    721.38733    35926 2.8261818e-12            0        18858        17068 0.0079886429 
number of iterations: 1662 
   75300    722.30432    35995 2.8306174e-12            0        18893        17102   0.00849153 
number of iterations: 2348 
   75400    723.48153    36059 2.8349831e-12            0        18928        17131 0.0074148921 
number of iterations: 1882 
   75500    724.53395    36102 2.8391205e-12            0        18953        17149  0.006692216 
number of iterations: 1914 
   75600    725.53607    36162 2.8434367e-12            0        18986        17176 0.0076725325 
number of iterations: 2161 
   75700    726.64542    36219 2.8477029e-12            0        19021        17198 0.0073403843 
number of iterations: 2117 
   75800    727.73663    36273 2.851902e-12            0        19054        17219 0.0075611901 
number of iterations: 1846 
   75900     728.7145    36343 2.8562694e-12            0        19092        17251 0.0077771619 
number of iterations: 1770 
   76000    729.71882    36390 2.8604984e-12            0        19116        17274 0.0069985376 
number of iterations: 1766 
   76100    730.71567    36430 2.8647989e-12            0        19131        17299 0.0065887324 
number of iterations: 1794 
   76200    731.68926    36472 2.8688935e-12            0        19159        17313 0.0070784877 
number of iterations: 2136 
   76300    732.78441    36528 2.8732198e-12            0        19187        17341  0.007344646 
number of iterations: 1510 
   76400    733.64578    36582 2.8775049e-12            0        19218        17364 0.0076283814 
number of iterations: 1900 
   76500    734.66427    36630 2.8818375e-12            0        19240        17390  0.007168063 
number of iterations: 1829 
   76600    735.64404    36682 2.8861155e-12            0        19269        17413 0.0074414445 
number of iterations: 1859 
   76700    736.63111    36725 2.8902175e-12            0        19299        17426 0.0070273337 
number of iterations: 1646 
   76800     737.5375    36767 2.8943945e-12            0        19324        17443 0.0066942527 
number of iterations: 1905 
   76900    738.54059    36804 2.8985964e-12            0        19341        17463 0.0062235485 
number of iterations: 1734 
   77000    739.54526    36862 2.9028992e-12            0        19374        17488 0.0071342139 
number of iterations: 1854 
   77100    740.56399    36917 2.9070691e-12            0        19412        17505 0.0071871729 
number of iterations: 1787 
   77200    741.53257    36968 2.9113366e-12            0        19439        17529 0.0071093341 
number of iterations: 1786 
   77300    742.53519    37023 2.9156478e-12            0        19467        17556 0.0071162313 
number of iterations: 2031 
   77400    743.60136    37066 2.9198346e-12            0        19493        17573  0.006519761 
number of iterations: 1493 
   77500    744.44931    37127 2.9241941e-12            0        19527        17600  0.007371222 
number of iterations: 1622 
   77600    745.35954    37174 2.9284772e-12            0        19550        17624 0.0069596199 
number of iterations: 1628 
   77700    746.26946    37221 2.9326547e-12            0        19582        17639 0.0073317486 
number of iterations: 1713 
   77800    747.20539    37283 2.9370027e-12            0        19616        17667 0.0073588917 
number of iterations: 1859 
   77900     748.1991    37357 2.9416395e-12            0        19651        17706  0.008249533 
number of iterations: 1704 
   78000    749.18898    37429 2.9461663e-12            0        19681        17748 0.0082140998 
number of iterations: 1557 
   78100    750.10272    37477 2.9504942e-12            0        19704        17773 0.0073692294 
number of iterations: 1641 
   78200    751.02655    37531 2.9548057e-12            0        19734        17797 0.0075805725 
number of iterations: 1958 
   78300    752.07382    37595 2.9591839e-12            0        19771        17824 0.0081580923 
number of iterations: 1481 
   78400    752.92486    37651 2.9635135e-12            0        19801        17850 0.0076755886 
number of iterations: 2024 
   78500    753.99063    37695 2.967807e-12            0        19822        17873 0.0068443441 
number of iterations: 1337 
   78600    754.79939    37748 2.9722003e-12            0        19846        17902 0.0074322156 
number of iterations: 1592 
   78700    755.71227    37803 2.9765555e-12            0        19877        17926 0.0076518578 
number of iterations: 1790 
   78800    756.69544    37863 2.9809998e-12            0        19905        17958 0.0078222868 
number of iterations: 2059 
   78900    757.78385    37909 2.9851618e-12            0        19937        17972 0.0072626987 
number of iterations: 1500 
   79000    758.75822    37969 2.9896413e-12            0        19964        18005   0.00779953 
number of iterations: 1908 
   79100    759.82662    38029 2.9939989e-12            0        19998        18031 0.0078916478 
number of iterations: 1638 
   79200    760.80519    38099 2.9985744e-12            0        20030        18069 0.0082171674 
number of iterations: 1787 
   79300    761.84196    38155 3.0029953e-12            0        20055        18100 0.0075608894 
number of iterations: 1856 
   79400    762.84214    38204 3.0072959e-12            0        20082        18122 0.0071678284 
number of iterations: 1623 
   79500     763.7536    38265 3.0117296e-12            0        20111        18154 0.0077847647 
number of iterations: 1664 
   79600    764.68227    38321 3.0160893e-12            0        20142        18179 0.0077178828 
number of iterations: 1634 
   79700    765.61795    38384 3.0204063e-12            0        20183        18201 0.0084186748 
number of iterations: 1428 
   79800     766.4957    38453 3.0250423e-12            0        20212        18241 0.0084955297 
number of iterations: 2080 
   79900    767.59703    38491 3.029093e-12            0        20244        18247 0.0070493667 
number of iterations: 1726 
   80000    768.60878    38542 3.0335441e-12            0        20264        18278 0.0074255007 
Loop time of 768.609 on 4 procs for 80000 steps with 38542 atoms

Performance: 89928711.819 tau/day, 104.084 timesteps/s
99.9% CPU use with 4 MPI tasks x no OpenMP threads

MPI task timing breakdown:
Section |  min time  |  avg time  |  max time  |%varavg| %total
---------------------------------------------------------------
Pair    | 34.821     | 39.975     | 47.237     |  71.6 |  5.20
Neigh   | 8.041      | 8.7879     | 10.082     |  26.1 |  1.14
Comm    | 8.3585     | 8.8629     | 9.0742     |   9.9 |  1.15
Output  | 2.4473     | 2.6273     | 2.7712     |   7.2 |  0.34
Modify  | 692.05     | 693.35     | 695.69     |   5.3 | 90.21
Other   |            | 15.01      |            |       |  1.95

Nlocal:    9635.5 ave 11422 max 9017 min
Histogram: 3 0 0 0 0 0 0 0 0 1
Nghost:    1552.5 ave 1826 max 1256 min
Histogram: 1 0 0 1 0 0 0 1 0 1
Neighs:    54438.8 ave 64409 max 50874 min
Histogram: 3 0 0 0 0 0 0 0 0 1

Total # of neighbors = 217755
Ave neighs/atom = 5.64981
Neighbor list builds = 2163
Dangerous builds = 0


Total wall time: 0:12:48
