 NUFEB Simulation

     9 atoms 
     3 atom types 

  0.0e-4   1.00e-04  xlo xhi 
  0.0e-4   1.00e-04  ylo yhi 
  0.0e-4   1.00e-05  zlo zhi 

 Atoms 

     1 1 1.53e-06  1.3e3 9.81e-06 2.12e-05 8.82e-06 1.53e-06 
     2 1 1.60e-06  1.3e3 6.22e-05 4.52e-05 3.88e-06 1.60e-06 
     3 1 1.41e-06  1.3e3 5.56e-05 5.83e-05 8.64e-06 1.41e-06 
     4 1 1.82e-06  1.3e3 6.32e-05 8.05e-05 6.77e-06 1.82e-06 
     5 1 1.77e-06  1.3e3 7.29e-05 8.11e-07 7.79e-06 1.77e-06 
     6 1 1.60e-06  1.3e3 6.58e-05 4.96e-05 5.50e-06 1.60e-06 
     7 1 1.83e-06  1.3e3 8.64e-05 4.23e-05 9.42e-06 1.83e-06 
     8 2 1.66e-06  1.3e3 3.14e-05 7.52e-05 4.50e-06 1.66e-06 
     9 2 1.40e-06  1.3e3 9.85e-05 7.89e-05 7.58e-06 1.40e-06 
