  Granular Flow Simulation 

       25000  atoms 
          1  atom types 

   0  1.000000e-02  xlo xhi 
   0  2.000000e-02  ylo yhi 
   0  1.000000e-02  zlo zhi 

 Atoms

     1   1 1.000000e-04  1.100000e+03   4.629540e-05   1.943390e-02   7.537530e-03
     2   1 1.000000e-04  1.100000e+03   1.320940e-04   1.939820e-02   4.648070e-03
     3   1 1.000000e-04  1.100000e+03   6.502920e-04   1.941840e-02   4.837900e-03
     4   1 1.000000e-04  1.100000e+03   8.235000e-04   1.937290e-02   6.998920e-03
     5   1 1.000000e-04  1.100000e+03   1.091370e-03   4.875690e-05   9.316760e-03
     6   1 1.000000e-04  1.100000e+03   1.347040e-03   1.940620e-02   1.027630e-03
     7   1 1.000000e-04  1.100000e+03   1.469430e-03   1.953120e-02   2.146490e-03
     8   1 1.000000e-04  1.100000e+03   2.126630e-03   1.940180e-02   6.947830e-03
     9   1 1.000000e-04  1.100000e+03   2.647990e-03   1.938320e-02   9.547970e-03
    10   1 1.000000e-04  1.100000e+03   2.810900e-03   1.937700e-02   3.911630e-03
    11   1 1.000000e-04  1.100000e+03   2.779240e-03   1.950600e-02   9.092240e-03
    12   1 1.000000e-04  1.100000e+03   3.049040e-03   1.941480e-02   8.912090e-03
    13   1 1.000000e-04  1.100000e+03   3.359570e-03   1.937950e-02   2.700270e-03
    14   1 1.000000e-04  1.100000e+03   3.336600e-03   1.936580e-02   4.983240e-03
    15   1 1.000000e-04  1.100000e+03   3.554650e-03   1.942090e-02   2.250460e-03
    16   1 1.000000e-04  1.100000e+03   3.530980e-03   1.958030e-02   8.700170e-03
    17   1 1.000000e-04  1.100000e+03   3.717860e-03   1.937510e-02   7.435810e-03
    18   1 1.000000e-04  1.100000e+03   3.710910e-03   1.937200e-02   7.886220e-03
    19   1 1.000000e-04  1.100000e+03   3.736230e-03   1.939590e-02   1.450210e-05
    20   1 1.000000e-04  1.100000e+03   4.048550e-03   1.936490e-02   4.148510e-03
    21   1 1.000000e-04  1.100000e+03   4.392740e-03   1.938240e-02   4.960100e-03
    22   1 1.000000e-04  1.100000e+03   4.500650e-03   1.936500e-02   1.452040e-03
    23   1 1.000000e-04  1.100000e+03   4.514510e-03   1.942150e-02   4.245820e-03
    24   1 1.000000e-04  1.100000e+03   4.780320e-03   1.962580e-02   5.902700e-03
    25   1 1.000000e-04  1.100000e+03   5.032610e-03   1.936480e-02   1.889390e-03
    26   1 1.000000e-04  1.100000e+03   5.106180e-03   1.938300e-02   3.839180e-03
    27   1 1.000000e-04  1.100000e+03   5.007130e-03   1.997960e-02   8.929460e-03
    28   1 1.000000e-04  1.100000e+03   6.304590e-03   1.937540e-02   8.199340e-03
    29   1 1.000000e-04  1.100000e+03   6.551300e-03   1.956730e-02   2.217500e-03
    30   1 1.000000e-04  1.100000e+03   6.721380e-03   1.946840e-02   7.499850e-03
    31   1 1.000000e-04  1.100000e+03   6.928970e-03   1.941480e-02   4.680610e-03
    32   1 1.000000e-04  1.100000e+03   6.995590e-03   1.955740e-02   5.955700e-03
    33   1 1.000000e-04  1.100000e+03   7.078970e-03   1.938630e-02   5.570590e-03
    34   1 1.000000e-04  1.100000e+03   7.062660e-03   1.936450e-02   8.117870e-03
    35   1 1.000000e-04  1.100000e+03   7.124570e-03   1.978840e-02   8.336550e-03
    36   1 1.000000e-04  1.100000e+03   7.677730e-03   1.974190e-02   2.043130e-03
    37   1 1.000000e-04  1.100000e+03   7.792640e-03   6.625450e-05   9.620760e-03
    38   1 1.000000e-04  1.100000e+03   7.892890e-03   1.940580e-02   7.053810e-03
    39   1 1.000000e-04  1.100000e+03   7.990110e-03   1.963870e-02   8.183100e-04
    40   1 1.000000e-04  1.100000e+03   9.166350e-03   1.987490e-02   3.084870e-03
    41   1 1.000000e-04  1.100000e+03   9.246560e-03   1.947660e-02   5.044240e-03
    42   1 1.000000e-04  1.100000e+03   9.172190e-03   1.939980e-02   9.154470e-03
    43   1 1.000000e-04  1.100000e+03   9.250270e-03   1.956690e-02   5.783850e-03
    44   1 1.000000e-04  1.100000e+03   9.452330e-03   1.940800e-02   2.982060e-03
    45   1 1.000000e-04  1.100000e+03   9.666600e-03   1.954970e-02   1.334440e-03
    46   1 1.000000e-04  1.100000e+03   9.839930e-03   1.965700e-02   9.892570e-03
    47   1 1.000000e-04  1.100000e+03   9.916320e-03   1.949570e-02   9.785520e-03
    48   1 1.000000e-04  1.100000e+03   7.738160e-05   1.946900e-02   7.828890e-03
    49   1 1.000000e-04  1.100000e+03   2.448800e-04   1.947510e-02   1.174530e-03
    50   1 1.000000e-04  1.100000e+03   3.760640e-04   1.947180e-02   9.814020e-03
    51   1 1.000000e-04  1.100000e+03   1.259980e-03   1.996160e-02   1.898180e-03
    52   1 1.000000e-04  1.100000e+03   1.378340e-03   1.959790e-02   6.710370e-03
    53   1 1.000000e-04  1.100000e+03   1.459470e-03   1.944140e-02   3.853840e-03
    54   1 1.000000e-04  1.100000e+03   2.222440e-03   1.945680e-02   7.938020e-03
    55   1 1.000000e-04  1.100000e+03   2.270240e-03   1.944010e-02   1.905890e-03
    56   1 1.000000e-04  1.100000e+03   2.577890e-03   1.944030e-02   6.021160e-03
    57   1 1.000000e-04  1.100000e+03   3.066170e-03   1.945480e-02   4.008040e-03
    58   1 1.000000e-04  1.100000e+03   3.212610e-03   1.948460e-02   1.049160e-03
    59   1 1.000000e-04  1.100000e+03   3.184360e-03   1.954890e-02   8.179970e-03
    60   1 1.000000e-04  1.100000e+03   3.374490e-03   1.946330e-02   5.398570e-04
    61   1 1.000000e-04  1.100000e+03   3.641360e-03   1.945890e-02   5.117130e-03
    62   1 1.000000e-04  1.100000e+03   3.973460e-03   1.946770e-02   8.858480e-03
    63   1 1.000000e-04  1.100000e+03   4.208170e-03   1.946700e-02   1.635880e-03
    64   1 1.000000e-04  1.100000e+03   4.729160e-03   1.944560e-02   8.223050e-03
    65   1 1.000000e-04  1.100000e+03   4.858170e-03   1.947630e-02   4.392510e-03
    66   1 1.000000e-04  1.100000e+03   4.981510e-03   1.945160e-02   8.190340e-03
    67   1 1.000000e-04  1.100000e+03   5.289000e-03   1.948010e-02   3.373910e-03
    68   1 1.000000e-04  1.100000e+03   6.308980e-03   1.948330e-02   3.393010e-03
    69   1 1.000000e-04  1.100000e+03   6.474790e-03   1.319580e-04   3.814890e-04
    70   1 1.000000e-04  1.100000e+03   6.439210e-03   1.946740e-02   8.741980e-03
    71   1 1.000000e-04  1.100000e+03   6.548920e-03   1.947520e-02   4.469360e-03
    72   1 1.000000e-04  1.100000e+03   6.529200e-03   1.946580e-02   7.981310e-03
    73   1 1.000000e-04  1.100000e+03   6.644420e-03   1.946320e-02   5.914000e-03
    74   1 1.000000e-04  1.100000e+03   6.843680e-03   1.951120e-02   9.937590e-03
    75   1 1.000000e-04  1.100000e+03   6.995990e-03   1.945650e-02   9.273930e-03
    76   1 1.000000e-04  1.100000e+03   7.000210e-03   1.947100e-02   9.411970e-03
    77   1 1.000000e-04  1.100000e+03   7.090140e-03   1.948390e-02   6.531030e-03
    78   1 1.000000e-04  1.100000e+03   7.079510e-03   1.944690e-02   9.682700e-03
    79   1 1.000000e-04  1.100000e+03   7.541330e-03   1.948490e-02   4.626660e-04
    80   1 1.000000e-04  1.100000e+03   7.726170e-03   1.976450e-02   6.339940e-03
    81   1 1.000000e-04  1.100000e+03   8.065600e-03   1.966260e-02   3.787800e-03
    82   1 1.000000e-04  1.100000e+03   8.331960e-03   1.945330e-02   1.220230e-03
    83   1 1.000000e-04  1.100000e+03   8.688280e-03   1.945610e-02   4.232090e-03
    84   1 1.000000e-04  1.100000e+03   9.528600e-03   1.948300e-02   2.123830e-04
    85   1 1.000000e-04  1.100000e+03   9.611100e-03   1.947270e-02   2.422780e-03
    86   1 1.000000e-04  1.100000e+03   9.658790e-03   1.943400e-02   9.875630e-03
    87   1 1.000000e-04  1.100000e+03   3.950020e-04   1.963760e-02   7.317530e-03
    88   1 1.000000e-04  1.100000e+03   6.093530e-04   1.953120e-02   2.133670e-03
    89   1 1.000000e-04  1.100000e+03   7.803010e-04   1.948860e-02   6.893010e-03
    90   1 1.000000e-04  1.100000e+03   8.635490e-04   1.953210e-02   8.322180e-03
    91   1 1.000000e-04  1.100000e+03   1.050280e-03   1.952380e-02   4.087650e-03
    92   1 1.000000e-04  1.100000e+03   1.751220e-03   1.954450e-02   8.003750e-03
    93   1 1.000000e-04  1.100000e+03   1.857240e-03   1.952950e-02   7.025750e-03
    94   1 1.000000e-04  1.100000e+03   2.341160e-03   1.953560e-02   5.815570e-03
    95   1 1.000000e-04  1.100000e+03   2.537440e-03   1.950680e-02   8.365120e-03
    96   1 1.000000e-04  1.100000e+03   3.027670e-03   1.954370e-02   1.984290e-03
    97   1 1.000000e-04  1.100000e+03   3.753590e-03   1.962150e-02   4.983170e-03
    98   1 1.000000e-04  1.100000e+03   4.270340e-03   1.954430e-02   1.098610e-03
    99   1 1.000000e-04  1.100000e+03   4.459270e-03   1.951020e-02   2.918100e-03
   100   1 1.000000e-04  1.100000e+03   4.596110e-03   1.951310e-02   8.148150e-04
   101   1 1.000000e-04  1.100000e+03   4.708590e-03   1.954250e-02   1.639480e-03
   102   1 1.000000e-04  1.100000e+03   4.854850e-03   1.949840e-02   7.468610e-03
   103   1 1.000000e-04  1.100000e+03   5.085670e-03   1.958160e-02   3.292710e-03
   104   1 1.000000e-04  1.100000e+03   5.206030e-03   1.964520e-02   7.284680e-03
   105   1 1.000000e-04  1.100000e+03   5.216920e-03   1.952150e-02   2.668840e-03
   106   1 1.000000e-04  1.100000e+03   5.777570e-03   1.956480e-02   4.673010e-03
   107   1 1.000000e-04  1.100000e+03   5.785160e-03   1.954180e-02   8.071980e-03
   108   1 1.000000e-04  1.100000e+03   6.148960e-03   1.951400e-02   6.798130e-03
   109   1 1.000000e-04  1.100000e+03   6.794520e-03   1.954180e-02   1.760980e-03
   110   1 1.000000e-04  1.100000e+03   6.847760e-03   1.948830e-02   7.877480e-03
   111   1 1.000000e-04  1.100000e+03   7.658230e-03   1.957120e-02   2.794370e-04
   112   1 1.000000e-04  1.100000e+03   7.991230e-03   1.952200e-02   3.895280e-03
   113   1 1.000000e-04  1.100000e+03   8.810890e-03   1.954100e-02   4.233280e-03
   114   1 1.000000e-04  1.100000e+03   9.394550e-03   1.949160e-02   3.074870e-03
   115   1 1.000000e-04  1.100000e+03   9.393550e-03   1.975790e-02   4.303720e-03
   116   1 1.000000e-04  1.100000e+03   9.428250e-03   1.953270e-02   9.952330e-03
   117   1 1.000000e-04  1.100000e+03   1.399460e-04   1.960310e-02   4.900080e-03
   118   1 1.000000e-04  1.100000e+03   3.422110e-04   1.972800e-02   6.983480e-03
   119   1 1.000000e-04  1.100000e+03   6.179570e-04   1.956650e-02   2.585270e-03
   120   1 1.000000e-04  1.100000e+03   7.035270e-04   1.958900e-02   5.918450e-03
   121   1 1.000000e-04  1.100000e+03   8.139100e-04   1.956780e-02   4.807570e-03
   122   1 1.000000e-04  1.100000e+03   8.212480e-04   1.959730e-02   6.550300e-03
   123   1 1.000000e-04  1.100000e+03   8.962150e-04   1.956110e-02   1.180510e-03
   124   1 1.000000e-04  1.100000e+03   1.057180e-03   1.959990e-02   6.675260e-03
   125   1 1.000000e-04  1.100000e+03   1.215720e-03   1.956270e-02   6.387290e-03
   126   1 1.000000e-04  1.100000e+03   1.608970e-03   1.586720e-04   9.810410e-03
   127   1 1.000000e-04  1.100000e+03   1.483670e-03   1.963520e-02   6.662690e-03
   128   1 1.000000e-04  1.100000e+03   1.670760e-03   1.956220e-02   5.614430e-03
   129   1 1.000000e-04  1.100000e+03   1.721460e-03   1.957460e-02   9.687730e-03
   130   1 1.000000e-04  1.100000e+03   1.970340e-03   1.962290e-02   7.049920e-03
   131   1 1.000000e-04  1.100000e+03   2.153960e-03   1.964440e-02   5.865460e-03
   132   1 1.000000e-04  1.100000e+03   2.269900e-03   1.959560e-02   4.146030e-03
   133   1 1.000000e-04  1.100000e+03   3.293550e-03   1.957030e-02   7.596440e-03
   134   1 1.000000e-04  1.100000e+03   4.192060e-03   1.956900e-02   9.026250e-03
   135   1 1.000000e-04  1.100000e+03   4.223480e-03   1.956280e-02   4.994000e-03
   136   1 1.000000e-04  1.100000e+03   4.762700e-03   1.958560e-02   6.495940e-03
   137   1 1.000000e-04  1.100000e+03   4.751120e-03   1.966420e-02   7.787690e-03
   138   1 1.000000e-04  1.100000e+03   4.922950e-03   1.959730e-02   2.126190e-03
   139   1 1.000000e-04  1.100000e+03   4.913760e-03   1.959200e-02   8.005890e-03
   140   1 1.000000e-04  1.100000e+03   5.044880e-03   1.959830e-02   9.894390e-03
   141   1 1.000000e-04  1.100000e+03   5.228160e-03   1.960490e-02   3.727920e-03
   142   1 1.000000e-04  1.100000e+03   5.683990e-03   1.963740e-02   8.592780e-04
   143   1 1.000000e-04  1.100000e+03   5.793740e-03   1.955350e-02   2.343420e-03
   144   1 1.000000e-04  1.100000e+03   5.891610e-03   1.959460e-02   8.223110e-03
   145   1 1.000000e-04  1.100000e+03   6.405200e-03   1.955940e-02   9.407180e-03
   146   1 1.000000e-04  1.100000e+03   6.501190e-03   1.960120e-02   6.729130e-03
   147   1 1.000000e-04  1.100000e+03   6.512030e-03   1.959080e-02   4.558610e-03
   148   1 1.000000e-04  1.100000e+03   6.602450e-03   1.956570e-02   5.505840e-03
   149   1 1.000000e-04  1.100000e+03   6.864380e-03   1.956980e-02   1.268330e-03
   150   1 1.000000e-04  1.100000e+03   6.919400e-03   1.958520e-02   1.476580e-03
   151   1 1.000000e-04  1.100000e+03   7.156160e-03   1.956770e-02   2.949790e-03
   152   1 1.000000e-04  1.100000e+03   7.392890e-03   1.955090e-02   9.255510e-03
   153   1 1.000000e-04  1.100000e+03   7.619750e-03   1.958580e-02   2.387550e-03
   154   1 1.000000e-04  1.100000e+03   8.491890e-03   2.530780e-04   6.500820e-03
   155   1 1.000000e-04  1.100000e+03   8.909470e-03   1.960290e-02   3.646030e-03
   156   1 1.000000e-04  1.100000e+03   8.876630e-03   1.958680e-02   4.455810e-03
   157   1 1.000000e-04  1.100000e+03   8.907900e-03   1.954990e-02   9.235370e-03
   158   1 1.000000e-04  1.100000e+03   8.971250e-03   1.956690e-02   6.035520e-03
   159   1 1.000000e-04  1.100000e+03   9.919920e-03   1.956360e-02   8.181110e-03
   160   1 1.000000e-04  1.100000e+03   9.807120e-03   2.965060e-04   3.934530e-03
   161   1 1.000000e-04  1.100000e+03   2.208330e-04   1.963040e-02   7.515340e-03
   162   1 1.000000e-04  1.100000e+03   3.041450e-04   1.964680e-02   2.465370e-03
   163   1 1.000000e-04  1.100000e+03   5.494650e-04   1.961440e-02   5.494770e-03
   164   1 1.000000e-04  1.100000e+03   6.896170e-04   1.963390e-02   8.002660e-03
   165   1 1.000000e-04  1.100000e+03   7.735980e-04   1.971040e-02   9.931380e-03
   166   1 1.000000e-04  1.100000e+03   1.072450e-03   1.971400e-02   7.469430e-03
   167   1 1.000000e-04  1.100000e+03   1.580700e-03   1.964300e-02   5.042040e-03
   168   1 1.000000e-04  1.100000e+03   1.794720e-03   1.966550e-02   1.334070e-03
   169   1 1.000000e-04  1.100000e+03   1.767040e-03   1.962250e-02   5.288970e-03
   170   1 1.000000e-04  1.100000e+03   1.749510e-03   1.963480e-02   8.420410e-03
   171   1 1.000000e-04  1.100000e+03   2.343400e-03   1.966300e-02   2.953670e-03
   172   1 1.000000e-04  1.100000e+03   2.694950e-03   1.966300e-02   3.568010e-03
   173   1 1.000000e-04  1.100000e+03   2.713480e-03   1.966480e-02   5.668550e-05
   174   1 1.000000e-04  1.100000e+03   2.760130e-03   1.962130e-02   6.974640e-03
   175   1 1.000000e-04  1.100000e+03   4.304320e-03   1.971570e-02   8.923520e-03
   176   1 1.000000e-04  1.100000e+03   4.489020e-03   1.961640e-02   4.394860e-03
   177   1 1.000000e-04  1.100000e+03   5.002970e-03   1.965630e-02   9.797410e-03
   178   1 1.000000e-04  1.100000e+03   5.123550e-03   1.963870e-02   1.847150e-03
   179   1 1.000000e-04  1.100000e+03   5.692050e-03   1.963040e-02   7.242560e-03
   180   1 1.000000e-04  1.100000e+03   5.949120e-03   1.962450e-02   4.513400e-03
   181   1 1.000000e-04  1.100000e+03   6.408200e-03   1.967440e-02   3.206780e-03
   182   1 1.000000e-04  1.100000e+03   6.788270e-03   1.965100e-02   7.793590e-03
   183   1 1.000000e-04  1.100000e+03   6.886100e-03   1.965920e-02   7.987560e-03
   184   1 1.000000e-04  1.100000e+03   7.044760e-03   1.964850e-02   6.551260e-03
   185   1 1.000000e-04  1.100000e+03   7.067280e-03   1.966060e-02   7.920330e-03
   186   1 1.000000e-04  1.100000e+03   7.209170e-03   1.964370e-02   6.287390e-04
   187   1 1.000000e-04  1.100000e+03   7.529310e-03   1.966250e-02   1.864550e-03
   188   1 1.000000e-04  1.100000e+03   7.629310e-03   1.962140e-02   1.932390e-03
   189   1 1.000000e-04  1.100000e+03   7.924040e-03   1.962790e-02   5.043010e-03
   190   1 1.000000e-04  1.100000e+03   8.007840e-03   1.965090e-02   9.212920e-04
   191   1 1.000000e-04  1.100000e+03   8.224750e-03   1.967020e-02   7.044180e-03
   192   1 1.000000e-04  1.100000e+03   8.279500e-03   1.967450e-02   4.497960e-03
   193   1 1.000000e-04  1.100000e+03   8.436040e-03   1.963230e-02   6.665070e-03
   194   1 1.000000e-04  1.100000e+03   8.787000e-03   3.250710e-04   9.359310e-03
   195   1 1.000000e-04  1.100000e+03   8.683010e-03   1.963430e-02   4.332050e-03
   196   1 1.000000e-04  1.100000e+03   8.693270e-03   1.963460e-02   4.649180e-03
   197   1 1.000000e-04  1.100000e+03   9.084210e-03   1.961630e-02   2.219260e-03
   198   1 1.000000e-04  1.100000e+03   9.369230e-03   4.396680e-05   9.625210e-03
   199   1 1.000000e-04  1.100000e+03   9.108670e-03   1.977090e-02   6.203110e-03
   200   1 1.000000e-04  1.100000e+03   9.383250e-03   1.970170e-02   6.434540e-03
   201   1 1.000000e-04  1.100000e+03   9.567000e-03   1.978950e-02   4.552830e-03
   202   1 1.000000e-04  1.100000e+03   9.496760e-03   1.961230e-02   5.631550e-03
   203   1 1.000000e-04  1.100000e+03   9.736830e-03   1.962570e-02   8.390540e-03
   204   1 1.000000e-04  1.100000e+03   1.386720e-04   1.969200e-02   3.343260e-03
   205   1 1.000000e-04  1.100000e+03   5.170540e-04   1.971050e-02   8.545280e-03
   206   1 1.000000e-04  1.100000e+03   5.070320e-04   1.970590e-02   9.233090e-03
   207   1 1.000000e-04  1.100000e+03   8.679990e-04   1.969140e-02   1.554100e-03
   208   1 1.000000e-04  1.100000e+03   8.471890e-04   1.972960e-02   6.756760e-03
   209   1 1.000000e-04  1.100000e+03   9.516010e-04   1.969940e-02   2.800080e-03
   210   1 1.000000e-04  1.100000e+03   1.018840e-03   1.972720e-02   8.892780e-03
   211   1 1.000000e-04  1.100000e+03   1.055020e-03   1.967770e-02   1.505950e-04
   212   1 1.000000e-04  1.100000e+03   1.345460e-03   1.977880e-02   8.349320e-03
   213   1 1.000000e-04  1.100000e+03   1.761030e-03   1.969370e-02   1.808280e-03
   214   1 1.000000e-04  1.100000e+03   1.860430e-03   1.970190e-02   2.051040e-03
   215   1 1.000000e-04  1.100000e+03   2.324230e-03   1.973470e-02   5.507370e-03
   216   1 1.000000e-04  1.100000e+03   2.387070e-03   1.971220e-02   4.829680e-03
   217   1 1.000000e-04  1.100000e+03   2.605440e-03   1.974430e-02   3.644140e-03
   218   1 1.000000e-04  1.100000e+03   2.990770e-03   1.976680e-02   1.056720e-03
   219   1 1.000000e-04  1.100000e+03   2.984100e-03   1.969770e-02   9.436720e-03
   220   1 1.000000e-04  1.100000e+03   3.177410e-03   1.973100e-02   1.322220e-03
   221   1 1.000000e-04  1.100000e+03   3.523050e-03   1.976390e-02   3.130120e-03
   222   1 1.000000e-04  1.100000e+03   3.699560e-03   1.967120e-02   1.363340e-03
   223   1 1.000000e-04  1.100000e+03   4.163120e-03   1.970740e-02   7.070960e-04
   224   1 1.000000e-04  1.100000e+03   4.172710e-03   1.970550e-02   6.502300e-03
   225   1 1.000000e-04  1.100000e+03   4.939310e-03   1.971210e-02   2.693810e-03
   226   1 1.000000e-04  1.100000e+03   5.008120e-03   1.969220e-02   1.642470e-03
   227   1 1.000000e-04  1.100000e+03   5.054900e-03   1.968940e-02   4.086690e-03
   228   1 1.000000e-04  1.100000e+03   5.203900e-03   1.970130e-02   3.638490e-04
   229   1 1.000000e-04  1.100000e+03   6.182270e-03   1.967530e-02   3.914810e-03
   230   1 1.000000e-04  1.100000e+03   6.356980e-03   1.971800e-02   6.697420e-04
   231   1 1.000000e-04  1.100000e+03   6.514380e-03   1.972080e-02   4.368210e-03
   232   1 1.000000e-04  1.100000e+03   6.892210e-03   1.970920e-02   9.549410e-03
   233   1 1.000000e-04  1.100000e+03   7.659440e-03   1.969160e-02   1.734850e-03
   234   1 1.000000e-04  1.100000e+03   7.972480e-03   1.967660e-02   2.232880e-03
   235   1 1.000000e-04  1.100000e+03   7.990770e-03   1.972620e-02   4.725610e-03
   236   1 1.000000e-04  1.100000e+03   8.742480e-03   1.969330e-02   6.201510e-03
   237   1 1.000000e-04  1.100000e+03   9.449670e-03   1.973460e-02   7.115910e-03
   238   1 1.000000e-04  1.100000e+03   4.205810e-05   1.978160e-02   8.739810e-03
   239   1 1.000000e-04  1.100000e+03   1.751220e-04   1.974310e-02   9.497240e-03
   240   1 1.000000e-04  1.100000e+03   1.028750e-03   1.973350e-02   4.135790e-04
   241   1 1.000000e-04  1.100000e+03   1.123870e-03   1.977680e-02   9.665090e-03
   242   1 1.000000e-04  1.100000e+03   1.497430e-03   1.988600e-02   3.171790e-03
   243   1 1.000000e-04  1.100000e+03   1.759810e-03   1.975430e-02   9.303370e-03
   244   1 1.000000e-04  1.100000e+03   3.250210e-03   4.699590e-04   6.241990e-05
   245   1 1.000000e-04  1.100000e+03   2.789320e-03   1.978060e-02   9.628600e-04
   246   1 1.000000e-04  1.100000e+03   2.957030e-03   1.973960e-02   5.289640e-03
   247   1 1.000000e-04  1.100000e+03   3.189320e-03   1.975560e-02   4.761820e-04
   248   1 1.000000e-04  1.100000e+03   3.189200e-03   1.978440e-02   1.239040e-03
   249   1 1.000000e-04  1.100000e+03   3.175190e-03   1.973940e-02   3.697460e-03
   250   1 1.000000e-04  1.100000e+03   3.981250e-03   1.979280e-02   3.452980e-03
   251   1 1.000000e-04  1.100000e+03   4.010710e-03   1.974320e-02   8.183730e-03
   252   1 1.000000e-04  1.100000e+03   4.295710e-03   1.978290e-02   8.178400e-03
   253   1 1.000000e-04  1.100000e+03   4.438230e-03   1.974960e-02   6.397600e-03
   254   1 1.000000e-04  1.100000e+03   4.501210e-03   1.976870e-02   4.353810e-03
   255   1 1.000000e-04  1.100000e+03   4.689110e-03   1.978790e-02   5.266030e-03
   256   1 1.000000e-04  1.100000e+03   4.794940e-03   1.978380e-02   8.771630e-03
   257   1 1.000000e-04  1.100000e+03   5.054090e-03   1.977130e-02   6.605880e-03
   258   1 1.000000e-04  1.100000e+03   5.861590e-03   1.978630e-02   5.732480e-03
   259   1 1.000000e-04  1.100000e+03   6.236060e-03   1.975620e-02   8.787190e-03
   260   1 1.000000e-04  1.100000e+03   6.385550e-03   1.978300e-02   3.254380e-03
   261   1 1.000000e-04  1.100000e+03   6.501500e-03   1.974890e-02   3.985630e-03
   262   1 1.000000e-04  1.100000e+03   6.569620e-03   1.977030e-02   3.268670e-03
   263   1 1.000000e-04  1.100000e+03   6.907840e-03   1.976680e-02   3.717910e-03
   264   1 1.000000e-04  1.100000e+03   7.044240e-03   1.974910e-02   1.423040e-03
   265   1 1.000000e-04  1.100000e+03   7.061380e-03   1.974890e-02   3.785750e-03
   266   1 1.000000e-04  1.100000e+03   7.219190e-03   1.978740e-02   9.182910e-03
   267   1 1.000000e-04  1.100000e+03   7.314370e-03   1.978780e-02   7.096700e-03
   268   1 1.000000e-04  1.100000e+03   7.830530e-03   1.977620e-02   6.900570e-03
   269   1 1.000000e-04  1.100000e+03   8.271030e-03   1.987340e-02   6.961370e-03
   270   1 1.000000e-04  1.100000e+03   8.393690e-03   1.976920e-02   5.131690e-03
   271   1 1.000000e-04  1.100000e+03   8.410980e-03   1.976620e-02   8.164360e-03
   272   1 1.000000e-04  1.100000e+03   8.352200e-03   2.109030e-04   9.252150e-03
   273   1 1.000000e-04  1.100000e+03   8.441820e-03   1.976530e-02   7.110690e-03
   274   1 1.000000e-04  1.100000e+03   8.728840e-03   1.974490e-02   1.974700e-03
   275   1 1.000000e-04  1.100000e+03   8.763170e-03   1.973390e-02   7.529530e-03
   276   1 1.000000e-04  1.100000e+03   8.990210e-03   1.980540e-02   3.782970e-03
   277   1 1.000000e-04  1.100000e+03   9.162930e-03   1.973730e-02   7.050580e-03
   278   1 1.000000e-04  1.100000e+03   9.199250e-03   1.974230e-02   8.654760e-03
   279   1 1.000000e-04  1.100000e+03   9.515200e-03   1.977060e-02   7.787200e-03
   280   1 1.000000e-04  1.100000e+03   9.595460e-03   1.977240e-02   2.101480e-03
   281   1 1.000000e-04  1.100000e+03   2.941380e-06   1.985080e-02   9.402040e-03
   282   1 1.000000e-04  1.100000e+03   1.629910e-04   1.984380e-02   2.177080e-03
   283   1 1.000000e-04  1.100000e+03   6.878180e-04   1.983910e-02   5.835000e-05
   284   1 1.000000e-04  1.100000e+03   1.060140e-03   1.979550e-02   4.539240e-03
   285   1 1.000000e-04  1.100000e+03   1.230650e-03   1.981370e-02   6.818070e-03
   286   1 1.000000e-04  1.100000e+03   1.401990e-03   1.979780e-02   3.770540e-03
   287   1 1.000000e-04  1.100000e+03   1.479250e-03   1.984930e-02   3.019070e-03
   288   1 1.000000e-04  1.100000e+03   1.742990e-03   1.984910e-02   9.835290e-03
   289   1 1.000000e-04  1.100000e+03   1.850200e-03   1.981130e-02   2.794180e-03
   290   1 1.000000e-04  1.100000e+03   2.334440e-03   1.984510e-02   3.442160e-03
   291   1 1.000000e-04  1.100000e+03   2.872780e-03   1.981030e-02   3.891410e-03
   292   1 1.000000e-04  1.100000e+03   3.008800e-03   1.981390e-02   6.596240e-03
   293   1 1.000000e-04  1.100000e+03   3.201250e-03   1.980220e-02   8.369920e-03
   294   1 1.000000e-04  1.100000e+03   3.325320e-03   1.983600e-02   8.555560e-03
   295   1 1.000000e-04  1.100000e+03   3.930120e-03   1.982890e-02   5.073120e-03
   296   1 1.000000e-04  1.100000e+03   3.934560e-03   1.982480e-02   9.541500e-03
   297   1 1.000000e-04  1.100000e+03   4.512070e-03   1.982030e-02   6.050720e-03
   298   1 1.000000e-04  1.100000e+03   4.541060e-03   1.982480e-02   1.115880e-03
   299   1 1.000000e-04  1.100000e+03   4.856910e-03   1.983060e-02   1.878670e-03
   300   1 1.000000e-04  1.100000e+03   4.898230e-03   1.983610e-02   8.825190e-03
   301   1 1.000000e-04  1.100000e+03   5.412950e-03   1.984540e-02   5.193990e-03
   302   1 1.000000e-04  1.100000e+03   5.987940e-03   1.982660e-02   2.825370e-03
   303   1 1.000000e-04  1.100000e+03   6.086410e-03   1.985180e-02   9.048380e-03
   304   1 1.000000e-04  1.100000e+03   6.288950e-03   1.984820e-02   7.638260e-03
   305   1 1.000000e-04  1.100000e+03   6.456010e-03   1.981440e-02   6.948680e-03
   306   1 1.000000e-04  1.100000e+03   6.575390e-03   1.981940e-02   1.388540e-03
   307   1 1.000000e-04  1.100000e+03   7.172870e-03   1.983430e-02   3.110440e-03
   308   1 1.000000e-04  1.100000e+03   7.347590e-03   1.980000e-02   4.490830e-03
   309   1 1.000000e-04  1.100000e+03   7.563680e-03   1.980400e-02   8.503450e-03
   310   1 1.000000e-04  1.100000e+03   7.926440e-03   1.981910e-02   3.887540e-03
   311   1 1.000000e-04  1.100000e+03   7.917360e-03   1.981170e-02   5.269700e-03
   312   1 1.000000e-04  1.100000e+03   8.095520e-03   1.982520e-02   7.281970e-03
   313   1 1.000000e-04  1.100000e+03   8.326300e-03   1.984460e-02   9.923740e-03
   314   1 1.000000e-04  1.100000e+03   8.634230e-03   1.979320e-02   3.744190e-03
   315   1 1.000000e-04  1.100000e+03   8.671380e-03   1.981710e-02   6.238390e-03
   316   1 1.000000e-04  1.100000e+03   8.747920e-03   1.980040e-02   4.761040e-03
   317   1 1.000000e-04  1.100000e+03   9.006860e-03   1.996170e-02   3.173040e-03
   318   1 1.000000e-04  1.100000e+03   9.210100e-03   1.979940e-02   9.375210e-03
   319   1 1.000000e-04  1.100000e+03   9.417870e-03   1.979170e-02   2.457870e-03
   320   1 1.000000e-04  1.100000e+03   9.633700e-03   1.982920e-02   3.647270e-03
   321   1 1.000000e-04  1.100000e+03   3.087260e-05   1.987940e-02   2.114000e-03
   322   1 1.000000e-04  1.100000e+03   5.604340e-05   1.988170e-02   2.559650e-03
   323   1 1.000000e-04  1.100000e+03   9.561230e-05   1.988080e-02   9.281850e-03
   324   1 1.000000e-04  1.100000e+03   1.865200e-04   1.990920e-02   6.106400e-03
   325   1 1.000000e-04  1.100000e+03   1.606980e-03   1.987890e-02   7.648690e-03
   326   1 1.000000e-04  1.100000e+03   1.752710e-03   1.985440e-02   6.385290e-04
   327   1 1.000000e-04  1.100000e+03   2.263480e-03   1.990400e-02   2.815650e-04
   328   1 1.000000e-04  1.100000e+03   3.386570e-03   1.988630e-02   9.142230e-03
   329   1 1.000000e-04  1.100000e+03   5.197540e-03   1.991240e-02   2.448690e-03
   330   1 1.000000e-04  1.100000e+03   5.598150e-03   1.985270e-02   8.461690e-03
   331   1 1.000000e-04  1.100000e+03   5.840880e-03   1.987530e-02   4.140880e-03
   332   1 1.000000e-04  1.100000e+03   6.065030e-03   1.990510e-02   2.416620e-03
   333   1 1.000000e-04  1.100000e+03   6.054380e-03   1.989270e-02   6.580950e-03
   334   1 1.000000e-04  1.100000e+03   6.096270e-03   1.987840e-02   1.534250e-03
   335   1 1.000000e-04  1.100000e+03   6.389640e-03   1.985220e-02   2.251820e-03
   336   1 1.000000e-04  1.100000e+03   6.667210e-03   1.990710e-02   5.025090e-03
   337   1 1.000000e-04  1.100000e+03   7.497030e-03   1.987090e-02   8.646840e-03
   338   1 1.000000e-04  1.100000e+03   7.724920e-03   1.987100e-02   6.888630e-04
   339   1 1.000000e-04  1.100000e+03   9.823300e-03   1.988350e-02   4.868790e-03
   340   1 1.000000e-04  1.100000e+03   2.287930e-04   1.992620e-02   4.218620e-04
   341   1 1.000000e-04  1.100000e+03   1.843250e-04   1.996800e-02   5.706070e-04
   342   1 1.000000e-04  1.100000e+03   6.488660e-04   1.995290e-02   8.583370e-03
   343   1 1.000000e-04  1.100000e+03   9.964790e-04   1.991780e-02   8.472120e-03
   344   1 1.000000e-04  1.100000e+03   1.132540e-03   1.993490e-02   3.019050e-03
   345   1 1.000000e-04  1.100000e+03   1.203480e-03   1.997190e-02   5.397820e-03
   346   1 1.000000e-04  1.100000e+03   1.282480e-03   1.994390e-02   9.990560e-03
   347   1 1.000000e-04  1.100000e+03   1.783740e-03   1.994630e-02   6.980530e-03
   348   1 1.000000e-04  1.100000e+03   1.858170e-03   1.996280e-02   9.289690e-03
   349   1 1.000000e-04  1.100000e+03   1.895190e-03   1.996040e-02   2.932220e-03
   350   1 1.000000e-04  1.100000e+03   2.400880e-03   1.994450e-02   7.715980e-03
   351   1 1.000000e-04  1.100000e+03   2.625140e-03   1.993890e-02   9.759400e-04
   352   1 1.000000e-04  1.100000e+03   2.768310e-03   1.993700e-02   1.898780e-03
   353   1 1.000000e-04  1.100000e+03   2.774320e-03   1.993790e-02   3.584980e-03
   354   1 1.000000e-04  1.100000e+03   2.943790e-03   1.993690e-02   8.654310e-03
   355   1 1.000000e-04  1.100000e+03   3.305110e-03   1.993980e-02   5.154000e-03
   356   1 1.000000e-04  1.100000e+03   3.384170e-03   1.995360e-02   4.938020e-03
   357   1 1.000000e-04  1.100000e+03   3.568660e-03   1.992400e-02   2.289140e-03
   358   1 1.000000e-04  1.100000e+03   3.742170e-03   1.993090e-02   7.320980e-03
   359   1 1.000000e-04  1.100000e+03   3.875790e-03   1.996350e-02   8.134340e-03