LAMMPS (5 Nov 2016)
# NUFEB simulation

atom_style	bio
atom_modify	map array sort 1000 5.0e-7
boundary	ff ff ff
newton		off
#processors  2 1 1

comm_modify	vel yes
read_data_bio atom.in
  orthogonal box = (0 0 0) to (0.0001 0.0001 0.0001)
  1 by 1 by 1 MPI processor grid
  reading atoms ...
  3 atoms
  10 nutrients

group AOB type 1
1 atoms in group AOB
group NOB type 2
1 atoms in group NOB
group COMM type 3
1 atoms in group COMM

neighbor	5.0e-7 bin
neigh_modify	delay 0 one 5000

#pair_style none
pair_style  gran/hooke/history 0.000200 NULL 0.000050 NULL 0.0 1

pair_coeff  * *
timestep 36

fix 1 all nve/limit 1e-8

#fix	 2 all gravity 1.47 vector 0 0 -1 # spherical 90.0 -180.0
#fix     3 all fdrag
fix 10 all viscous 0.1


fix xw all wall/gran hooke/history 2000 NULL 500.0 NULL 1.5 0 xplane  0.0   1.0e-04
fix yw all wall/gran hooke/history 2000 NULL 500.0 NULL 1.5 0 yplane  0.0   1.0e-04
fix zw all wall/gran hooke/history 2000 NULL 500.0 NULL 1.5 0 zplane  0.0   1.0e-04

variable kanc equal 50

fix xwa all walladh v_kanc xplane  0.0   1.0e-04
fix ywa all walladh v_kanc yplane  0.0   1.0e-04
fix zwa all walladh v_kanc zplane  0.0   1.0e-04

##############Ibm Variable Definitions##############

#Defining EPS density and ratio variables
variable EPSdens equal 30
variable EPSratio equal 1.25

variable ke equal 5e+10

#Defining kinetics variables
variable temp equal 298.15
variable gasTran equal 0.08205746
variable gvol equal 8e-14
variable rth equal 0.0083144
variable pressure equal 1
variable ph equal 7.0

#Defining diffusion variables
variable diffT equal 1e-7
variable tol equal 1e-9

##############Ibm functions##############

fix k1 all kinetics 25 25 25 v_temp v_rth v_gvol v_gasTran v_ph
fix g1 all diffusion exp v_diffT v_tol pp pp nd
#fix ki3 all kinetics/ph 1
fix ki2 all kinetics/thermo 1 fix open v_pressure
fix ki1 all kinetics/monod 1 v_EPSdens
fix d1 all divide 1 v_EPSdens 1 31231

#fix j1 all epsadh 1 v_ke 1
#fix e1 HET eps_extract 16 v_EPSratio v_EPSdens 1242242

##############Ibm compute##############

compute myMass all biomass
compute myNtypes all ntypes

##############Simulation outputs##############

#dump		id all custom 250 snapshot.bubblemd id type diameter x y z
dump            d0 all bio 500 biomass
thermo_style    custom step cpu atoms biomass c_myNtypes[*] c_myMass[2]
thermo		5
thermo_modify	lost ignore

run  5000
Neighbor list info ...
  2 neighbor list requests
  update every 1 steps, delay 0 steps, check yes
  max neighbors/atom: 5000, page size: 100000
  master list distance cutoff = 1.466e-06
  ghost atom cutoff = 1.466e-06
  binsize = 7.33e-07 -> bins = 137 137 137
Memory usage per processor = 18.9946 Mbytes
Step CPU Atoms biomass c_myNtypes[1] c_myNtypes[2] c_myNtypes[3] c_myMass[2] 
       0            0        3 4.1062866e-16            1            1            1 1.3687622e-16 
       5   0.12295294        3 4.1151574e-16            1            1            1 1.3680774e-16 
      10   0.23609281        3 4.1240619e-16            1            1            1 1.3673929e-16 
      15   0.35855699        3 4.1330002e-16            1            1            1 1.3667088e-16 
      20   0.47973299        3 4.1419725e-16            1            1            1 1.3660251e-16 
      25   0.60238194        3 4.1509788e-16            1            1            1 1.3653417e-16 
      30    0.7159369        3 4.1600193e-16            1            1            1 1.3646586e-16 
      35   0.83635092        3 4.1690941e-16            1            1            1 1.3639758e-16 
      40   0.95669293        3 4.1782034e-16            1            1            1 1.3632934e-16 
      45     1.079983        3 4.1873472e-16            1            1            1 1.3626114e-16 
      50     1.193604        3 4.1965256e-16            1            1            1 1.3619297e-16 
      55    1.3105559        3 4.2057388e-16            1            1            1 1.3612483e-16 
      60     1.440418        3 4.2149869e-16            1            1            1 1.3605673e-16 
      65    1.5667689        3  4.22427e-16            1            1            1 1.3598866e-16 
      70    1.6788039        3 4.2335883e-16            1            1            1 1.3592062e-16 
      75    1.7921989        3 4.2429418e-16            1            1            1 1.3585262e-16 
      80    1.9084618        3 4.2523307e-16            1            1            1 1.3578465e-16 
      85    2.0300188        3 4.2617551e-16            1            1            1 1.3571672e-16 
      90     2.143913        3 4.2712151e-16            1            1            1 1.3564882e-16 
      95     2.264123        3 4.2807108e-16            1            1            1 1.3558096e-16 
     100    2.3862839        3 4.2902425e-16            1            1            1 1.3551313e-16 
     105     2.502121        3 4.2998101e-16            1            1            1 1.3544533e-16 
     110     2.626086        3 4.3094139e-16            1            1            1 1.3537757e-16 
     115    2.7602189        3 4.3190539e-16            1            1            1 1.3530984e-16 
     120    2.8805389        3 4.3287302e-16            1            1            1 1.3524214e-16 
     125      3.00071        3 4.3384431e-16            1            1            1 1.3517448e-16 
     130    3.1189709        3 4.3481926e-16            1            1            1 1.3510685e-16 
     135    3.2379658        3 4.3579788e-16            1            1            1 1.3503926e-16 
     140    3.3566408        3 4.3678019e-16            1            1            1 1.349717e-16 
     145    3.4812849        3 4.3776621e-16            1            1            1 1.3490417e-16 
     150    3.6070728        4 4.3875593e-16            2            1            1 1.3483668e-16 
     155    3.7244868        5 4.3974938e-16            2            1            2 1.3476922e-16 
     160    3.8390908        5 4.4074657e-16            2            1            2 1.3470179e-16 
     165    3.9520159        5 4.4174751e-16            2            1            2 1.346344e-16 
     170    4.0681188        5 4.4275222e-16            2            1            2 1.3456705e-16 
     175    4.1852269        5 4.437607e-16            2            1            2 1.3449972e-16 
     180     4.305649        5 4.4477298e-16            2            1            2 1.3443243e-16 
     185    4.4257529        5 4.4578905e-16            2            1            2 1.3436517e-16 
     190     4.566735        5 4.4680895e-16            2            1            2 1.3429795e-16 
     195    4.6837749        5 4.4783268e-16            2            1            2 1.3423076e-16 
     200     4.812309        5 4.4886024e-16            2            1            2 1.3416361e-16 
     205    4.9286189        5 4.4989167e-16            2            1            2 1.3409649e-16 
     210     5.060082        5 4.5092697e-16            2            1            2 1.340294e-16 
     215    5.1941969        5 4.5196615e-16            2            1            2 1.3396234e-16 
     220    5.3075199        5 4.5300922e-16            2            1            2 1.3389532e-16 
     225      5.42838        5 4.5405621e-16            2            1            2 1.3382833e-16 
     230    5.5469449        5 4.5510712e-16            2            1            2 1.3376138e-16 
     235     5.668644        5 4.5616197e-16            2            1            2 1.3369446e-16 
     240    5.7835209        5 4.5722077e-16            2            1            2 1.3362757e-16 
     245    5.9040139        5 4.5828354e-16            2            1            2 1.3356072e-16 
     250    6.0217309        5 4.5935028e-16            2            1            2 1.334939e-16 
     255    6.1461759        5 4.6042102e-16            2            1            2 1.3342711e-16 
     260     6.265655        5 4.6149576e-16            2            1            2 1.3336036e-16 
     265     6.379056        5 4.6257452e-16            2            1            2 1.3329364e-16 
     270    6.5039029        5 4.6365732e-16            2            1            2 1.3322695e-16 
     275     6.616745        5 4.6474416e-16            2            1            2 1.3316029e-16 
     280    6.7395718        5 4.6583507e-16            2            1            2 1.3309367e-16 
     285     6.854821        5 4.6693005e-16            2            1            2 1.3302709e-16 
     290    6.9740369        5 4.6802913e-16            2            1            2 1.3296053e-16 
     295    7.0905519        5 4.691323e-16            2            1            2 1.3289401e-16 
     300     7.204504        5 4.702396e-16            2            1            2 1.3282753e-16 
     305    7.3292279        5 4.7135103e-16            2            1            2 1.3276107e-16 
     310    7.4406369        5 4.724666e-16            2            1            2 1.3269465e-16 
     315     7.556783        5 4.7358634e-16            2            1            2 1.3262827e-16 
     320    7.6687648        5 4.7471025e-16            2            1            2 1.3256191e-16 
     325     7.790127        5 4.7583835e-16            2            1            2 1.3249559e-16 
     330     7.903038        5 4.7697066e-16            2            1            2 1.324293e-16 
     335    8.0205748        5 4.7810719e-16            2            1            2 1.3236305e-16 
     340     8.131587        5 4.7924795e-16            2            1            2 1.3229683e-16 
     345    8.2492809        5 4.8039295e-16            2            1            2 1.3223064e-16 
     350    8.3722248        5 4.8154223e-16            2            1            2 1.3216449e-16 
     355    8.4893439        5 4.8269578e-16            2            1            2 1.3209836e-16 
     360    8.6074679        5 4.8385362e-16            2            1            2 1.3203228e-16 
     365     8.725281        5 4.8501577e-16            2            1            2 1.3196622e-16 
     370    8.8496668        5 4.8618225e-16            2            1            2 1.319002e-16 
     375     8.964592        5 4.8735306e-16            2            1            2 1.3183421e-16 
     380    9.0855489        5 4.8852822e-16            2            1            2 1.3176825e-16 
     385      9.20648        5 4.8970776e-16            2            1            2 1.3170233e-16 
     390     9.324769        5 4.9089167e-16            2            1            2 1.3163644e-16 
     395    9.4387078        5 4.9207998e-16            2            1            2 1.3157058e-16 
     400    9.5548089        5 4.9327271e-16            2            1            2 1.3150475e-16 
     405    9.6789598        5 4.9446986e-16            2            1            2 1.3143896e-16 
     410     9.802839        5 4.9567146e-16            2            1            2 1.313732e-16 
     415     9.923151        5 4.9687752e-16            2            1            2 1.3130748e-16 
     420    10.043601        5 4.9808806e-16            2            1            2 1.3124178e-16 
     425    10.160835        5 4.9930308e-16            2            1            2 1.3117612e-16 
     430    10.276014        5 5.0052261e-16            2            1            2 1.311105e-16 
     435    10.386778        5 5.0174666e-16            2            1            2 1.310449e-16 
     440    10.507667        5 5.0297525e-16            2            1            2 1.3097934e-16 
     445    10.627975        5 5.0420839e-16            2            1            2 1.3091381e-16 
     450    10.737234        5 5.054461e-16            2            1            2 1.3084831e-16 
     455    10.849297        5 5.0668839e-16            2            1            2 1.3078285e-16 
     460    10.966011        5 5.0793528e-16            2            1            2 1.3071742e-16 
     465    11.082585        5 5.091868e-16            2            1            2 1.3065202e-16 
     470    11.204531        5 5.1044294e-16            2            1            2 1.3058666e-16 
     475    11.322803        5 5.1170373e-16            2            1            2 1.3052133e-16 
     480     11.43311        5 5.1296919e-16            2            1            2 1.3045603e-16 
     485    11.551523        5 5.1423932e-16            2            1            2 1.3039076e-16 
     490    11.661144        5 5.1551416e-16            2            1            2 1.3032552e-16 
     495    11.784175        5 5.167937e-16            2            1            2 1.3026032e-16 
     500    11.904273        5 5.1807798e-16            2            1            2 1.3019515e-16 
     505    12.026661        5  5.19367e-16            2            1            2 1.3013002e-16 
     510    12.144467        5 5.2066078e-16            2            1            2 1.3006491e-16 
     515    12.257317        5 5.2195935e-16            2            1            2 1.2999984e-16 
     520    12.375355        5 5.232627e-16            2            1            2 1.299348e-16 
     525    12.492915        5 5.2457088e-16            2            1            2 1.298698e-16 
     530    12.608363        5 5.2588387e-16            2            1            2 1.2980482e-16 
     535    12.727645        5 5.2720172e-16            2            1            2 1.2973988e-16 
     540    12.846982        5 5.2852443e-16            2            1            2 1.2967497e-16 
     545    12.964391        5 5.2985201e-16            2            1            2 1.296101e-16 
     550      13.0826        5 5.3118449e-16            2            1            2 1.2954525e-16 
     555    13.209211        5 5.3252189e-16            2            1            2 1.2948044e-16 
     560    13.344587        5 5.3386422e-16            2            1            2 1.2941566e-16 
     565    13.457361        5 5.3521149e-16            2            1            2 1.2935091e-16 
     570    13.578504        5 5.3656372e-16            2            1            2 1.292862e-16 
     575    13.704388        5 5.3792094e-16            2            1            2 1.2922152e-16 
     580    13.818927        5 5.3928316e-16            2            1            2 1.2915687e-16 
     585    13.938074        5 5.4065039e-16            2            1            2 1.2909225e-16 
     590    14.055389        5 5.4202266e-16            2            1            2 1.2902767e-16 
     595    14.178317        5 5.4339998e-16            2            1            2 1.2896311e-16 
     600    14.297972        5 5.4478237e-16            2            1            2 1.2889859e-16 
     605    14.416146        5 5.4616984e-16            2            1            2 1.2883411e-16 
     610    14.527823        5 5.4756241e-16            2            1            2 1.2876965e-16 
     615    14.642429        5 5.4896011e-16            2            1            2 1.2870523e-16 
     620    14.761448        5 5.5036295e-16            2            1            2 1.2864084e-16 
     625    14.877551        5 5.5177094e-16            2            1            2 1.2857648e-16 
     630    14.995521        5 5.5318411e-16            2            1            2 1.2851215e-16 
     635    15.125493        5 5.5460248e-16            2            1            2 1.2844786e-16 
     640    15.243381        5 5.5602605e-16            2            1            2 1.2838359e-16 
     645    15.361268        5 5.5745485e-16            2            1            2 1.2831936e-16 
     650    15.478147        5 5.588889e-16            2            1            2 1.2825516e-16 
     655    15.590782        5 5.6032822e-16            2            1            2  1.28191e-16 
     660     15.70653        5 5.6177281e-16            2            1            2 1.2812686e-16 
     665    15.824155        5 5.6322271e-16            2            1            2 1.2806276e-16 
     670    15.950496        5 5.6467794e-16            2            1            2 1.2799869e-16 
     675    16.067791        5 5.661385e-16            2            1            2 1.2793465e-16 
     680    16.183193        5 5.6760441e-16            2            1            2 1.2787065e-16 
     685    16.304565        5 5.6907571e-16            2            1            2 1.2780668e-16 
     690    16.415551        5 5.7055239e-16            2            1            2 1.2774273e-16 
     695    16.535244        5 5.7203449e-16            2            1            2 1.2767882e-16 
     700    16.654805        5 5.7352203e-16            2            1            2 1.2761495e-16 
     705     16.77491        5 5.7501501e-16            2            1            2 1.275511e-16 
     710    16.892827        5 5.7651347e-16            2            1            2 1.2748729e-16 
     715    17.008376        5 5.7801741e-16            2            1            2 1.2742351e-16 
     720    17.135478        5 5.7952686e-16            2            1            2 1.2735976e-16 
     725    17.261593        5 5.8104184e-16            2            1            2 1.2729604e-16 
     730    17.380968        5 5.8256236e-16            2            1            2 1.2723235e-16 
     735    17.494606        5 5.8408845e-16            2            1            2 1.271687e-16 
     740    17.618565        5 5.8562013e-16            2            1            2 1.2710507e-16 
     745    17.748681        5 5.8715741e-16            2            1            2 1.2704148e-16 
     750     17.87144        5 5.8870031e-16            2            1            2 1.2697792e-16 
     755    17.991268        5 5.9024886e-16            2            1            2 1.269144e-16 
     760    18.119699        5 5.9180307e-16            2            1            2 1.268509e-16 
     765    18.232651        5 5.9336296e-16            2            1            2 1.2678744e-16 
     770    18.350402        5 5.9492855e-16            2            1            2 1.2672401e-16 
     775    18.470058        5 5.9649987e-16            2            1            2 1.2666061e-16 
     780    18.587514        5 5.9807692e-16            2            1            2 1.2659724e-16 
     785    18.701592        5 5.9965974e-16            2            1            2 1.265339e-16 
     790    18.823506        5 6.0124834e-16            2            1            2 1.264706e-16 
     795    18.939443        5 6.0284275e-16            2            1            2 1.2640732e-16 
     800    19.060996        5 6.0444297e-16            2            1            2 1.2634408e-16 
     805    19.179835        5 6.0604904e-16            2            1            2 1.2628087e-16 
     810    19.298995        5 6.0766097e-16            2            1            2 1.2621769e-16 
     815      19.4177        5 6.0927878e-16            2            1            2 1.2615455e-16 
     820    19.547359        5 6.109025e-16            2            1            2 1.2609143e-16 
     825    19.686598        5 6.1253214e-16            2            1            2 1.2602835e-16 
     830    19.811686        5 6.1416772e-16            2            1            2 1.259653e-16 
     835    19.928582        5 6.1580927e-16            2            1            2 1.2590228e-16 
     840     20.04031        5 6.1745681e-16            2            1            2 1.2583929e-16 
     845    20.177867        5 6.1911035e-16            2            1            2 1.2577633e-16 
     850    20.294692        5 6.2076992e-16            2            1            2 1.257134e-16 
     855    20.425036        5 6.2243554e-16            2            1            2 1.2565051e-16 
     860    20.555666        5 6.2410723e-16            2            1            2 1.2558765e-16 
     865    20.676021        5 6.2578501e-16            2            1            2 1.2552482e-16 
     870    20.811664        5 6.2746889e-16            2            1            2 1.2546202e-16 
     875    20.931072        5 6.2915892e-16            2            1            2 1.2539925e-16 
     880    21.048958        5 6.3085509e-16            2            1            2 1.2533651e-16 
     885    21.167023        5 6.3255745e-16            2            1            2 1.252738e-16 
     890     21.29091        5  6.34266e-16            2            1            2 1.2521113e-16 
     895    21.421103        5 6.3598076e-16            2            1            2 1.2514849e-16 
     900    21.549613        5 6.3770177e-16            2            1            2 1.2508587e-16 
     905    21.665379        5 6.3942904e-16            2            1            2 1.2502329e-16 
     910    21.785248        5 6.411626e-16            2            1            2 1.2496074e-16 
     915    21.907264        5 6.4290246e-16            2            1            2 1.2489823e-16 
     920    22.037623        5 6.4464864e-16            2            1            2 1.2483574e-16 
     925    22.170393        5 6.4640118e-16            2            1            2 1.2477329e-16 
     930    22.293059        5 6.4816009e-16            2            1            2 1.2471086e-16 
     935    22.410111        5 6.4992539e-16            2            1            2 1.2464847e-16 
     940    22.529227        5 6.516971e-16            2            1            2 1.2458611e-16 
     945    22.648304        5 6.5347526e-16            2            1            2 1.2452378e-16 
     950    22.762244        5 6.5525987e-16            2            1            2 1.2446148e-16 
     955    22.878017        6 6.5705097e-16            2            1            3 1.2439921e-16 
     960    22.999537        6 6.5884858e-16            2            1            3 1.2433697e-16 
     965    23.116066        6 6.6065271e-16            2            1            3 1.2427477e-16 
     970    23.238559        6 6.6246339e-16            2            1            3 1.2421259e-16 
     975    23.359372        6 6.6428065e-16            2            1            3 1.2415045e-16 
     980    23.482079        6 6.661045e-16            2            1            3 1.2408834e-16 
     985    23.595866        6 6.6793497e-16            2            1            3 1.2402625e-16 
     990    23.717259        7 6.6977209e-16            3            1            3 1.239642e-16 
     995    23.842268        7 6.7161587e-16            3            1            3 1.2390218e-16 
    1000    23.977253        7 6.7346633e-16            3            1            3 1.238402e-16 
    1005    24.096618        7 6.7532351e-16            3            1            3 1.2377824e-16 
    1010    24.208129        7 6.7718743e-16            3            1            3 1.2371631e-16 
    1015    24.320625        7 6.790581e-16            3            1            3 1.2365442e-16 
    1020    24.441692        7 6.8093556e-16            3            1            3 1.2359255e-16 
    1025     24.55858        7 6.8281982e-16            3            1            3 1.2353072e-16 
    1030    24.676027        7 6.8471091e-16            3            1            3 1.2346892e-16 
    1035    24.795051        7 6.8660885e-16            3            1            3 1.2340715e-16 
    1040    24.914026        7 6.8851368e-16            3            1            3 1.2334541e-16 
    1045      25.0343        7 6.904254e-16            3            1            3 1.232837e-16 
    1050    25.156692        7 6.9234404e-16            3            1            3 1.2322202e-16 
    1055    25.272912        7 6.9426964e-16            3            1            3 1.2316037e-16 
    1060    25.389716        7 6.9620221e-16            3            1            3 1.2309875e-16 
    1065    25.510988        7 6.9814177e-16            3            1            3 1.2303717e-16 
    1070    25.628592        7 7.0008836e-16            3            1            3 1.2297561e-16 
    1075    25.745583        7 7.0204199e-16            3            1            3 1.2291409e-16 
    1080    25.863482        7 7.040027e-16            3            1            3 1.2285259e-16 
    1085      25.9753        7 7.059705e-16            3            1            3 1.2279113e-16 
    1090    26.092963        7 7.0794541e-16            3            1            3 1.227297e-16 
    1095    26.219514        7 7.0992748e-16            3            1            3 1.2266829e-16 
    1100    26.336859        7 7.1191671e-16            3            1            3 1.2260692e-16 
    1105    26.459695        7 7.1391314e-16            3            1            3 1.2254558e-16 
    1110    26.579457        7 7.1591678e-16            3            1            3 1.2248427e-16 
    1115    26.702172        7 7.1792767e-16            3            1            3  1.22423e-16 
    1120    26.820556        7 7.1994583e-16            3            1            3 1.2236175e-16 
    1125     26.95183        7 7.2197129e-16            3            1            3 1.2230053e-16 
    1130    27.069465        7 7.2400407e-16            3            1            3 1.2223934e-16 
    1135     27.18139        7 7.2604419e-16            3            1            3 1.2217819e-16 
    1140    27.303917        7 7.2809168e-16            3            1            3 1.2211706e-16 
    1145    27.419379        7 7.3014657e-16            3            1            3 1.2205597e-16 
    1150    27.542428        7 7.3220888e-16            3            1            3 1.219949e-16 
    1155     27.66528        7 7.3427864e-16            3            1            3 1.2193387e-16 
    1160    27.783515        7 7.3635588e-16            3            1            3 1.2187286e-16 
    1165    27.914806        7 7.3844061e-16            3            1            3 1.2181189e-16 
    1170    28.034317        7 7.4053288e-16            3            1            3 1.2175095e-16 
    1175    28.159108        7 7.4263269e-16            3            1            3 1.2169004e-16 
    1180    28.277328        7 7.4474009e-16            3            1            3 1.2162915e-16 
    1185    28.402739        7 7.4685509e-16            3            1            3 1.215683e-16 
    1190    28.537691        7 7.4897772e-16            3            1            3 1.2150748e-16 
    1195    28.657295        7 7.5110801e-16            3            1            3 1.2144669e-16 
    1200     28.77955        7 7.5324598e-16            3            1            3 1.2138593e-16 
    1205    28.893791        7 7.5539167e-16            3            1            3 1.213252e-16 
    1210    29.021032        7 7.5754509e-16            3            1            3 1.212645e-16 
    1215    29.156667        7 7.5970629e-16            3            1            3 1.2120384e-16 
    1220    29.289716        7 7.6187527e-16            3            1            3 1.211432e-16 
    1225     29.44133        7 7.6405207e-16            3            1            3 1.2108259e-16 
    1230    29.574311        7 7.6623672e-16            3            1            3 1.2102201e-16 
    1235    29.705952        7 7.6842925e-16            3            1            3 1.2096146e-16 
    1240    29.839836        7 7.7062967e-16            3            1            3 1.2090095e-16 
    1245    29.970699        7 7.7283803e-16            3            1            3 1.2084046e-16 
    1250    30.105775        7 7.7505434e-16            3            1            3   1.2078e-16 
    1255      30.2345        7 7.7727863e-16            3            1            3 1.2071958e-16 
    1260    30.378335        7 7.7951094e-16            3            1            3 1.2065918e-16 
    1265    30.514832        7 7.8175129e-16            3            1            3 1.2059882e-16 
    1270    30.647983        7 7.8399971e-16            3            1            3 1.2053848e-16 
    1275    30.782132        8 7.8625622e-16            4            1            3 1.2047818e-16 
    1280    30.925126        8 7.8852085e-16            4            1            3 1.204179e-16 
    1285    31.071037        8 7.9079364e-16            4            1            3 1.2035766e-16 
    1290    31.216228        8 7.9307461e-16            4            1            3 1.2029744e-16 
    1295     31.36718        8 7.9536379e-16            4            1            3 1.2023726e-16 
    1300    31.506109        8 7.9766121e-16            4            1            3 1.201771e-16 
    1305    31.640044        8 7.9996689e-16            4            1            3 1.2011698e-16 
    1310    31.789891        8 8.0228087e-16            4            1            3 1.2005688e-16 
    1315    31.943188        8 8.0460317e-16            4            1            3 1.1999682e-16 
    1320    32.099856        8 8.0693383e-16            4            1            3 1.1993678e-16 
    1325    32.248517        8 8.0927287e-16            4            1            3 1.1987678e-16 
    1330    32.385853        8 8.1162032e-16            4            1            3 1.198168e-16 
    1335    32.521841        8 8.1397621e-16            4            1            3 1.1975686e-16 
    1340    32.658542        8 8.1634057e-16            4            1            3 1.1969695e-16 
    1345    32.794776        8 8.1871343e-16            4            1            3 1.1963706e-16 
    1350     32.92086        8 8.2109482e-16            4            1            3 1.1957721e-16 
    1355    33.054375        8 8.2348477e-16            4            1            3 1.1951738e-16 
    1360    33.177858        8 8.2588331e-16            4            1            3 1.1945759e-16 
    1365    33.299925        8 8.2829047e-16            4            1            3 1.1939782e-16 
    1370    33.430302        8 8.3070627e-16            4            1            3 1.1933809e-16 
    1375    33.550814        8 8.3313076e-16            4            1            3 1.1927838e-16 
    1380    33.683581        8 8.3556395e-16            4            1            3 1.1921871e-16 
    1385    33.817102        8 8.3800588e-16            4            1            3 1.1915906e-16 
    1390     33.95217        8 8.4045658e-16            4            1            3 1.1909945e-16 
    1395    34.079374        8 8.4291609e-16            4            1            3 1.1903986e-16 
    1400    34.212628        8 8.4538442e-16            4            1            3 1.1898031e-16 
    1405     34.33693        8 8.4786161e-16            4            1            3 1.1892078e-16 
    1410    34.466912        8 8.503477e-16            4            1            3 1.1886129e-16 
    1415    34.609399        8 8.5284271e-16            4            1            3 1.1880182e-16 
    1420    34.737241        8 8.5534668e-16            4            1            3 1.1874238e-16 
    1425    34.859395        8 8.5785963e-16            4            1            3 1.1868298e-16 
    1430    34.994116        9 8.603816e-16            4            1            4 1.186236e-16 
    1435    35.117233        9 8.6291261e-16            4            1            4 1.1856425e-16 
    1440    35.238272        9 8.6545271e-16            4            1            4 1.1850493e-16 
    1445    35.364705        9 8.6800192e-16            4            1            4 1.1844565e-16 
    1450    35.498547        9 8.7056027e-16            4            1            4 1.1838639e-16 
    1455    35.635299        9 8.7312779e-16            4            1            4 1.1832716e-16 
    1460    35.767052        9 8.7570453e-16            4            1            4 1.1826796e-16 
    1465    35.921803        9 8.782905e-16            4            1            4 1.1820879e-16 
    1470    36.080369        9 8.8088574e-16            4            1            4 1.1814965e-16 
    1475    36.234111        9 8.8349029e-16            4            1            4 1.1809054e-16 
    1480    36.374556        9 8.8610417e-16            4            1            4 1.1803146e-16 
    1485     36.50797        9 8.8872743e-16            4            1            4 1.1797241e-16 
    1490    36.638107        9 8.9136008e-16            4            1            4 1.1791339e-16 
    1495    36.764473        9 8.9400216e-16            4            1            4 1.1785439e-16 
    1500    36.886254        9 8.9665372e-16            4            1            4 1.1779543e-16 
    1505    37.021509        9 8.9931477e-16            4            1            4 1.177365e-16 
    1510    37.141751        9 9.0198536e-16            4            1            4 1.176776e-16 
    1515    37.269454        9 9.0466551e-16            4            1            4 1.1761872e-16 
    1520    37.401682        9 9.0735526e-16            4            1            4 1.1755988e-16 
    1525    37.539436        9 9.1005464e-16            4            1            4 1.1750106e-16 
    1530     37.67782        9 9.1276369e-16            4            1            4 1.1744228e-16 
    1535    37.806038        9 9.1548244e-16            4            1            4 1.1738352e-16 
    1540    37.943416        9 9.1821093e-16            4            1            4 1.1732479e-16 
    1545    38.076379        9 9.2094918e-16            4            1            4 1.1726609e-16 
    1550    38.213878        9 9.2369723e-16            4            1            4 1.1720743e-16 
    1555    38.344903        9 9.2645512e-16            4            1            4 1.1714879e-16 
    1560    38.475035        9 9.2922288e-16            4            1            4 1.1709018e-16 
    1565    38.611053        9 9.3200055e-16            4            1            4 1.170316e-16 
    1570    38.734514        9 9.3478815e-16            4            1            4 1.1697305e-16 
    1575    38.866009        9 9.3758572e-16            4            1            4 1.1691453e-16 
    1580    38.989566        9 9.4039331e-16            4            1            4 1.1685603e-16 
    1585    39.122197        9 9.4321094e-16            4            1            4 1.1679757e-16 
    1590    39.246678        9 9.4603864e-16            4            1            4 1.1673914e-16 
    1595    39.377186        9 9.4887646e-16            4            1            4 1.1668073e-16 
    1600    39.510117        9 9.5172443e-16            4            1            4 1.1662236e-16 
    1605    39.634871        9 9.5458258e-16            4            1            4 1.1656401e-16 
    1610    39.760019        9 9.5745095e-16            4            1            4 1.1650569e-16 
    1615    39.891205        9 9.6032958e-16            4            1            4 1.1644741e-16 
    1620    40.019388        9 9.632185e-16            4            1            4 1.1638915e-16 
    1625    40.163596        9 9.6611774e-16            4            1            4 1.1633092e-16 
    1630    40.298832        9 9.6902735e-16            4            1            4 1.1627272e-16 
    1635    40.438596        9 9.7194735e-16            4            1            4 1.1621455e-16 
    1640    40.563579        9 9.7487779e-16            4            1            4 1.161564e-16 
    1645    40.703681        9 9.7781871e-16            4            1            4 1.1609829e-16 
    1650    40.832753        9 9.8077012e-16            4            1            4 1.1604021e-16 
    1655    40.964194        9 9.8373209e-16            4            1            4 1.1598215e-16 
    1660    41.092723        9 9.8670463e-16            4            1            4 1.1592413e-16 
    1665     41.22366        9 9.8968779e-16            4            1            4 1.1586613e-16 
    1670    41.350547        9 9.9268161e-16            4            1            4 1.1580816e-16 
    1675    41.485203        9 9.9568612e-16            4            1            4 1.1575022e-16 
    1680    41.610494        9 9.9870136e-16            4            1            4 1.1569231e-16 
    1685    41.736012        9 1.0017274e-15            4            1            4 1.1563443e-16 
    1690    41.868456        9 1.0047642e-15            4            1            4 1.1557658e-16 
    1695    42.002947        9 1.0078118e-15            4            1            4 1.1551876e-16 
    1700    42.141353        9 1.0108704e-15            4            1            4 1.1546096e-16 
    1705    42.267098        9 1.0139398e-15            4            1            4 1.154032e-16 
    1710    42.398191        9 1.0170202e-15            4            1            4 1.1534546e-16 
    1715    42.522571        9 1.0201116e-15            4            1            4 1.1528775e-16 
    1720    42.661691        9 1.023214e-15            4            1            4 1.1523008e-16 
    1725    42.804527        9 1.0263275e-15            4            1            4 1.1517243e-16 
    1730    42.959209        9 1.0294522e-15            4            1            4 1.1511481e-16 
    1735    43.097559        9 1.0325879e-15            4            1            4 1.1505721e-16 
    1740    43.221621        9 1.0357349e-15            4            1            4 1.1499965e-16 
    1745    43.352731        9 1.038893e-15            4            1            4 1.1494212e-16 
    1750    43.471345        9 1.0420625e-15            4            1            4 1.1488461e-16 
    1755    43.592869        9 1.0452432e-15            4            1            4 1.1482713e-16 
    1760    43.715434        9 1.0484353e-15            4            1            4 1.1476969e-16 
    1765    43.840857        9 1.0516388e-15            4            1            4 1.1471227e-16 
    1770    43.960932        9 1.0548537e-15            4            1            4 1.1465488e-16 
    1775    44.085788        9  1.05808e-15            4            1            4 1.1459751e-16 
    1780    44.214791        9 1.0613179e-15            4            1            4 1.1454018e-16 
    1785    44.342336        9 1.0645673e-15            4            1            4 1.1448288e-16 
    1790    44.484068        9 1.0678282e-15            4            1            4 1.144256e-16 
    1795    44.632336        9 1.0711008e-15            4            1            4 1.1436835e-16 
    1800    44.766449        9 1.0743851e-15            4            1            4 1.1431114e-16 
    1805     44.89759        9 1.0776811e-15            4            1            4 1.1425395e-16 
    1810    45.034426        9 1.0809888e-15            4            1            4 1.1419678e-16 
    1815    45.176523        9 1.0843083e-15            4            1            4 1.1413965e-16 
    1820    45.314851        9 1.0876396e-15            4            1            4 1.1408255e-16 
    1825    45.442785        9 1.0909828e-15            4            1            4 1.1402547e-16 
    1830    45.569922        9 1.094338e-15            4            1            4 1.1396843e-16 
    1835    45.696931       10 1.097705e-15            4            1            5 1.1391141e-16 
    1840    45.828699       10 1.1010841e-15            4            1            5 1.1385442e-16 
    1845    45.959396       10 1.1044752e-15            4            1            5 1.1379746e-16 
    1850    46.091465       10 1.1078783e-15            4            1            5 1.1374052e-16 
    1855    46.235501       10 1.1112936e-15            4            1            5 1.1368362e-16 
    1860    46.379487       10 1.1147211e-15            4            1            5 1.1362674e-16 
    1865    46.517866       10 1.1181607e-15            4            1            5 1.135699e-16 
    1870    46.653132       10 1.1216126e-15            4            1            5 1.1351308e-16 
    1875    46.783073       10 1.1250768e-15            4            1            5 1.1345629e-16 
    1880    46.909581       10 1.1285533e-15            4            1            5 1.1339952e-16 
    1885    47.049844       10 1.1320422e-15            4            1            5 1.1334279e-16 
    1890    47.185572       10 1.1355435e-15            4            1            5 1.1328608e-16 
    1895    47.323543       10 1.1390573e-15            4            1            5 1.1322941e-16 
    1900    47.463919       10 1.1425836e-15            4            1            5 1.1317276e-16 
    1905    47.606714       11 1.1461224e-15            5            1            5 1.1311614e-16 
    1910    47.743941       11 1.1496738e-15            5            1            5 1.1305955e-16 
    1915     47.86472       11 1.1532378e-15            5            1            5 1.1300298e-16 
    1920    47.996336       11 1.1568146e-15            5            1            5 1.1294645e-16 
    1925    48.120894       11 1.160404e-15            5            1            5 1.1288994e-16 
    1930    48.247412       11 1.1640063e-15            5            1            5 1.1283346e-16 
    1935    48.375272       11 1.1676213e-15            5            1            5 1.1277701e-16 
    1940     48.50531       11 1.1712492e-15            5            1            5 1.1272059e-16 
    1945    48.638784       11  1.17489e-15            5            1            5 1.1266419e-16 
    1950    48.766261       11 1.1785437e-15            5            1            5 1.1260783e-16 
    1955     48.90658       11 1.1822105e-15            5            1            5 1.1255149e-16 
    1960    49.048587       11 1.1858902e-15            5            1            5 1.1249518e-16 
    1965    49.175594       11 1.1895831e-15            5            1            5 1.124389e-16 
    1970    49.314848       11 1.1932891e-15            5            1            5 1.1238265e-16 
    1975    49.450476       11 1.1970083e-15            5            1            5 1.1232642e-16 
    1980    49.593945       11 1.2007406e-15            5            1            5 1.1227023e-16 
    1985    49.724735       11 1.2044863e-15            5            1            5 1.1221406e-16 
    1990    49.864872       11 1.2082453e-15            5            1            5 1.1215792e-16 
    1995    50.008549       11 1.2120176e-15            5            1            5 1.121018e-16 
    2000    50.169854       11 1.2158033e-15            5            1            5 1.1204572e-16 
    2005    50.314233       11 1.2196025e-15            5            1            5 1.1198966e-16 
    2010    50.442405       11 1.2234152e-15            5            1            5 1.1193363e-16 
    2015    50.580401       11 1.2272414e-15            5            1            5 1.1187763e-16 
    2020    50.726782       12 1.2310812e-15            6            1            5 1.1182166e-16 
    2025    50.865022       12 1.2349347e-15            6            1            5 1.1176572e-16 
    2030    51.010625       12 1.2388018e-15            6            1            5 1.117098e-16 
    2035    51.162353       12 1.2426827e-15            6            1            5 1.1165391e-16 
    2040    51.305912       12 1.2465774e-15            6            1            5 1.1159805e-16 
    2045    51.473723       12 1.2504859e-15            6            1            5 1.1154222e-16 
    2050    51.616301       13 1.2544083e-15            7            1            5 1.1148641e-16 
    2055    51.776687       13 1.2583446e-15            7            1            5 1.1143064e-16 
    2060    51.926748       13 1.2622949e-15            7            1            5 1.1137489e-16 
    2065    52.081294       13 1.2662593e-15            7            1            5 1.1131917e-16 
    2070    52.232139       13 1.2702377e-15            7            1            5 1.1126348e-16 
    2075    52.397183       13 1.2742302e-15            7            1            5 1.1120781e-16 
    2080    52.546536       13 1.2782369e-15            7            1            5 1.1115217e-16 
    2085    52.710656       13 1.2822578e-15            7            1            5 1.1109656e-16 
    2090    52.872448       13 1.286293e-15            7            1            5 1.1104098e-16 
    2095    53.034172       13 1.2903425e-15            7            1            5 1.1098543e-16 
    2100    53.189468       13 1.2944064e-15            7            1            5 1.109299e-16 
    2105    53.357924       13 1.2984848e-15            7            1            5 1.108744e-16 
    2110    53.527077       13 1.3025775e-15            7            1            5 1.1081893e-16 
    2115    53.681593       13 1.3066849e-15            7            1            5 1.1076349e-16 
    2120    53.842544       13 1.3108067e-15            7            1            5 1.1070808e-16 
    2125    54.008065       13 1.3149433e-15            7            1            5 1.1065269e-16 
    2130    54.167941       14 1.3190945e-15            7            1            6 1.1059733e-16 
    2135    54.333101       14 1.3232604e-15            7            1            6  1.10542e-16 
    2140    54.497054       14 1.3274411e-15            7            1            6 1.1048669e-16 
    2145    54.651939       14 1.3316366e-15            7            1            6 1.1043142e-16 
    2150    54.791565       14 1.335847e-15            7            1            6 1.1037617e-16 
    2155    54.934416       14 1.3400724e-15            7            1            6 1.1032095e-16 
    2160    55.071362       14 1.3443127e-15            7            1            6 1.1026575e-16 
    2165    55.236693       14 1.3485681e-15            7            1            6 1.1021059e-16 
    2170    55.382556       14 1.3528385e-15            7            1            6 1.1015545e-16 
    2175    55.531999       14 1.3571241e-15            7            1            6 1.1010034e-16 
    2180     55.67006       14 1.3614249e-15            7            1            6 1.1004525e-16 
    2185    55.819205       14 1.365741e-15            7            1            6 1.099902e-16 
    2190    55.949401       14 1.3700724e-15            7            1            6 1.0993517e-16 
    2195    56.099553       14 1.3744191e-15            7            1            6 1.0988017e-16 
    2200    56.252412       14 1.3787812e-15            7            1            6 1.098252e-16 
    2205    56.393369       14 1.3831588e-15            7            1            6 1.0977025e-16 
    2210    56.562591       15 1.3875519e-15            7            1            7 1.0971533e-16 
    2215    56.715645       15 1.3919606e-15            7            1            7 1.0966044e-16 
    2220    56.864361       15 1.3963849e-15            7            1            7 1.0960558e-16 
    2225    57.006977       15 1.4008248e-15            7            1            7 1.0955074e-16 
    2230    57.158889       15 1.4052806e-15            7            1            7 1.0949594e-16 
    2235    57.290756       15 1.4097521e-15            7            1            7 1.0944116e-16 
    2240    57.427276       15 1.4142394e-15            7            1            7 1.093864e-16 
    2245    57.557489       15 1.4187427e-15            7            1            7 1.0933168e-16 
    2250    57.685261       15 1.4232619e-15            7            1            7 1.0927698e-16 
    2255    57.826234       15 1.4277971e-15            7            1            7 1.0922231e-16 
    2260    57.978499       15 1.4323484e-15            7            1            7 1.0916766e-16 
    2265    58.122501       15 1.4369158e-15            7            1            7 1.0911305e-16 
    2270    58.281945       15 1.4414994e-15            7            1            7 1.0905846e-16 
    2275    58.434821       15 1.4460992e-15            7            1            7 1.0900389e-16 
    2280    58.592016       15 1.4507154e-15            7            1            7 1.0894936e-16 
    2285    58.757278       15 1.4553478e-15            7            1            7 1.0889485e-16 
    2290    58.916782       15 1.4599967e-15            7            1            7 1.0884037e-16 
    2295    59.075493       15 1.4646621e-15            7            1            7 1.0878592e-16 
    2300    59.208941       15 1.4693439e-15            7            1            7 1.0873149e-16 
    2305    59.355573       15 1.4740424e-15            7            1            7 1.086771e-16 
    2310    59.509324       15 1.4787575e-15            7            1            7 1.0862272e-16 
    2315    59.660087       15 1.4834892e-15            7            1            7 1.0856838e-16 
    2320    59.806273       15 1.4882378e-15            7            1            7 1.0851406e-16 
    2325    59.960182       15 1.4930031e-15            7            1            7 1.0845977e-16 
    2330    60.110818       15 1.4977853e-15            7            1            7 1.0840551e-16 
    2335    60.241551       15 1.5025845e-15            7            1            7 1.0835128e-16 
    2340    60.381427       15 1.5074006e-15            7            1            7 1.0829707e-16 
    2345    60.535217       15 1.5122338e-15            7            1            7 1.0824289e-16 
    2350     60.66485       15 1.5170841e-15            7            1            7 1.0818873e-16 
    2355    60.795631       15 1.5219515e-15            7            1            7 1.0813461e-16 
    2360    60.927083       15 1.5268362e-15            7            1            7 1.0808051e-16 
    2365    61.062285       15 1.5317382e-15            7            1            7 1.0802643e-16 
    2370    61.196342       15 1.5366575e-15            7            1            7 1.0797239e-16 
    2375     61.34406       15 1.5415942e-15            7            1            7 1.0791837e-16 
    2380    61.490771       15 1.5465484e-15            7            1            7 1.0786438e-16 
    2385     61.63393       15 1.5515202e-15            7            1            7 1.0781041e-16 
    2390    61.765375       15 1.5565095e-15            7            1            7 1.0775648e-16 
    2395     61.89864       15 1.5615165e-15            7            1            7 1.0770257e-16 
    2400    62.050796       15 1.5665411e-15            7            1            7 1.0764868e-16 
    2405    62.187931       15 1.5715836e-15            7            1            7 1.0759483e-16 
    2410    62.347131       15 1.5766439e-15            7            1            7  1.07541e-16 
    2415    62.489239       15 1.5817221e-15            7            1            7 1.0748719e-16 
    2420    62.631115       15 1.5868182e-15            7            1            7 1.0743342e-16 
    2425    62.769159       15 1.5919324e-15            7            1            7 1.0737967e-16 
    2430    62.910363       15 1.5970647e-15            7            1            7 1.0732595e-16 
    2435    63.064318       15 1.6022151e-15            7            1            7 1.0727225e-16 
    2440    63.217474       15 1.6073838e-15            7            1            7 1.0721858e-16 
    2445    63.381092       15 1.6125707e-15            7            1            7 1.0716494e-16 
    2450    63.530116       15 1.6177759e-15            7            1            7 1.0711133e-16 
    2455    63.681923       15 1.6229996e-15            7            1            7 1.0705774e-16 
    2460    63.844301       15 1.6282417e-15            7            1            7 1.0700418e-16 
    2465    63.987309       15 1.6335024e-15            7            1            7 1.0695064e-16 
    2470    64.143929       15 1.6387817e-15            7            1            7 1.0689714e-16 
    2475    64.292864       15 1.6440796e-15            7            1            7 1.0684366e-16 
    2480    64.447991       16 1.6493963e-15            8            1            7 1.067902e-16 
    2485    64.601346       16 1.6547318e-15            8            1            7 1.0673678e-16 
    2490    64.762371       16 1.6600861e-15            8            1            7 1.0668337e-16 
    2495    64.928048       16 1.6654593e-15            8            1            7   1.0663e-16 
    2500    65.082623       16 1.6708516e-15            8            1            7 1.0657665e-16 
    2505    65.248708       16 1.6762629e-15            8            1            7 1.0652333e-16 
    2510    65.412101       16 1.6816933e-15            8            1            7 1.0647004e-16 
    2515    65.576781       16 1.6871429e-15            8            1            7 1.0641677e-16 
    2520    65.766945       16 1.6926118e-15            8            1            7 1.0636353e-16 
    2525    65.956052       16   1.6981e-15            8            1            7 1.0631032e-16 
    2530    66.148845       16 1.7036076e-15            8            1            7 1.0625713e-16 
    2535    66.336715       16 1.7091346e-15            8            1            7 1.0620397e-16 
    2540    66.553216       16 1.7146812e-15            8            1            7 1.0615084e-16 
    2545    66.758403       16 1.7202474e-15            8            1            7 1.0609773e-16 
    2550    66.966135       16 1.7258333e-15            8            1            7 1.0604465e-16 
    2555    67.168813       16 1.7314388e-15            8            1            7 1.059916e-16 
    2560    67.365231       16 1.7370642e-15            8            1            7 1.0593857e-16 
    2565    67.558552       16 1.7427095e-15            8            1            7 1.0588557e-16 
    2570    67.737193       16 1.7483747e-15            8            1            7 1.0583259e-16 
    2575    67.935504       16 1.7540599e-15            8            1            7 1.0577964e-16 
    2580    68.132304       16 1.7597652e-15            8            1            7 1.0572672e-16 
    2585    68.340024       16 1.7654907e-15            8            1            7 1.0567383e-16 
    2590    68.507642       16 1.7712363e-15            8            1            7 1.0562096e-16 
    2595    68.691005       16 1.7770023e-15            8            1            7 1.0556812e-16 
    2600    68.871643       16 1.7827886e-15            8            1            7 1.055153e-16 
    2605    69.044595       16 1.7885954e-15            8            1            7 1.0546251e-16 
    2610    69.218825       16 1.7944227e-15            8            1            7 1.0540975e-16 
    2615    69.368176       16 1.8002705e-15            8            1            7 1.0535701e-16 
    2620    69.556605       16 1.806139e-15            8            1            7 1.053043e-16 
    2625     69.72172       16 1.8120282e-15            8            1            7 1.0525162e-16 
    2630    69.884618       16 1.8179382e-15            8            1            7 1.0519896e-16 
    2635    70.065644       16 1.8238691e-15            8            1            7 1.0514633e-16 
    2640     70.21359       16 1.8298209e-15            8            1            7 1.0509373e-16 
    2645    70.369851       16 1.8357938e-15            8            1            7 1.0504115e-16 
    2650    70.516982       16 1.8417877e-15            8            1            7 1.049886e-16 
    2655    70.667375       16 1.8478028e-15            8            1            7 1.0493607e-16 
    2660    70.823325       16 1.8538391e-15            8            1            7 1.0488357e-16 
    2665    70.974669       16 1.8598967e-15            8            1            7 1.048311e-16 
    2670    71.120357       16 1.8659757e-15            8            1            7 1.0477865e-16 
    2675    71.253834       16 1.8720761e-15            8            1            7 1.0472623e-16 
    2680    71.398072       16 1.8781981e-15            8            1            7 1.0467384e-16 
    2685    71.540922       16 1.8843417e-15            8            1            7 1.0462147e-16 
    2690    71.689444       16 1.890507e-15            8            1            7 1.0456912e-16 
    2695    71.847285       16 1.896694e-15            8            1            7 1.0451681e-16 
    2700    72.000546       16 1.9029029e-15            8            1            7 1.0446452e-16 
    2705     72.17618       16 1.9091337e-15            8            1            7 1.0441226e-16 
    2710    72.333579       16 1.9153864e-15            8            1            7 1.0436002e-16 
    2715    72.487344       16 1.9216613e-15            8            1            7 1.0430781e-16 
    2720    72.642739       16 1.9279582e-15            8            1            7 1.0425562e-16 
    2725    72.786891       17 1.9342774e-15            8            1            8 1.0420346e-16 
    2730    72.934067       17 1.9406189e-15            8            1            8 1.0415133e-16 
    2735    73.106631       17 1.9469828e-15            8            1            8 1.0409922e-16 
    2740    73.258573       17 1.9533691e-15            8            1            8 1.0404714e-16 
    2745    73.392563       17 1.9597779e-15            8            1            8 1.0399509e-16 
    2750    73.558648       17 1.9662093e-15            8            1            8 1.0394306e-16 
    2755     73.70892       17 1.9726635e-15            8            1            8 1.0389106e-16 
    2760    73.855264       17 1.9791404e-15            8            1            8 1.0383908e-16 
    2765    74.003133       17 1.9856401e-15            8            1            8 1.0378713e-16 
    2770    74.137188       17 1.9921628e-15            8            1            8 1.037352e-16 
    2775    74.309247       17 1.9987085e-15            8            1            8 1.036833e-16 
    2780    74.457459       17 2.0052772e-15            8            1            8 1.0363143e-16 
    2785    74.614132       17 2.0118692e-15            8            1            8 1.0357959e-16 
    2790    74.777206       17 2.0184843e-15            8            1            8 1.0352776e-16 
    2795    74.939811       17 2.0251228e-15            8            1            8 1.0347597e-16 
    2800    75.093469       17 2.0317848e-15            8            1            8 1.034242e-16 
    2805    75.261024       17 2.0384702e-15            8            1            8 1.0337246e-16 
    2810    75.418151       17 2.0451792e-15            8            1            8 1.0332074e-16 
    2815    75.576945       17 2.0519118e-15            8            1            8 1.0326905e-16 
    2820    75.759222       18 2.0586682e-15            9            1            8 1.0321738e-16 
    2825    75.936282       19 2.0654484e-15            9            1            9 1.0316574e-16 
    2830    76.117193       19 2.0722525e-15            9            1            9 1.0311413e-16 
    2835    76.296269       19 2.0790806e-15            9            1            9 1.0306254e-16 
    2840    76.477961       19 2.0859328e-15            9            1            9 1.0301098e-16 
    2845    76.657346       19 2.0928091e-15            9            1            9 1.0295944e-16 
    2850     76.84509       19 2.0997097e-15            9            1            9 1.0290793e-16 
    2855     77.02025       19 2.1066346e-15            9            1            9 1.0285645e-16 
    2860    77.195344       19 2.1135839e-15            9            1            9 1.0280499e-16 
    2865    77.379858       19 2.1205577e-15            9            1            9 1.0275356e-16 
    2870    77.569245       19 2.127556e-15            9            1            9 1.0270215e-16 
    2875    77.749463       19 2.1345791e-15            9            1            9 1.0265077e-16 
    2880     77.90956       20 2.1416269e-15            9            1           10 1.0259941e-16 
    2885    78.081427       20 2.1486995e-15            9            1           10 1.0254808e-16 
    2890    78.262897       20 2.1557971e-15            9            1           10 1.0249677e-16 
    2895    78.442709       20 2.1629197e-15            9            1           10 1.024455e-16 
    2900    78.625269       20 2.1700674e-15            9            1           10 1.0239424e-16 
    2905     78.80453       20 2.1772403e-15            9            1           10 1.0234301e-16 
    2910    78.978644       20 2.1844384e-15            9            1           10 1.0229181e-16 
    2915    79.159414       20 2.1916619e-15            9            1           10 1.0224064e-16 
    2920    79.340372       21 2.1989109e-15           10            1           10 1.0218948e-16 
    2925    79.505585       21 2.2061854e-15           10            1           10 1.0213836e-16 
    2930    79.665976       21 2.2134856e-15           10            1           10 1.0208726e-16 
    2935    79.842658       22 2.2208114e-15           11            1           10 1.0203619e-16 
    2940    80.010956       22 2.2281631e-15           11            1           10 1.0198514e-16 
    2945    80.173408       22 2.2355407e-15           11            1           10 1.0193411e-16 
    2950    80.352816       22 2.2429443e-15           11            1           10 1.0188312e-16 
    2955    80.537561       22 2.2503739e-15           11            1           10 1.0183214e-16 
    2960    80.717546       22 2.2578298e-15           11            1           10 1.017812e-16 
    2965    80.893616       22 2.2653118e-15           11            1           10 1.0173028e-16 
    2970     81.09447       22 2.2728203e-15           11            1           10 1.0167938e-16 
    2975    81.308488       22 2.2803552e-15           11            1           10 1.0162851e-16 
    2980    81.510846       22 2.2879166e-15           11            1           10 1.0157767e-16 
    2985     81.69016       22 2.2955047e-15           11            1           10 1.0152685e-16 
    2990    81.871485       22 2.3031195e-15           11            1           10 1.0147605e-16 
    2995    82.040115       23 2.3107612e-15           11            1           11 1.0142528e-16 
    3000    82.228496       24 2.3184297e-15           12            1           11 1.0137454e-16 
    3005    82.387311       24 2.3261252e-15           12            1           11 1.0132382e-16 
    3010    82.560773       24 2.3338479e-15           12            1           11 1.0127313e-16 
    3015    82.705204       24 2.3415977e-15           12            1           11 1.0122246e-16 
    3020    82.858777       24 2.3493749e-15           12            1           11 1.0117182e-16 
    3025    83.016991       24 2.3571794e-15           12            1           11 1.0112121e-16 
    3030    83.176897       24 2.3650114e-15           12            1           11 1.0107061e-16 
    3035    83.350963       24 2.372871e-15           12            1           11 1.0102005e-16 
    3040    83.527345       24 2.3807583e-15           12            1           11 1.0096951e-16 
    3045    83.704968       24 2.3886733e-15           12            1           11 1.0091899e-16 
    3050    83.885341       25 2.3966162e-15           13            1           11 1.008685e-16 
    3055    84.078499       25 2.4045871e-15           13            1           11 1.0081804e-16 
    3060    84.269467       25 2.4125861e-15           13            1           11 1.007676e-16 
    3065    84.481758       25 2.4206132e-15           13            1           11 1.0071719e-16 
    3070      84.6769       25 2.4286685e-15           13            1           11 1.006668e-16 
    3075    84.859108       26 2.4367522e-15           14            1           11 1.0061643e-16 
    3080    85.055874       26 2.4448644e-15           14            1           11 1.005661e-16 
    3085    85.238132       26 2.4530052e-15           14            1           11 1.0051578e-16 
    3090    85.419129       26 2.4611746e-15           14            1           11 1.0046549e-16 
    3095    85.598424       26 2.4693727e-15           14            1           11 1.0041523e-16 
    3100    85.791186       26 2.4775997e-15           14            1           11 1.0036499e-16 
    3105    85.975424       26 2.4858557e-15           14            1           11 1.0031478e-16 
    3110    86.180467       26 2.4941407e-15           14            1           11 1.0026459e-16 
    3115    86.369139       26 2.5024549e-15           14            1           11 1.0021443e-16 
    3120    86.549723       26 2.5107984e-15           14            1           11 1.0016429e-16 
    3125    86.722688       26 2.5191712e-15           14            1           11 1.0011418e-16 
    3130    86.894162       26 2.5275735e-15           14            1           11 1.0006409e-16 
    3135    87.070162       26 2.5360054e-15           14            1           11 1.0001403e-16 
    3140    87.269868       26 2.5444669e-15           14            1           11 9.9963996e-17 
    3145    87.463947       26 2.5529583e-15           14            1           11 9.9913984e-17 
    3150    87.684381       27 2.5614795e-15           14            1           12 9.9863997e-17 
    3155    87.901735       27 2.5700307e-15           14            1           12 9.9814035e-17 
    3160     88.11462       27 2.578612e-15           14            1           12 9.9764098e-17 
    3165    88.338302       27 2.5872234e-15           14            1           12 9.9714186e-17 
    3170    88.563911       27 2.5958652e-15           14            1           12 9.9664299e-17 
    3175    88.823547       27 2.6045374e-15           14            1           12 9.9614437e-17 
    3180     89.07235       27 2.6132401e-15           14            1           12  9.95646e-17 
    3185    89.295471       27 2.6219734e-15           14            1           12 9.9514788e-17 
    3190    89.565829       27 2.6307375e-15           14            1           12 9.9465001e-17 
    3195    89.801782       27 2.6395324e-15           14            1           12 9.9415238e-17 
    3200    90.045848       27 2.6483582e-15           14            1           12 9.9365501e-17 
    3205    90.284954       27 2.6572151e-15           14            1           12 9.9315788e-17 
    3210    90.540144       27 2.6661032e-15           14            1           12 9.9266101e-17 
    3215     90.78707       27 2.6750225e-15           14            1           12 9.9216438e-17 
    3220    90.998542       27 2.6839732e-15           14            1           12  9.91668e-17 
    3225    91.255996       27 2.6929554e-15           14            1           12 9.9117187e-17 
    3230    91.472671       28 2.7019692e-15           15            1           12 9.9067598e-17 
    3235    91.703429       28 2.7110146e-15           15            1           12 9.9018035e-17 
    3240      91.9312       28 2.7200919e-15           15            1           12 9.8968496e-17 
    3245      92.1799       28 2.7292012e-15           15            1           12 9.8918982e-17 
    3250     92.43682       28 2.7383425e-15           15            1           12 9.8869493e-17 
    3255    92.621514       28 2.7475159e-15           15            1           12 9.8820029e-17 
    3260    92.839152       28 2.7567216e-15           15            1           12 9.8770589e-17 
    3265    93.035079       28 2.7659597e-15           15            1           12 9.8721174e-17 
    3270    93.223153       28 2.7752303e-15           15            1           12 9.8671784e-17 
    3275    93.406979       28 2.7845334e-15           15            1           12 9.8622418e-17 
    3280    93.591024       28 2.7938693e-15           15            1           12 9.8573078e-17 
    3285     93.79319       28 2.8032381e-15           15            1           12 9.8523762e-17 
    3290     93.96366       28 2.8126397e-15           15            1           12 9.847447e-17 
    3295    94.146711       28 2.8220745e-15           15            1           12 9.8425203e-17 
    3300    94.327389       28 2.8315424e-15           15            1           12 9.8375961e-17 
    3305    94.513134       28 2.8410436e-15           15            1           12 9.8326744e-17 
    3310    94.695662       30 2.8505783e-15           15            1           14 9.8277551e-17 
    3315    94.882475       30 2.8601464e-15           15            1           14 9.8228383e-17 
    3320    95.060937       30 2.8697482e-15           15            1           14 9.8179239e-17 
    3325    95.228492       30 2.8793838e-15           15            1           14 9.813012e-17 
    3330     95.42584       30 2.8890533e-15           15            1           14 9.8081026e-17 
    3335    95.650902       30 2.8987567e-15           15            1           14 9.8031956e-17 
    3340    95.863446       30 2.9084943e-15           15            1           14 9.798291e-17 
    3345    96.172825       30 2.9182661e-15           15            1           14 9.7933889e-17 
    3350    96.368012       30 2.9280722e-15           15            1           14 9.7884893e-17 
    3355    96.541414       30 2.9379129e-15           15            1           14 9.7835921e-17 
    3360    96.721366       30 2.9477881e-15           15            1           14 9.7786974e-17 
    3365    96.892396       30 2.9576981e-15           15            1           14 9.7738051e-17 
    3370    97.077943       30 2.9676429e-15           15            1           14 9.7689153e-17 
    3375    97.259063       30 2.9776226e-15           15            1           14 9.7640279e-17 
    3380     97.43689       30 2.9876375e-15           15            1           14 9.759143e-17 
    3385    97.618239       30 2.9976875e-15           15            1           14 9.7542605e-17 
    3390    97.791077       30 3.0077729e-15           15            1           14 9.7493804e-17 
    3395    97.967215       30 3.0178937e-15           15            1           14 9.7445028e-17 
    3400    98.156615       30 3.0280501e-15           15            1           14 9.7396276e-17 
    3405    98.330576       30 3.0382422e-15           15            1           14 9.7347549e-17 
    3410    98.490517       30 3.0484702e-15           15            1           14 9.7298846e-17 
    3415    98.684203       30 3.0587341e-15           15            1           14 9.7250167e-17 
    3420    98.840567       30 3.069034e-15           15            1           14 9.7201513e-17 
    3425    99.026237       30 3.0793702e-15           15            1           14 9.7152883e-17 
    3430    99.215779       30 3.0897427e-15           15            1           14 9.7104278e-17 
    3435    99.399305       30 3.1001517e-15           15            1           14 9.7055696e-17 
    3440    99.612134       30 3.1105972e-15           15            1           14 9.7007139e-17 
    3445    99.821452       30 3.1210794e-15           15            1           14 9.6958607e-17 
    3450    100.03114       30 3.1315985e-15           15            1           14 9.6910098e-17 
    3455    100.21727       30 3.1421546e-15           15            1           14 9.6861614e-17 
    3460    100.41004       30 3.1527477e-15           15            1           14 9.6813154e-17 
    3465     100.6129       30 3.1633781e-15           15            1           14 9.6764719e-17 
    3470    100.81429       30 3.1740459e-15           15            1           14 9.6716307e-17 
    3475    101.02259       30 3.1847511e-15           15            1           14 9.666792e-17 
    3480    101.25711       30 3.1954939e-15           15            1           14 9.6619557e-17 
    3485    101.50118       30 3.2062745e-15           15            1           14 9.6571219e-17 
    3490    101.67902       30 3.217093e-15           15            1           14 9.6522904e-17 
    3495    101.85949       30 3.2279495e-15           15            1           14 9.6474614e-17 
    3500    102.05112       30 3.2388442e-15           15            1           14 9.6426347e-17 
    3505    102.23158       30 3.2497771e-15           15            1           14 9.6378105e-17 
    3510    102.43825       30 3.2607484e-15           15            1           14 9.6329887e-17 
    3515    102.65258       30 3.2717583e-15           15            1           14 9.6281693e-17 
    3520    102.82597       30 3.2828069e-15           15            1           14 9.6233524e-17 
    3525    103.00794       31 3.2938943e-15           15            1           15 9.6185378e-17 
    3530     103.1643       31 3.3050206e-15           15            1           15 9.6137257e-17 
    3535    103.34555       31 3.3161861e-15           15            1           15 9.6089159e-17 
    3540    103.52764       31 3.3273907e-15           15            1           15 9.6041086e-17 
    3545    103.71651       31 3.3386348e-15           15            1           15 9.5993036e-17 
    3550    103.92089       31 3.3499183e-15           15            1           15 9.5945011e-17 
    3555    104.08795       31 3.3612415e-15           15            1           15 9.589701e-17 
    3560    104.26856       31 3.3726044e-15           15            1           15 9.5849033e-17 
    3565    104.45113       31 3.3840073e-15           15            1           15 9.5801079e-17 
    3570     104.6344       31 3.3954502e-15           15            1           15 9.575315e-17 
    3575    104.80895       31 3.4069334e-15           15            1           15 9.5705245e-17 
    3580    104.98954       31 3.4184568e-15           15            1           15 9.5657363e-17 
    3585    105.18406       31 3.4300208e-15           15            1           15 9.5609506e-17 
    3590    105.37717       31 3.4416254e-15           15            1           15 9.5561673e-17 
    3595     105.5603       31 3.4532707e-15           15            1           15 9.5513863e-17 
    3600    105.74125       32 3.4649569e-15           15            1           16 9.5466078e-17 
    3605    105.91541       32 3.4766842e-15           15            1           16 9.5418316e-17 
    3610    106.09493       32 3.4884527e-15           15            1           16 9.5370578e-17 
    3615    106.27525       32 3.5002625e-15           15            1           16 9.5322864e-17 
    3620    106.45394       32 3.5121138e-15           15            1           16 9.5275174e-17 
    3625    106.63789       32 3.5240067e-15           15            1           16 9.5227508e-17 
    3630    106.82271       33 3.5359414e-15           15            1           17 9.5179866e-17 
    3635    107.00867       33 3.547918e-15           15            1           17 9.5132247e-17 
    3640    107.20935       33 3.5599367e-15           15            1           17 9.5084653e-17 
    3645    107.39832       33 3.5719976e-15           15            1           17 9.5037082e-17 
    3650    107.57435       33 3.5841008e-15           15            1           17 9.4989535e-17 
    3655    107.75862       34 3.5962465e-15           16            1           17 9.4942012e-17 
    3660    107.93708       34 3.6084349e-15           16            1           17 9.4894512e-17 
    3665     108.1227       34 3.6206661e-15           16            1           17 9.4847036e-17 
    3670    108.30339       34 3.6329403e-15           16            1           17 9.4799584e-17 
    3675    108.48419       34 3.6452576e-15           16            1           17 9.4752156e-17 
    3680    108.66805       34 3.6576181e-15           16            1           17 9.4704752e-17 
    3685    108.85352       34 3.670022e-15           16            1           17 9.4657371e-17 
    3690    109.03444       34 3.6824695e-15           16            1           17 9.4610014e-17 
    3695    109.30803       34 3.6949606e-15           16            1           17 9.456268e-17 
    3700    109.53358       34 3.7074957e-15           16            1           17 9.4515371e-17 
    3705    109.73196       34 3.7200747e-15           16            1           17 9.4468085e-17 
    3710    109.94068       34 3.732698e-15           16            1           17 9.4420822e-17 
    3715    110.13825       34 3.7453655e-15           16            1           17 9.4373584e-17 
    3720    110.35234       34 3.7580776e-15           16            1           17 9.4326369e-17 
    3725    110.58189       35 3.7708342e-15           17            1           17 9.4279177e-17 
    3730    110.77732       35 3.7836357e-15           17            1           17 9.4232009e-17 
    3735     110.9673       35 3.7964821e-15           17            1           17 9.4184865e-17 
    3740    111.15853       35 3.8093736e-15           17            1           17 9.4137744e-17 
    3745    111.35851       36 3.8223104e-15           18            1           17 9.4090647e-17 
    3750    111.57367       37 3.8352925e-15           19            1           17 9.4043574e-17 
    3755    111.79024       37 3.8483203e-15           19            1           17 9.3996524e-17 
    3760    111.97904       37 3.8613938e-15           19            1           17 9.3949497e-17 
    3765    112.19967       37 3.8745132e-15           19            1           17 9.3902494e-17 
    3770    112.45401       37 3.8876787e-15           19            1           17 9.3855515e-17 
    3775    112.65014       37 3.9008903e-15           19            1           17 9.3808559e-17 
    3780     112.8393       37 3.9141484e-15           19            1           17 9.3761627e-17 
    3785    113.03132       37 3.927453e-15           19            1           17 9.3714718e-17 
    3790    113.22198       37 3.9408043e-15           19            1           17 9.3667832e-17 
    3795    113.47735       37 3.9542025e-15           19            1           17 9.362097e-17 
    3800    113.68116       37 3.9676477e-15           19            1           17 9.3574132e-17 
    3805    113.90689       37 3.9811401e-15           19            1           17 9.3527317e-17 
    3810    114.15529       37 3.9946798e-15           19            1           17 9.3480525e-17 
    3815    114.36023       38 4.0082671e-15           20            1           17 9.3433757e-17 
    3820    114.58621       38 4.0219021e-15           20            1           17 9.3387012e-17 
    3825    114.78117       39 4.035585e-15           21            1           17 9.334029e-17 
    3830    114.97697       39 4.0493159e-15           21            1           17 9.3293592e-17 
    3835    115.19959       39 4.0630949e-15           21            1           17 9.3246917e-17 
    3840    115.40637       39 4.0769224e-15           21            1           17 9.3200266e-17 
    3845    115.61296       39 4.0907983e-15           21            1           17 9.3153638e-17 
    3850    115.80377       40 4.104723e-15           22            1           17 9.3107033e-17 
    3855     115.9995       40 4.1186965e-15           22            1           17 9.3060452e-17 
    3860    116.20373       40 4.1327191e-15           22            1           17 9.3013893e-17 
    3865    116.41752       40 4.1467909e-15           22            1           17 9.2967359e-17 
    3870     116.6287       40 4.1609121e-15           22            1           17 9.2920847e-17 
    3875    116.83633       40 4.1750829e-15           22            1           17 9.2874359e-17 
    3880    117.01839       40 4.1893034e-15           22            1           17 9.2827894e-17 
    3885       117.21       40 4.2035738e-15           22            1           17 9.2781452e-17 
    3890    117.40725       40 4.2178942e-15           22            1           17 9.2735033e-17 
    3895    117.59629       41 4.232265e-15           22            1           18 9.2688638e-17 
    3900    117.78478       41 4.2466861e-15           22            1           18 9.2642266e-17 
[...]
    4045    123.30393       44 4.6876508e-15           23            1           20 9.130752e-17 
    4050    123.48968       44 4.7036698e-15           23            1           20 9.1261839e-17 
    4055    123.67174       44 4.719745e-15           23            1           20 9.121618e-17 
    4060    123.86176       44 4.7358765e-15           23            1           20 9.1170545e-17 
    4065    124.04674       44 4.7520647e-15           23            1           20 9.1124932e-17 
    4070    124.22703       44 4.7683097e-15           23            1           20 9.1079343e-17 
    4075    124.41342       44 4.7846116e-15           23            1           20 9.1033776e-17 
    4080    124.63856       44 4.8009707e-15           23            1           20 9.0988231e-17 
    4085    124.85115       45 4.8173872e-15           24            1           20 9.094271e-17 
    4090    125.02569       45 4.8338613e-15           24            1           20 9.0897211e-17 
    4095    125.20932       45 4.8503932e-15           24            1           20 9.0851736e-17 
    4100    125.39272       45 4.8669831e-15           24            1           20 9.0806282e-17 
    4105    125.57628       45 4.8836312e-15           24            1           20 9.0760852e-17 
    4110    125.79648       46 4.9003376e-15           24            1           21 9.0715444e-17 
    4115    125.98501       46 4.9171027e-15           24            1           21 9.067006e-17 
    4120    126.16662       46 4.9339266e-15           24            1           21 9.0624697e-17 
    4125    126.35192       46 4.9508094e-15           24            1           21 9.0579358e-17 
    4130    126.53771       47 4.9677515e-15           24            1           22 9.0534041e-17 
    4135    126.71923       49 4.984753e-15           24            1           24 9.0488747e-17 
    4140    126.90534       50 5.0018142e-15           25            1           24 9.0443475e-17 
    4145    127.10018       50 5.0189352e-15           25            1           24 9.0398226e-17 
    4150    127.27588       51 5.0361162e-15           26            1           24   9.0353e-17 
    4155    127.46957       51 5.0533575e-15           26            1           24 9.0307797e-17 
    4160    127.65593       51 5.0706592e-15           26            1           24 9.0262616e-17 
    4165    127.83937       51 5.0880217e-15           26            1           24 9.0217457e-17 
    4170    128.01947       51 5.105445e-15           26            1           24 9.0172321e-17 
    4175    128.20099       51 5.1229294e-15           26            1           24 9.0127208e-17 
    4180    128.38902       53 5.1404752e-15           28            1           24 9.0082118e-17 
    4185    128.56981       53 5.1580825e-15           28            1           24 9.003705e-17 
    4190    128.75452       53 5.1757515e-15           28            1           24 8.9992004e-17 
    4195    128.94333       53 5.1934825e-15           28            1           24 8.9946981e-17 
    4200    129.12941       53 5.2112757e-15           28            1           24 8.9901981e-17 
    4205    129.32488       53 5.2291313e-15           28            1           24 8.9857003e-17 
    4210    129.51675       53 5.2470495e-15           28            1           24 8.9812047e-17 
    4215    129.72623       53 5.2650306e-15           28            1           24 8.9767114e-17 
    4220    129.92011       54 5.2830747e-15           28            1           25 8.9722204e-17 
    4225    130.17539       55 5.3011821e-15           29            1           25 8.9677316e-17 
    4230    130.36186       55 5.3193529e-15           29            1           25 8.963245e-17 
    4235    130.53847       55 5.3375875e-15           29            1           25 8.9587607e-17 
    4240    130.71995       55 5.3558861e-15           29            1           25 8.9542786e-17 
    4245    130.90643       55 5.3742488e-15           29            1           25 8.9497988e-17 
    4250    131.09674       55 5.3926759e-15           29            1           25 8.9453212e-17 
    4255    131.29154       55 5.4111676e-15           29            1           25 8.9408459e-17 
    4260    131.47645       55 5.4297242e-15           29            1           25 8.9363728e-17 
    4265    131.65655       55 5.4483458e-15           29            1           25 8.9319019e-17 
    4270    131.83806       55 5.4670327e-15           29            1           25 8.9274333e-17 
    4275    132.02265       55 5.4857851e-15           29            1           25 8.9229669e-17 
    4280    132.20869       55 5.5046033e-15           29            1           25 8.9185027e-17 
    4285    132.39182       55 5.5234875e-15           29            1           25 8.9140408e-17 
    4290    132.58347       55 5.5424379e-15           29            1           25 8.9095811e-17 
    4295    132.76815       55 5.5614548e-15           29            1           25 8.9051237e-17 
    4300    132.94821       55 5.5805383e-15           29            1           25 8.9006684e-17 
    4305     133.1324       55 5.5996887e-15           29            1           25 8.8962154e-17 
    4310    133.31721       55 5.6189063e-15           29            1           25 8.8917647e-17 
    4315    133.50188       56 5.6381913e-15           29            1           26 8.8873161e-17 
    4320    133.68405       56 5.6575439e-15           29            1           26 8.8828698e-17 
    4325    133.86498       56 5.6769643e-15           29            1           26 8.8784257e-17 
    4330    134.05268       56 5.6964528e-15           29            1           26 8.8739838e-17 
    4335    134.23368       57 5.7160097e-15           30            1           26 8.8695442e-17 
    4340    134.41595       57 5.7356351e-15           30            1           26 8.8651067e-17 
    4345    134.60052       57 5.7553293e-15           30            1           26 8.8606715e-17 
    4350    134.78071       57 5.7750926e-15           30            1           26 8.8562385e-17 
    4355    134.96127       57 5.7949251e-15           30            1           26 8.8518078e-17 
    4360    135.15225       57 5.8148272e-15           30            1           26 8.8473792e-17 
    4365    135.33419       57 5.8347991e-15           30            1           26 8.8429529e-17 
    4370    135.51568       57 5.854841e-15           30            1           26 8.8385287e-17 
    4375    135.69771       57 5.8749531e-15           30            1           26 8.8341068e-17 
    4380    135.88337       57 5.8951358e-15           30            1           26 8.8296871e-17 
    4385    136.07012       57 5.9153892e-15           30            1           26 8.8252696e-17 
    4390    136.25561       57 5.9357136e-15           30            1           26 8.8208543e-17 
    4395    136.43677       57 5.9561093e-15           30            1           26 8.8164413e-17 
    4400     136.6191       57 5.9765765e-15           30            1           26 8.8120304e-17 
    4405    136.80051       57 5.9971154e-15           30            1           26 8.8076217e-17 
    4410    136.98436       57 6.0177263e-15           30            1           26 8.8032153e-17 
    4415    137.16823       57 6.0384095e-15           30            1           26 8.798811e-17 
    4420    137.34823       59 6.0591652e-15           31            1           27 8.794409e-17 
    4425    137.53394       59 6.0799936e-15           31            1           27 8.7900092e-17 
    4430    137.72348       59 6.1008951e-15           31            1           27 8.7856115e-17 
    4435    137.90418       59 6.1218698e-15           31            1           27 8.7812161e-17 
    4440    138.08205       59 6.142918e-15           31            1           27 8.7768228e-17 
    4445    138.26796       59 6.1640401e-15           31            1           27 8.7724318e-17 
    4450    138.44967       59 6.1852361e-15           31            1           27 8.768043e-17 
    4455    138.62969       59 6.2065065e-15           31            1           27 8.7636563e-17 
    4460    138.82685       59 6.2278514e-15           31            1           27 8.7592718e-17 
    4465     139.0118       61 6.2492712e-15           32            1           28 8.7548896e-17 
    4470    139.19563       61 6.270766e-15           32            1           28 8.7505095e-17 
    4475    139.37938       61 6.2923362e-15           32            1           28 8.7461316e-17 
    4480    139.55935       61 6.313982e-15           32            1           28 8.7417559e-17 
    4485    139.74231       61 6.3357037e-15           32            1           28 8.7373824e-17 
    4490    139.93236       61 6.3575015e-15           32            1           28 8.7330111e-17 
    4495    140.11339       61 6.3793757e-15           32            1           28 8.728642e-17 
    4500    140.29127       61 6.4013266e-15           32            1           28 8.7242751e-17 
    4505     140.4716       61 6.4233544e-15           32            1           28 8.7199103e-17 
    4510    140.65969       61 6.4454594e-15           32            1           28 8.7155478e-17 
    4515    140.84164       61 6.4676419e-15           32            1           28 8.7111874e-17 
    4520    141.02207       61 6.4899022e-15           32            1           28 8.7068292e-17 
    4525    141.20499       61 6.5122404e-15           32            1           28 8.7024731e-17 
    4530    141.38793       61 6.534657e-15           32            1           28 8.6981193e-17 
    4535    141.56742       61 6.5571522e-15           32            1           28 8.6937676e-17 
    4540    141.75233       61 6.5797261e-15           32            1           28 8.6894181e-17 
    4545    141.95163       61 6.6023792e-15           32            1           28 8.6850708e-17 
    4550      142.137       62 6.6251117e-15           32            1           29 8.6807257e-17 
    4555    142.31865       63 6.6479239e-15           32            1           30 8.6763827e-17 
    4560    142.51098       64 6.670816e-15           33            1           30 8.6720419e-17 
    4565    142.70146       65 6.6937884e-15           34            1           30 8.6677033e-17 
    4570    142.88393       65 6.7168413e-15           34            1           30 8.6633669e-17 
    4575    143.06662       66 6.7399749e-15           34            1           31 8.6590326e-17 
    4580    143.25918       66 6.7631896e-15           34            1           31 8.6547005e-17 
    4585    143.46488       66 6.7864857e-15           34            1           31 8.6503705e-17 
    4590    143.65167       66 6.8098635e-15           34            1           31 8.6460427e-17 
    4595    143.83715       66 6.8333232e-15           34            1           31 8.6417171e-17 
    4600    144.02387       66 6.856865e-15           34            1           31 8.6373937e-17 
    4605    144.21092       66 6.8804894e-15           34            1           31 8.6330724e-17 
    4610    144.39536       66 6.9041966e-15           34            1           31 8.6287533e-17 
    4615    144.58422       67 6.9279869e-15           35            1           31 8.6244363e-17 
    4620    144.77315       67 6.9518606e-15           35            1           31 8.6201215e-17 
    4625    144.95989       67 6.9758179e-15           35            1           31 8.6158088e-17 
    4630    145.14616       67 6.9998591e-15           35            1           31 8.6114984e-17 
    4635    145.33018       67 7.0239847e-15           35            1           31  8.60719e-17 
    4640    145.51889       67 7.0481947e-15           35            1           31 8.6028839e-17 
    4645    145.70215       67 7.0724896e-15           35            1           31 8.5985798e-17 
    4650    145.89392       67 7.0968697e-15           35            1           31 8.594278e-17 
    4655    146.07986       67 7.1213352e-15           35            1           31 8.5899782e-17 
    4660    146.27454       67 7.1458864e-15           35            1           31 8.5856807e-17 
    4665    146.46866       67 7.1705236e-15           35            1           31 8.5813853e-17 
    4670    146.65544       67 7.1952472e-15           35            1           31 8.577092e-17 
    4675    146.83924       68 7.2200574e-15           35            1           32 8.5728009e-17 
    4680    147.02214       69 7.2449546e-15           35            1           33 8.5685119e-17 
    4685    147.21052       69 7.269939e-15           35            1           33 8.5642251e-17 
    4690    147.40321       69 7.295011e-15           35            1           33 8.5599404e-17 
    4695    147.59689       69 7.3201708e-15           35            1           33 8.5556579e-17 
    4700    147.78095       69 7.3454188e-15           35            1           33 8.5513775e-17 
    4705    147.96134       69 7.3707552e-15           35            1           33 8.5470992e-17 
    4710    148.14831       69 7.3961805e-15           35            1           33 8.5428231e-17 
    4715    148.33426       69 7.4216948e-15           35            1           33 8.5385491e-17 
    4720    148.52411       70 7.4472986e-15           36            1           33 8.5342773e-17 
    4725    148.73604       70 7.472992e-15           36            1           33 8.5300076e-17 
    4730    148.91989       70 7.4987755e-15           36            1           33 8.5257401e-17 
    4735    149.10694       70 7.5246493e-15           36            1           33 8.5214746e-17 
    4740    149.30377       71 7.5506138e-15           36            1           34 8.5172113e-17 
    4745     149.5069       71 7.5766693e-15           36            1           34 8.5129502e-17 
    4750    149.70536       71 7.6028161e-15           36            1           34 8.5086911e-17 
    4755    149.88825       71 7.6290545e-15           36            1           34 8.5044343e-17 
    4760     150.0871       71 7.6553848e-15           36            1           34 8.5001795e-17 
    4765    150.28659       71 7.6818074e-15           36            1           34 8.4959268e-17 
    4770    150.47376       72 7.7083225e-15           37            1           34 8.4916763e-17 
    4775    150.67196       72 7.7349306e-15           37            1           34 8.487428e-17 
    4780    150.90595       72 7.7616319e-15           37            1           34 8.4831817e-17 
    4785    151.14368       73 7.7884267e-15           37            1           35 8.4789376e-17 
    4790    151.35983       74 7.8153155e-15           38            1           35 8.4746955e-17 
    4795    151.57127       74 7.8422984e-15           38            1           35 8.4704557e-17 
    4800    151.78137       74 7.8693759e-15           38            1           35 8.4662179e-17 
    4805    152.01277       74 7.8965483e-15           38            1           35 8.4619822e-17 
    4810    152.22442       74 7.9238158e-15           38            1           35 8.4577487e-17 
    4815    152.47549       74 7.9511789e-15           38            1           35 8.4535173e-17 
    4820    152.67591       74 7.9786379e-15           38            1           35 8.449288e-17 
    4825    152.88052       74 8.006193e-15           38            1           35 8.4450608e-17 
    4830     153.0753       75 8.0338448e-15           39            1           35 8.4408358e-17 
    4835    153.27955       75 8.0615934e-15           39            1           35 8.4366128e-17 
    4840    153.47627       75 8.0894392e-15           39            1           35 8.432392e-17 
    4845    153.66855       75 8.1173826e-15           39            1           35 8.4281733e-17 
    4850    153.86439       75 8.1454238e-15           39            1           35 8.4239567e-17 
    4855    154.05996       75 8.1735633e-15           39            1           35 8.4197422e-17 
    4860    154.28144       75 8.2018015e-15           39            1           35 8.4155298e-17 
    4865    154.46951       75 8.2301385e-15           39            1           35 8.4113195e-17 
    4870    154.66097       75 8.2585748e-15           39            1           35 8.4071113e-17 
    4875    154.84554       75 8.2871107e-15           39            1           35 8.4029052e-17 
    4880    155.05345       77 8.3157467e-15           41            1           35 8.3987012e-17 
    4885    155.24818       78 8.3444829e-15           42            1           35 8.3944994e-17 
    4890     155.4353       78 8.3733198e-15           42            1           35 8.3902996e-17 
    4895    155.62362       78 8.4022578e-15           42            1           35 8.3861019e-17 
    4900    155.81528       79 8.4312971e-15           43            1           35 8.3819064e-17 
    4905    156.00238       79 8.4604381e-15           43            1           35 8.3777129e-17 
    4910    156.18644       81 8.4896813e-15           44            1           36 8.3735215e-17 
    4915    156.37224       82 8.5190269e-15           44            1           37 8.3693323e-17 
    4920    156.56254       82 8.5484753e-15           44            1           37 8.3651451e-17 
    4925    156.76903       83 8.5780269e-15           44            1           38  8.36096e-17 
    4930     156.9799       83 8.607682e-15           44            1           38 8.356777e-17 
    4935     157.2095       83 8.6374409e-15           44            1           38 8.3525961e-17 
    4940    157.43315       84 8.6673042e-15           44            1           39 8.3484173e-17 
    4945    157.63864       84 8.697272e-15           44            1           39 8.3442406e-17 
    4950    157.84388       84 8.7273449e-15           44            1           39 8.340066e-17 
    4955    158.06347       84 8.757523e-15           44            1           39 8.3358935e-17 
    4960    158.26725       84 8.787807e-15           44            1           39 8.331723e-17 
    4965    158.47925       84 8.8181969e-15           44            1           39 8.3275547e-17 
    4970    158.69308       84 8.8486934e-15           44            1           39 8.3233884e-17 
    4975    158.91473       87 8.8792967e-15           46            1           40 8.3192242e-17 
    4980     159.1186       87 8.9100072e-15           46            1           40 8.3150621e-17 
    4985    159.32228       87 8.9408252e-15           46            1           40 8.3109021e-17 
    4990    159.53428       87 8.9717513e-15           46            1           40 8.3067441e-17 
    4995    159.74434       87 9.0027856e-15           46            1           40 8.3025883e-17 
    5000    160.02791       87 9.0339287e-15           46            1           40 8.2984345e-17 
Loop time of 160.028 on 1 procs for 5000 steps with 87 atoms

Performance: 97182988.128 tau/day, 31.245 timesteps/s
94.5% CPU use with 1 MPI tasks x no OpenMP threads

MPI task timing breakdown:
Section |  min time  |  avg time  |  max time  |%varavg| %total
---------------------------------------------------------------
Pair    | 0.066652   | 0.066652   | 0.066652   |   0.0 |  0.04
Neigh   | 12.639     | 12.639     | 12.639     |   0.0 |  7.90
Comm    | 0.10352    | 0.10352    | 0.10352    |   0.0 |  0.06
Output  | 0.076488   | 0.076488   | 0.076488   |   0.0 |  0.05
Modify  | 147.11     | 147.11     | 147.11     |   0.0 | 91.93
Other   |            | 0.03045    |            |       |  0.02

Nlocal:    87 ave 87 max 87 min
Histogram: 1 0 0 0 0 0 0 0 0 0
Nghost:    0 ave 0 max 0 min
Histogram: 1 0 0 0 0 0 0 0 0 0
Neighs:    377 ave 377 max 377 min
Histogram: 1 0 0 0 0 0 0 0 0 0

Total # of neighbors = 377
Ave neighs/atom = 4.33333
Neighbor list builds = 5000
Dangerous builds = 0


Total wall time: 0:02:43
