ITEM: TIMESTEP
0
ITEM: NUMBER OF ATOMS
5
ITEM: BOX BOUNDS ff ff ff
1e-05 5e-05
1e-05 5e-05
1e-05 5e-05
ITEM: ATOMS id type diameter x y z vx vy vz fx fy fz 
4 4 1.0539e-06 3e-05 3e-05 2.9e-05 0 0 0 -nan -nan -nan 
2 2 1.2839e-06 3e-05 2.9e-05 3e-05 0 0 0 -nan -nan -nan 
3 3 1.0283e-06 3e-05 3e-05 3e-05 0 0 0 -nan -nan -nan 
1 1 1.0839e-06 3e-05 3.1e-05 3e-05 0 0 0 -nan -nan -nan 
5 5 1.4839e-06 3e-05 3e-05 3.1e-05 0 0 0 -nan -nan -nan 
