ITEM: TIMESTEP
0
ITEM: NUMBER OF ATOMS
5
ITEM: BOX BOUNDS ff ff ff
0 9e-05
0 9e-05
0 9e-05
ITEM: ATOMS id type diameter x y z vx vy vz fx fy fz 
4 4 1.0539e-06 5e-05 5e-05 4.8e-05 0 0 0 0 0 0 
2 2 1.2839e-06 5e-05 4.8e-05 5e-05 0 0 0 0 0 0 
3 3 1.0283e-06 5e-05 5e-05 5e-05 0 0 0 0 0 0 
1 1 1.0839e-06 5e-05 5.2e-05 5e-05 0 0 0 0 0 0 
5 5 1.4839e-06 5e-05 5e-05 5.2e-05 0 0 0 0 0 0 
ITEM: TIMESTEP
1000
ITEM: NUMBER OF ATOMS
8
ITEM: BOX BOUNDS ff ff ff
0 9e-05
0 9e-05
0 9e-05
ITEM: ATOMS id type diameter x y z vx vy vz fx fy fz 
4 4 1.04701e-06 5e-05 5e-05 4.8e-05 0 0 0 0 0 0 
2 2 1.16911e-06 5.00462e-05 4.7512e-05 4.9717e-05 8.16025e-14 -8.62192e-13 -4.99966e-13 5.86305e-07 -6.19476e-06 -3.5922e-06 
3 3 1.12876e-06 5e-05 5e-05 5e-05 0 0 0 0 0 0 
1 1 1.37448e-06 5.00002e-05 5.19983e-05 4.9999e-05 8.16025e-14 -8.62192e-13 -4.99966e-13 4.41241e-07 -4.66205e-06 -2.70342e-06 
5 5 1.4839e-06 5e-05 5e-05 5.2e-05 0 0 0 0 0 0 
6 4 9.04215e-07 4.99094e-05 5.29573e-05 5.05551e-05 -8.16025e-14 8.62192e-13 4.99966e-13 -4.41241e-07 4.66205e-06 2.70342e-06 
7 2 1.10166e-06 4.99565e-05 4.846e-05 5.02667e-05 -8.16025e-14 8.62192e-13 4.99966e-13 -5.86305e-07 6.19476e-06 3.5922e-06 
8 4 9.86742e-07 4.94848e-05 5.28285e-05 4.92796e-05 0 0 0 0 0 0 
ITEM: TIMESTEP
2000
ITEM: NUMBER OF ATOMS
11
ITEM: BOX BOUNDS ff ff ff
0 9e-05
0 9e-05
0 9e-05
ITEM: ATOMS id type diameter x y z vx vy vz fx fy fz 
4 4 1.04017e-06 5e-05 5e-05 4.8e-05 0 0 0 0 0 0 
8 4 9.80292e-07 4.94806e-05 5.28354e-05 4.92737e-05 -4.24567e-13 6.85589e-13 -5.91363e-13 -5.2115e-05 8.4155e-05 -7.25889e-05 
2 2 1.30375e-06 5.0047e-05 4.75034e-05 4.9712e-05 8.16025e-14 -8.62192e-13 -4.99966e-13 2.39386e-06 -2.5293e-05 -1.46668e-05 
9 1 1.39125e-06 4.97235e-05 5.24432e-05 4.9612e-05 4.17758e-13 -7.39677e-13 5.27595e-13 4.4254e-05 -7.83555e-05 5.58892e-05 
7 2 1.22853e-06 4.99556e-05 4.84686e-05 5.02717e-05 -8.16025e-14 8.62192e-13 4.99966e-13 -2.39386e-06 2.5293e-05 1.46668e-05 
3 3 1.23903e-06 5e-05 5e-05 5e-05 0 0 0 0 0 0 
1 1 1.37545e-06 5.02805e-05 5.15476e-05 5.03876e-05 5.5412e-13 1.57057e-13 8.17487e-13 3.61596e-05 1.02489e-05 5.33459e-05 
6 4 8.98304e-07 4.99094e-05 5.29648e-05 5.05613e-05 1.69159e-13 4.74593e-13 8.63798e-13 1.54948e-06 4.34722e-06 7.9123e-06 
5 5 1.4839e-06 5e-05 5e-05 5.2e-05 0 0 0 0 0 0 
10 4 9.55967e-07 4.98234e-05 5.12352e-05 4.97051e-05 -5.20192e-13 -3.55455e-13 -7.76564e-13 -2.98481e-05 -2.03956e-05 -4.45585e-05 
11 4 9.48775e-07 5.07386e-05 5.11514e-05 5.14251e-05 8.16025e-14 -8.62192e-13 -4.99966e-13 0 0 0 
ITEM: TIMESTEP
3000
ITEM: NUMBER OF ATOMS
20
ITEM: BOX BOUNDS ff ff ff
0 9e-05
0 9e-05
0 9e-05
ITEM: ATOMS id type diameter x y z vx vy vz fx fy fz 
4 4 1.03337e-06 5e-05 5e-05 4.8e-05 0 0 0 0 0 0 
8 4 9.73884e-07 4.94772e-05 5.28312e-05 4.92669e-05 -1.43938e-13 5.57273e-13 -8.17758e-13 -1.22388e-05 4.7384e-05 -6.95327e-05 
2 2 1.0807e-06 5.04178e-05 4.73171e-05 5.00316e-05 7.07302e-13 -3.44156e-13 6.1748e-13 5.21521e-06 -2.53759e-06 4.55291e-06 
10 4 9.49718e-07 4.9822e-05 5.12254e-05 4.97045e-05 -7.89459e-14 -9.96879e-13 -6.43181e-16 -1.04351e-05 -0.000131767 -8.50155e-08 
12 1 1.34223e-06 4.97705e-05 5.18074e-05 4.96612e-05 -9.71214e-13 1.17401e-13 2.07268e-13 -6.87092e-05 8.3056e-06 1.46633e-05 
1 1 1.18497e-06 5.00446e-05 5.17687e-05 5.04549e-05 -1.38472e-13 5.36019e-13 8.32772e-13 -1.00705e-05 3.89824e-05 6.0564e-05 
9 1 1.07562e-06 4.97235e-05 5.37271e-05 4.93456e-05 2.64147e-13 9.6078e-13 8.44298e-14 4.87471e-06 1.77307e-05 1.55811e-06 
7 2 1.37001e-06 4.99559e-05 4.84765e-05 5.02775e-05 2.58872e-13 6.17782e-13 7.42516e-13 1.95907e-06 4.67519e-06 5.61915e-06 
3 3 1.36007e-06 5.00006e-05 4.99964e-05 4.99985e-05 1.48006e-13 -9.10913e-13 -3.85139e-13 1.77462e-05 -0.00010922 -4.6179e-05 
13 1 1.33213e-06 5.0522e-05 5.13421e-05 5.09321e-05 3.25408e-13 -2.40889e-13 -9.14375e-13 1.40859e-05 -1.04273e-05 -3.95803e-05 
6 4 8.92431e-07 4.99117e-05 5.29657e-05 5.05703e-05 3.22504e-13 5.06806e-13 7.99462e-13 6.52627e-06 1.02558e-05 1.61781e-05 
11 4 9.42573e-07 5.07424e-05 5.11481e-05 5.14337e-05 3.79248e-13 -3.33806e-13 8.62986e-13 4.21842e-05 -3.71297e-05 9.59911e-05 
5 5 1.4839e-06 5e-05 5e-05 5.2e-05 0 0 0 0 0 0 
14 4 9.56879e-07 4.89684e-05 5.21928e-05 4.89598e-05 -6.56239e-13 -6.2169e-13 -4.27612e-13 -1.32066e-05 -1.25113e-05 -8.60553e-06 
15 4 9.36329e-07 4.9631e-05 5.31548e-05 4.83583e-05 4.06098e-13 6.90891e-13 5.98126e-13 0 0 0 
16 2 1.21893e-06 4.96306e-05 4.77001e-05 4.93444e-05 -5.68046e-13 -1.69251e-13 -8.05405e-13 -7.17428e-06 -2.1376e-06 -1.01721e-05 
17 4 1.1007e-06 4.99072e-05 5.0571e-05 5.02414e-05 -1.46494e-13 7.6244e-13 6.30258e-13 -1.55216e-05 8.07838e-05 6.67786e-05 
18 4 9.09964e-07 5.14401e-05 5.14756e-05 5.02216e-05 -3.80914e-13 3.35284e-13 -8.61678e-13 0 0 0 
19 1 1.0853e-06 5.00071e-05 5.17794e-05 4.91919e-05 4.41537e-13 4.12842e-14 -8.96293e-13 8.4241e-05 7.87663e-06 -0.000171004 
20 1 1.22283e-06 4.96033e-05 5.2481e-05 4.98057e-05 -3.13145e-13 7.11835e-13 6.28674e-13 -3.94764e-05 8.97368e-05 7.92533e-05 
ITEM: TIMESTEP
4000
ITEM: NUMBER OF ATOMS
35
ITEM: BOX BOUNDS ff ff ff
0 9e-05
0 9e-05
0 9e-05
ITEM: ATOMS id type diameter x y z vx vy vz fx fy fz 
4 4 1.02661e-06 5e-05 5e-05 4.8e-05 0 0 0 0 0 0 
15 4 9.30208e-07 4.96348e-05 5.31627e-05 4.83619e-05 3.30848e-13 9.43479e-13 -1.96514e-14 1.17345e-05 3.34631e-05 -6.9699e-07 
14 4 9.50623e-07 4.89611e-05 5.219e-05 4.89542e-05 -8.86823e-13 -1.98297e-13 -4.17401e-13 -0.000127541 -2.85187e-05 -6.00297e-05 
16 2 1.3593e-06 4.96235e-05 4.77036e-05 4.93382e-05 -7.07302e-13 3.44151e-13 -6.17482e-13 -2.11177e-05 1.02752e-05 -1.8436e-05 
19 1 1.37626e-06 5.00108e-05 5.17789e-05 4.91828e-05 4.48154e-13 -1.50493e-13 -8.81198e-13 0.000147254 -4.94489e-05 -0.000289543 
8 4 9.67517e-07 4.94797e-05 5.28354e-05 4.92594e-05 5.86746e-13 3.76327e-14 -8.08896e-13 0.000106536 6.83303e-06 -0.000146872 
9 1 1.36398e-06 4.97278e-05 5.37361e-05 4.93457e-05 5.34053e-13 8.4155e-13 -8.11244e-14 8.25904e-05 0.000130144 -1.25458e-05 
21 2 1.14273e-06 5.03683e-05 4.85362e-05 4.99591e-05 7.86032e-13 1.13259e-13 -6.07722e-13 1.57758e-05 2.27312e-06 -1.21971e-05 
3 3 1.10917e-06 5.04365e-05 5.01567e-05 4.97584e-05 6.84344e-13 -4.6817e-13 -5.59008e-13 4.68765e-05 -3.20689e-05 -3.82912e-05 
10 4 9.4351e-07 4.98152e-05 5.12195e-05 4.97027e-05 -7.86788e-13 -6.04255e-13 -1.25858e-13 -0.000138986 -0.000106741 -2.22327e-05 
12 1 1.36863e-06 5.02413e-05 5.13241e-05 4.98604e-05 5.26252e-13 -6.94032e-13 -4.91303e-13 0.000115468 -0.000152282 -0.0001078 
20 1 1.21622e-06 4.98898e-05 5.19825e-05 5.01282e-05 7.49032e-14 7.56048e-14 9.94321e-13 2.26616e-05 2.28739e-05 0.000300827 
2 2 1.20516e-06 5.04249e-05 4.73137e-05 5.00378e-05 7.07302e-13 -3.44151e-13 6.17482e-13 2.11177e-05 -1.02752e-05 1.8436e-05 
17 4 1.0935e-06 4.99036e-05 5.05725e-05 5.02499e-05 -5.10247e-13 -1.28977e-13 8.50302e-13 -4.64281e-05 -1.17358e-05 7.73703e-05 
18 4 9.04015e-07 5.14467e-05 5.14791e-05 5.02186e-05 9.2003e-13 3.56758e-13 -1.62072e-13 7.2649e-05 2.81709e-05 -1.27978e-05 
1 1 1.14287e-06 5.03799e-05 5.1433e-05 5.0902e-05 -7.77125e-13 5.36989e-13 3.28205e-13 -0.000111862 7.72957e-05 4.72427e-05 
7 2 1.27524e-06 4.94968e-05 4.84106e-05 5.06328e-05 -7.86032e-13 -1.13259e-13 6.07722e-13 -1.57758e-05 -2.27312e-06 1.21971e-05 
13 1 1.38725e-06 5.02685e-05 5.14887e-05 5.15882e-05 -5.21115e-13 5.81508e-13 6.2473e-13 -0.000116213 0.000129681 0.00013932 
6 4 8.86597e-07 4.99149e-05 5.29711e-05 5.05781e-05 2.32241e-13 7.90199e-13 5.67142e-13 6.68001e-07 2.27287e-06 1.63129e-06 
11 4 9.36411e-07 5.07502e-05 5.11442e-05 5.14346e-05 9.67318e-13 -2.49201e-13 4.68378e-14 0.000155579 -4.00803e-05 7.53316e-06 
5 5 1.4839e-06 4.99981e-05 4.9997e-05 5.20018e-05 -4.70822e-13 -7.55643e-13 4.55336e-13 -2.43729e-05 -3.91171e-05 2.35712e-05 
22 3 1.2521e-06 4.95112e-05 4.98005e-05 5.0263e-05 -5.49617e-13 -8.29431e-13 9.98254e-14 -3.91288e-05 -5.90496e-05 7.10686e-06 
23 1 1.33276e-06 4.93066e-05 5.22699e-05 4.94658e-05 -8.95683e-13 -3.52417e-13 2.71208e-13 -0.000211238 -8.3114e-05 6.39617e-05 
24 1 1.29082e-06 5.076e-05 5.12047e-05 5.03198e-05 6.95322e-13 -4.40857e-13 -5.67602e-13 0.000170872 -0.000108339 -0.000139486 
25 4 9.93676e-07 4.87515e-05 5.3357e-05 4.98819e-05 -2.83657e-13 1.66522e-13 9.44356e-13 -4.45523e-05 2.61546e-05 0.000148324 
26 4 1.0547e-06 4.87242e-05 5.33822e-05 4.94242e-05 -6.77602e-13 3.02238e-13 -6.70453e-13 -0.000118211 5.27268e-05 -0.000116964 
27 4 9.08644e-07 5.06765e-05 5.12538e-05 5.05318e-05 1.88212e-13 -5.70944e-14 9.80467e-13 2.6732e-05 -8.10919e-06 0.000139257 
28 4 8.88336e-07 5.02876e-05 5.2041e-05 4.9803e-05 8.81434e-13 4.60168e-13 -1.06389e-13 0.000205587 0.00010733 -2.48144e-05 
29 1 1.24497e-06 4.93104e-05 5.3e-05 4.94923e-05 -4.40308e-14 6.23415e-13 7.8065e-13 -5.08854e-06 7.20466e-05 9.02179e-05 
30 1 1.23859e-06 4.96714e-05 5.21428e-05 4.99836e-05 -6.82027e-13 5.08572e-13 5.25542e-13 -0.00018506 0.000137995 0.0001426 
31 4 1.01328e-06 4.93743e-05 5.24146e-05 4.83599e-05 -1.15228e-13 -7.16085e-17 -9.93339e-13 -9.9246e-06 -6.16763e-09 -8.55562e-05 
32 4 1.04744e-06 4.95187e-05 5.0931e-05 4.89447e-05 1.12308e-13 -8.8732e-13 -4.47269e-13 8.10058e-06 -6.40011e-05 -3.22608e-05 
33 4 8.51175e-07 5.0426e-05 5.06836e-05 5.1588e-05 2.04373e-14 -9.94171e-13 -1.05859e-13 1.40724e-06 -6.8455e-05 -7.28905e-06 
34 4 9.698e-07 4.88273e-05 5.13251e-05 4.89356e-05 -9.93871e-13 1.08478e-13 -2.12849e-14 -3.955e-05 4.31678e-06 -8.47008e-07 
35 4 8.44698e-07 4.96936e-05 5.21506e-05 4.89007e-05 4.22972e-13 1.92428e-13 -8.85475e-13 4.34381e-05 1.97618e-05 -9.0936e-05 
ITEM: TIMESTEP
5000
ITEM: NUMBER OF ATOMS
69
ITEM: BOX BOUNDS ff ff ff
0 9e-05
0 9e-05
0 9e-05
ITEM: ATOMS id type diameter x y z vx vy vz fx fy fz 
4 4 1.0199e-06 5e-05 5e-05 4.8e-05 0 0 0 0 0 0 
31 4 1.00665e-06 4.93758e-05 5.24151e-05 4.83503e-05 4.55121e-13 5.1121e-14 -8.88961e-13 9.1613e-05 1.02903e-05 -0.000178942 
15 4 9.24127e-07 4.96338e-05 5.31674e-05 4.83561e-05 -9.23365e-13 3.81219e-13 4.54938e-14 -0.000138132 5.70291e-05 6.80572e-06 
32 4 1.04059e-06 4.95184e-05 5.09217e-05 4.8946e-05 -7.07514e-13 -6.85754e-13 1.70777e-13 -5.54153e-05 -5.3711e-05 1.33759e-05 
34 4 9.6346e-07 4.88179e-05 5.13231e-05 4.89375e-05 -8.04715e-13 -5.35589e-13 2.56083e-13 -5.82164e-05 -3.87467e-05 1.85261e-05 
36 1 1.11423e-06 4.91537e-05 5.19662e-05 4.86414e-05 3.94182e-14 -8.46211e-13 -5.31388e-13 1.20852e-05 -0.000259438 -0.000162917 
14 4 9.44409e-07 4.89545e-05 5.21839e-05 4.89559e-05 -5.83516e-13 -7.08821e-13 3.96336e-13 -0.000161804 -0.000196549 0.0001099 
35 4 8.39176e-07 4.97031e-05 5.21509e-05 4.89022e-05 9.70008e-13 -2.33021e-13 6.9185e-14 0.000144206 -3.46419e-05 1.02853e-05 
16 2 1.24564e-06 4.96061e-05 4.7698e-05 4.99065e-05 -8.98372e-13 -1.16734e-14 -4.39081e-13 -8.88604e-05 -1.15465e-06 -4.34307e-05 
12 1 1.30006e-06 5.02168e-05 5.17676e-05 4.94369e-05 6.34503e-14 -5.00848e-13 -8.63206e-13 2.51954e-05 -0.000198881 -0.00034277 
23 1 1.33479e-06 4.90251e-05 5.25025e-05 4.88851e-05 -6.90992e-13 1.81561e-13 -6.99689e-13 -0.000202981 5.33342e-05 -0.000205536 
8 4 9.61192e-07 4.94822e-05 5.28306e-05 4.92583e-05 3.12582e-13 -2.36434e-13 -9.19995e-13 6.06166e-05 -4.58497e-05 -0.000178407 
26 4 1.0478e-06 4.87211e-05 5.33891e-05 4.94193e-05 -1.58993e-13 9.33272e-13 -3.22062e-13 -3.83529e-05 0.000225128 -7.7689e-05 
29 1 1.22584e-06 4.86408e-05 5.30388e-05 4.93868e-05 -9.80333e-13 -1.92274e-13 -4.44753e-14 -0.000286808 -5.6252e-05 -1.30118e-05 
9 1 1.2842e-06 4.97764e-05 5.43061e-05 4.96862e-05 6.85879e-14 8.52684e-13 5.17905e-13 1.83534e-07 2.2817e-06 1.38586e-06 
21 2 1.27433e-06 5.03755e-05 4.85403e-05 4.99551e-05 4.28541e-13 9.03522e-13 -3.10807e-16 1.52331e-05 3.21169e-05 -1.10481e-08 
3 3 1.21753e-06 5.04409e-05 5.01511e-05 4.97516e-05 1.64565e-13 -5.49214e-13 -8.19318e-13 2.67313e-05 -8.92123e-05 -0.000133087 
10 4 9.37342e-07 4.9811e-05 5.12142e-05 4.96961e-05 -1.87484e-13 -3.92285e-13 -9.00534e-13 -6.75167e-05 -0.00014127 -0.0003243 
19 1 1.29462e-06 5.03773e-05 5.19729e-05 4.96326e-05 8.58236e-13 -2.11205e-13 -4.67785e-13 0.000265662 -6.53774e-05 -0.0001448 
30 1 1.17975e-06 4.95807e-05 5.27975e-05 4.98076e-05 -4.36462e-13 -1.65178e-13 8.8443e-13 -9.9382e-05 -3.76109e-05 0.000201384 
28 4 8.82529e-07 5.02925e-05 5.20452e-05 4.98098e-05 2.54231e-13 3.04456e-13 9.17972e-13 5.35553e-05 6.41355e-05 0.000193376 
25 4 9.8718e-07 4.87504e-05 5.33596e-05 4.98913e-05 -1.06296e-13 3.68872e-13 9.23382e-13 -2.26825e-05 7.8714e-05 0.000197041 
2 2 1.34394e-06 5.04332e-05 4.73092e-05 5.00402e-05 8.16922e-13 -5.59218e-13 1.41114e-13 6.72821e-05 -4.60574e-05 1.16222e-05 
22 3 1.37442e-06 4.95046e-05 4.97935e-05 5.02639e-05 -9.60898e-13 -2.7536e-13 -2.91905e-14 -4.26947e-05 -1.22348e-05 -1.29699e-06 
17 4 1.08635e-06 4.98968e-05 5.05667e-05 5.02511e-05 -1.32991e-13 -9.90162e-13 4.34997e-14 -3.45338e-05 -0.000257115 1.12956e-05 
37 1 1.17106e-06 4.97328e-05 5.1173e-05 5.04015e-05 -4.50946e-13 -5.68455e-13 6.88118e-13 -0.000166467 -0.000209846 0.00025402 
24 1 1.21933e-06 5.01215e-05 5.10821e-05 5.01859e-05 8.46574e-13 -5.12997e-13 -1.41939e-13 0.000313409 -0.000189916 -5.2547e-05 
18 4 8.98105e-07 5.14518e-05 5.14831e-05 5.02127e-05 3.03697e-13 4.07005e-13 -8.61461e-13 7.86509e-05 0.000105406 -0.0002231 
20 1 1.28396e-06 5.00479e-05 5.26338e-05 5.00152e-05 5.86214e-13 2.01616e-13 7.84668e-13 0.000186784 6.42405e-05 0.000250017 
7 2 1.06676e-06 4.97099e-05 4.79507e-05 5.07581e-05 1.44531e-13 2.15446e-13 9.65761e-13 7.6191e-06 1.13575e-05 5.09111e-05 
1 1 1.06784e-06 4.98014e-05 5.16835e-05 5.10712e-05 -8.38384e-14 7.29261e-13 6.7908e-13 -1.59579e-05 0.000138808 0.000129257 
27 4 9.02704e-07 5.06796e-05 5.12574e-05 5.05356e-05 -9.41223e-13 3.08946e-13 1.36575e-13 -0.000131822 4.32691e-05 1.91279e-05 
6 4 8.80801e-07 4.99178e-05 5.2977e-05 5.0585e-05 3.92404e-13 3.13376e-13 8.64763e-13 4.50102e-05 3.59454e-05 9.91914e-05 
38 1 1.40427e-06 4.99825e-05 5.09433e-05 5.12832e-05 -8.19173e-13 5.67502e-13 8.30522e-14 -0.00015729 0.000108967 1.5947e-05 
11 4 9.30289e-07 5.07592e-05 5.11468e-05 5.14374e-05 8.08093e-13 5.77301e-13 1.17088e-13 0.000135449 9.67644e-05 1.96257e-05 
33 4 8.45611e-07 5.0433e-05 5.06775e-05 5.15906e-05 6.97116e-13 -6.28125e-13 3.45671e-13 0.000192841 -0.000173756 9.56218e-05 
13 1 1.38812e-06 5.05415e-05 5.20372e-05 5.18966e-05 1.12405e-13 7.9444e-13 5.9685e-13 4.36491e-06 3.08497e-05 2.31769e-05 
5 5 1.4839e-06 4.99952e-05 4.99918e-05 5.20092e-05 -2.10177e-13 -4.37001e-13 8.7456e-13 -6.9931e-05 -0.0001454 0.000290987 
39 2 1.15737e-06 4.96306e-05 4.77091e-05 4.87963e-05 2.20838e-14 9.93495e-15 -9.99707e-13 4.01632e-07 1.80684e-07 -1.81814e-05 
40 1 1.34794e-06 4.95735e-05 5.20352e-05 5.00512e-05 -9.2343e-13 3.40381e-13 1.77252e-13 -0.000361134 0.000133116 6.93195e-05 
41 1 1.09284e-06 4.95108e-05 5.30802e-05 4.95557e-05 -1.58109e-13 9.53479e-13 2.56671e-13 -4.37829e-05 0.000264033 7.10762e-05 
42 1 1.2791e-06 5.00085e-05 5.29637e-05 4.96096e-05 8.46049e-13 4.94623e-13 -1.98871e-13 0.000350902 0.000205147 -8.24825e-05 
43 1 1.37028e-06 5.14912e-05 5.13401e-05 5.04639e-05 9.57373e-13 -1.2312e-13 2.61301e-13 0.000382058 -4.91332e-05 0.000104277 
44 4 8.47793e-07 4.9059e-05 5.26878e-05 5.02727e-05 -8.64261e-13 -3.22002e-14 5.02011e-13 -8.90156e-05 -3.31649e-06 5.17052e-05 
45 4 9.17178e-07 4.97018e-05 5.33789e-05 4.91231e-05 9.32925e-14 8.7315e-13 -4.78441e-13 1.99277e-05 0.000186509 -0.000102197 
46 4 8.48656e-07 5.11346e-05 5.10168e-05 5.03522e-05 4.2885e-16 -7.22931e-13 -6.9092e-13 8.61263e-08 -0.000145187 -0.000138758 
47 4 1.11954e-06 5.11641e-05 5.22212e-05 5.03907e-05 1.08204e-13 -4.3492e-13 8.93944e-13 1.6881e-05 -6.78519e-05 0.000139464 
48 4 1.01533e-06 5.01392e-05 4.97883e-05 5.15963e-05 4.38387e-13 -6.54426e-13 -6.16071e-13 8.08461e-05 -0.000120687 -0.000113614 
49 4 9.05388e-07 5.02768e-05 5.09232e-05 5.21063e-05 -1.79754e-14 4.20212e-13 9.07248e-13 -3.43331e-06 8.02607e-05 0.000173285 
50 4 1.01838e-06 5.05891e-05 5.22851e-05 4.89943e-05 2.134e-13 4.8367e-13 -8.48837e-13 4.0395e-05 9.1555e-05 -0.000160678 
51 4 8.62392e-07 5.09005e-05 5.23726e-05 4.94794e-05 8.42409e-13 5.31799e-13 -8.68162e-14 0.000140756 8.88569e-05 -1.45059e-05 
52 4 9.80487e-07 5.10016e-05 5.23738e-05 5.01972e-05 -3.64755e-13 7.42595e-13 -5.617e-13 -9.07987e-05 0.000184855 -0.000139824 
53 1 1.30699e-06 4.97584e-05 5.1428e-05 5.0182e-05 -4.7332e-13 7.08359e-13 -5.23637e-13 -0.000163227 0.000244282 -0.000180579 
54 1 1.15775e-06 4.97484e-05 5.13955e-05 5.02471e-05 -5.99091e-13 2.65738e-13 7.55297e-13 -0.000173656 7.70283e-05 0.000218935 
55 4 1.10514e-06 5.07726e-05 5.10642e-05 4.8334e-05 8.07511e-13 -4.76266e-13 -3.47989e-13 8.51842e-05 -5.02412e-05 -3.67093e-05 
56 4 9.64677e-07 5.05352e-05 5.18229e-05 4.83316e-05 4.02104e-15 7.72902e-13 -6.34513e-13 2.76936e-07 5.32311e-05 -4.37e-05 
57 4 1.01397e-06 4.90336e-05 5.24539e-05 4.76906e-05 -4.59909e-13 5.20402e-14 -8.8644e-13 -2.44799e-05 2.76999e-06 -4.71833e-05 
58 4 9.48342e-07 5.11993e-05 5.22696e-05 5.03747e-05 7.6944e-13 6.36679e-13 5.10094e-14 0.000231255 0.000191354 1.53309e-05 
59 4 8.55899e-07 4.93715e-05 5.31101e-05 5.0786e-05 -6.77151e-13 4.37075e-13 5.91974e-13 -3.96419e-05 2.55873e-05 3.46554e-05 
60 4 1.07185e-06 4.9776e-05 5.03636e-05 5.14134e-05 -8.64824e-13 -2.28335e-13 -4.47149e-13 -0.000184315 -4.86636e-05 -9.52981e-05 
61 4 1.02546e-06 4.90728e-05 5.26436e-05 4.91405e-05 -5.62573e-13 3.58477e-13 7.44987e-13 -6.79095e-05 4.32726e-05 8.99291e-05 
62 4 9.27003e-07 5.07574e-05 5.18599e-05 5.05688e-05 -8.84926e-13 4.08281e-14 4.63939e-13 -0.000180573 8.33116e-06 9.4669e-05 
63 1 1.20792e-06 5.01025e-05 5.11063e-05 4.86825e-05 -3.05763e-13 -7.45184e-13 -5.9263e-13 -1.25868e-05 -3.06755e-05 -2.43956e-05 
64 1 1.12516e-06 5.07886e-05 5.0473e-05 5.02479e-05 4.18527e-13 -9.03951e-13 8.7793e-14 6.80256e-05 -0.000146924 1.42695e-05 
65 2 1.18454e-06 4.9251e-05 4.8925e-05 5.05088e-05 -3.08773e-13 -9.15059e-13 2.59473e-13 -2.01931e-05 -5.98431e-05 1.6969e-05 
66 1 1.22234e-06 5.10386e-05 5.11607e-05 5.07214e-05 9.12613e-14 -2.52196e-13 9.63363e-13 2.69664e-05 -7.45203e-05 0.00028466 
67 1 1.20543e-06 4.9875e-05 5.31357e-05 4.82969e-05 9.23285e-13 5.95225e-14 -3.79477e-13 0.000198196 1.27773e-05 -8.14598e-05 
68 4 8.36431e-07 4.9302e-05 5.08564e-05 5.07964e-05 -8.76915e-13 -3.70422e-13 3.0628e-13 -0.000128856 -5.44307e-05 4.50054e-05 
69 4 9.15312e-07 5.04007e-05 5.07274e-05 5.15508e-05 4.73677e-13 4.64091e-13 -7.48498e-13 5.38019e-05 5.2713e-05 -8.5017e-05 
ITEM: TIMESTEP
6000
ITEM: NUMBER OF ATOMS
129
ITEM: BOX BOUNDS ff ff ff
0 9e-05
0 9e-05
0 9e-05
ITEM: ATOMS id type diameter x y z vx vy vz fx fy fz 
4 4 1.01323e-06 4.99989e-05 4.9998e-05 4.79967e-05 -2.7597e-13 -5.00303e-13 -8.20693e-13 -1.6433e-05 -2.97912e-05 -4.88693e-05 
57 4 1.00735e-06 4.90325e-05 5.24524e-05 4.7681e-05 1.03176e-14 -1.76358e-13 -9.84272e-13 1.33645e-06 -2.28438e-05 -0.000127493 
55 4 1.09792e-06 5.0781e-05 5.10601e-05 4.83303e-05 8.31578e-13 -3.77445e-13 -4.07448e-13 7.01316e-05 -3.1832e-05 -3.43624e-05 
56 4 9.58371e-07 5.0538e-05 5.18285e-05 4.83245e-05 5.72731e-13 2.95339e-13 -7.64692e-13 0.000114929 5.92652e-05 -0.00015345 
31 4 1.00007e-06 4.93795e-05 5.24164e-05 4.83414e-05 2.17297e-13 2.54401e-13 -9.4237e-13 5.53574e-05 6.48098e-05 -0.000240073 
15 4 9.18086e-07 4.96279e-05 5.3171e-05 4.83526e-05 -7.69098e-14 3.15276e-13 -9.45879e-13 -1.20884e-05 4.95538e-05 -0.000148669 
67 1 1.21194e-06 5.01967e-05 5.27422e-05 4.78981e-05 5.43232e-13 -8.51113e-14 -8.35257e-13 0.000117257 -1.83714e-05 -0.000180291 
39 2 1.29065e-06 4.96305e-05 4.77087e-05 4.87864e-05 -1.41027e-13 -2.41516e-13 -9.60094e-13 -1.03552e-05 -1.77337e-05 -7.04965e-05 
32 4 1.03379e-06 4.95138e-05 5.09141e-05 4.89442e-05 -1.98549e-13 -8.19957e-13 -5.36888e-13 -3.28895e-05 -0.000135825 -8.89352e-05 
34 4 9.57162e-07 4.881e-05 5.13173e-05 4.89391e-05 -7.37759e-13 -6.71654e-13 6.77661e-14 -0.000117023 -0.000106538 1.0749e-05 
63 1 1.20214e-06 4.99845e-05 5.17743e-05 4.8686e-05 4.18265e-13 -4.3052e-13 -7.99817e-13 0.00015277 -0.000157247 -0.000292132 
36 1 1.41294e-06 4.91514e-05 5.19601e-05 4.86344e-05 -2.5447e-13 -5.89828e-13 -7.66386e-13 -0.000187846 -0.000435402 -0.000565735 
14 4 9.38235e-07 4.89457e-05 5.2181e-05 4.89579e-05 -8.79498e-13 -2.83955e-13 3.81907e-13 -0.00024034 -7.75961e-05 0.000104363 
35 4 8.3369e-07 4.97093e-05 5.21539e-05 4.88971e-05 4.71011e-13 5.67804e-13 -6.7509e-13 0.000142338 0.000171588 -0.00020401 
50 4 1.01172e-06 5.05935e-05 5.22889e-05 4.89865e-05 4.84126e-13 6.12482e-13 -6.24891e-13 9.5386e-05 0.000120676 -0.000123121 
23 1 1.25552e-06 4.92818e-05 5.21794e-05 4.93661e-05 -6.01818e-13 -4.55157e-13 6.56237e-13 -0.000374389 -0.000283152 0.000408244 
12 1 1.22265e-06 5.06644e-05 5.15883e-05 4.98764e-05 7.84056e-14 -4.76352e-13 -8.75752e-13 2.80489e-05 -0.00017041 -0.000313292 
51 4 8.56755e-07 5.09081e-05 5.23785e-05 4.94786e-05 7.11253e-13 6.64523e-13 -2.29192e-13 0.000114909 0.000107359 -3.70278e-05 
8 4 9.54909e-07 4.94812e-05 5.28298e-05 4.92488e-05 -1.96349e-13 2.25348e-13 -9.54288e-13 -5.53528e-05 6.35277e-05 -0.000269023 
61 4 1.01875e-06 4.90646e-05 5.26443e-05 4.91385e-05 -9.70868e-13 4.63767e-14 -2.35083e-13 -0.000359909 1.71922e-05 -8.71475e-05 
26 4 1.04095e-06 4.8717e-05 5.33972e-05 4.94161e-05 -6.09685e-13 7.70525e-13 -1.85943e-13 -0.000195072 0.000246533 -5.94932e-05 
29 1 1.30362e-06 4.91905e-05 5.32373e-05 4.89915e-05 -5.39756e-13 5.75378e-13 -6.14495e-13 -0.000356828 0.000380378 -0.000406238 
45 4 9.11182e-07 4.97044e-05 5.3387e-05 4.91182e-05 4.88089e-13 7.89437e-13 -3.72234e-13 0.000206581 0.000334125 -0.000157546 
16 2 1.38909e-06 4.95972e-05 4.77008e-05 4.99045e-05 -9.87603e-13 2.52198e-15 1.5695e-13 -0.00012638 3.22727e-07 2.00842e-05 
21 2 1.18309e-06 4.99974e-05 4.82758e-05 4.96124e-05 5.53468e-13 8.20991e-13 -1.40166e-13 6.4841e-05 9.61822e-05 -1.6421e-05 
70 3 1.26488e-06 4.95022e-05 4.97637e-05 4.96812e-05 -3.61435e-13 -7.10339e-13 -6.03973e-13 -5.57521e-05 -0.000109571 -9.31642e-05 
3 3 1.33647e-06 5.04425e-05 5.01447e-05 4.97441e-05 1.49166e-13 -6.74418e-13 -7.23125e-13 4.95183e-05 -0.000223885 -0.000240054 
10 4 9.31214e-07 4.98109e-05 5.12095e-05 4.96896e-05 1.54459e-13 -9.87846e-13 1.73672e-14 5.02246e-05 -0.000321212 5.64718e-06 
19 1 1.31322e-06 4.99751e-05 5.25473e-05 4.96097e-05 8.85686e-13 3.11304e-13 3.44456e-13 0.000407989 0.000143401 0.000158673 
43 1 1.31163e-06 5.17406e-05 5.15644e-05 4.99204e-05 9.03457e-13 1.31057e-14 -4.28479e-13 0.000319067 4.62843e-06 -0.000151322 
28 4 8.7676e-07 5.02977e-05 5.20451e-05 4.98097e-05 2.21102e-13 -6.73994e-14 -9.72919e-13 4.05043e-05 -1.23471e-05 -0.000178232 
30 1 1.25777e-06 4.97451e-05 5.29042e-05 5.04828e-05 -7.97876e-13 -3.3159e-13 5.0343e-13 -0.000313009 -0.000130084 0.000197497 
42 1 1.20172e-06 5.01654e-05 5.29412e-05 4.89624e-05 9.01537e-13 2.3523e-13 -3.63176e-13 0.000518598 0.000135313 -0.000208912 
25 4 9.80726e-07 4.87479e-05 5.33642e-05 4.98997e-05 -2.76272e-13 4.93151e-13 8.2491e-13 -7.75937e-05 0.000138506 0.000231684 
41 1 1.38581e-06 4.95077e-05 5.30883e-05 4.95596e-05 -3.06027e-13 5.52883e-13 7.75028e-13 -0.000146006 0.000263781 0.000369766 
9 1 1.35296e-06 4.97478e-05 5.38425e-05 5.0252e-05 2.42728e-13 9.63328e-13 1.14381e-13 0.000124873 0.000495592 5.88443e-05 
2 2 1.21103e-06 4.99558e-05 4.70913e-05 4.98546e-05 3.77792e-13 -9.18028e-13 -1.20403e-13 4.45764e-05 -0.00010832 -1.42066e-05 
64 1 1.42681e-06 5.07923e-05 5.04638e-05 5.02479e-05 3.53244e-13 -9.24255e-13 -1.44816e-13 0.000177947 -0.000465595 -7.29514e-05 
17 4 1.07925e-06 4.99e-05 5.05581e-05 5.02511e-05 8.46329e-13 -5.32041e-13 -2.56867e-14 0.000121674 -7.649e-05 -3.6929e-06 
37 1 1.23707e-06 5.01243e-05 5.17491e-05 5.04606e-05 -7.81219e-13 -6.01423e-13 1.67295e-13 -0.000307982 -0.000237101 6.59532e-05 
53 1 1.27397e-06 5.00809e-05 5.19666e-05 5.03636e-05 -9.9933e-13 -1.62078e-14 -3.28218e-14 -0.000351138 -5.69501e-06 -1.15327e-05 
54 1 1.21968e-06 5.03038e-05 5.14404e-05 5.0682e-05 -5.92585e-13 -7.76186e-13 2.15358e-13 -0.000218947 -0.000286784 7.95699e-05 
24 1 1.23132e-06 5.04485e-05 5.07845e-05 5.06837e-05 -5.13338e-13 -6.5188e-13 5.58154e-13 -0.000174241 -0.000221265 0.000189452 
18 4 8.92234e-07 5.14602e-05 5.14838e-05 5.02133e-05 7.43157e-13 -2.66959e-13 6.13556e-13 0.00011908 -4.27762e-05 9.83133e-05 
46 4 8.43108e-07 5.11416e-05 5.10138e-05 5.03475e-05 9.97479e-13 1.70996e-14 -6.88726e-14 0.000192329 3.29706e-06 -1.32796e-05 
40 1 1.37726e-06 4.99657e-05 5.22978e-05 4.95418e-05 9.33216e-13 -3.55064e-13 5.51055e-14 0.000292385 -0.000111245 1.72651e-05 
47 4 1.11223e-06 5.11693e-05 5.22177e-05 5.03976e-05 8.50859e-13 -8.28997e-14 5.18813e-13 0.000404803 -3.94402e-05 0.00024683 
52 4 9.74077e-07 5.10017e-05 5.2381e-05 5.01914e-05 5.6993e-13 6.50493e-13 -5.02034e-13 0.000251037 0.000286523 -0.000221131 
58 4 9.42143e-07 5.12079e-05 5.22744e-05 5.03756e-05 9.04685e-13 4.02528e-13 1.39703e-13 0.000502299 0.000223492 7.7566e-05 
44 4 8.4225e-07 4.90515e-05 5.26845e-05 5.02779e-05 -8.61156e-13 -4.30213e-13 2.7079e-13 -0.000129288 -6.45892e-05 4.06546e-05 
20 1 1.2032e-06 5.04426e-05 5.24547e-05 5.05137e-05 2.69703e-14 7.48908e-13 6.62125e-13 1.57187e-05 0.000436475 0.000385897 
7 2 1.18961e-06 4.97117e-05 4.7951e-05 5.07679e-05 2.68604e-13 -6.24545e-14 9.61224e-13 2.2404e-05 -5.20926e-06 8.01746e-05 
65 2 1.32095e-06 4.92455e-05 4.89174e-05 5.05055e-05 -6.52904e-13 -7.23315e-13 -2.24793e-13 -2.99449e-05 -3.31743e-05 -1.03099e-05 
22 3 1.12143e-06 4.94992e-05 4.98051e-05 5.07765e-05 -9.58605e-14 -9.44283e-13 3.14866e-13 -1.09416e-05 -0.000107781 3.5939e-05 
68 4 8.30963e-07 4.92927e-05 5.08557e-05 5.07996e-05 -8.78447e-13 1.1425e-13 4.63981e-13 -0.000157283 2.04561e-05 8.30742e-05 
38 1 1.36496e-06 4.95108e-05 5.07696e-05 5.08664e-05 2.51995e-13 -4.45805e-13 8.58927e-13 8.10835e-05 -0.000143445 0.000276374 
27 4 8.96803e-07 5.06723e-05 5.1257e-05 5.05343e-05 7.40133e-14 -9.64488e-13 -2.53544e-13 7.52719e-06 -9.80889e-05 -2.57856e-05 
66 1 1.26196e-06 5.0864e-05 5.17182e-05 5.03127e-05 8.07969e-13 -5.06406e-13 -3.01231e-13 0.000323075 -0.000202492 -0.00012045 
62 4 9.20943e-07 5.07521e-05 5.18585e-05 5.05741e-05 5.09386e-13 -1.47869e-13 8.47739e-13 0.000145868 -4.23439e-05 0.000242759 
6 4 8.75043e-07 4.99222e-05 5.29803e-05 5.05929e-05 6.63713e-13 4.65569e-13 5.85432e-13 0.00015291 0.00010726 0.000134875 
59 4 8.50304e-07 4.93641e-05 5.31122e-05 5.07919e-05 -8.47648e-13 9.04708e-14 5.22788e-13 -0.000238563 2.54622e-05 0.000147134 
60 4 1.06485e-06 4.97691e-05 5.03675e-05 5.14079e-05 -5.36041e-13 4.49533e-13 -7.14549e-13 -8.51065e-05 7.13717e-05 -0.000113448 
11 4 9.24208e-07 5.07682e-05 5.11487e-05 5.14394e-05 8.45719e-13 -2.14257e-13 4.88726e-13 0.00011078 -2.80654e-05 6.40178e-05 
73 1 1.09774e-06 5.12344e-05 5.06552e-05 5.05919e-05 8.87852e-13 -4.40258e-13 1.33759e-13 0.000284096 -0.000140874 4.28003e-05 
1 1 1.35412e-06 4.97994e-05 5.16864e-05 5.108e-05 -6.84228e-13 1.4202e-13 7.15306e-13 -0.000166514 3.45622e-05 0.000174077 
13 1 1.39191e-06 5.06782e-05 5.18428e-05 5.12646e-05 2.94843e-13 6.04364e-13 7.40143e-13 0.000206267 0.000422803 0.000517792 
48 4 1.00869e-06 5.01443e-05 4.97816e-05 5.15911e-05 5.61936e-13 -6.90696e-13 -4.55157e-13 0.000148135 -0.000182078 -0.000119987 
33 4 8.40083e-07 5.04368e-05 5.06683e-05 5.15915e-05 2.79915e-13 -9.37347e-13 2.07433e-13 4.35617e-05 -0.000145874 3.22817e-05 
69 4 9.09328e-07 5.0397e-05 5.07264e-05 5.1542e-05 -5.64096e-13 2.90437e-13 -7.72943e-13 -0.000101286 5.21494e-05 -0.000138786 
71 1 1.19987e-06 5.00766e-05 5.16684e-05 5.15817e-05 -2.60749e-13 3.20722e-13 9.10575e-13 -8.58176e-05 0.000105556 0.000299688 
5 5 1.4839e-06 4.9994e-05 4.99877e-05 5.20182e-05 -7.52929e-14 -4.19651e-13 9.04557e-13 -3.24823e-05 -0.000181043 0.000390237 
49 4 8.9947e-07 5.02736e-05 5.09246e-05 5.21156e-05 -3.65716e-13 3.44407e-13 8.64659e-13 -7.26255e-05 6.83939e-05 0.000171708 
72 1 1.40228e-06 5.04059e-05 5.22486e-05 5.25455e-05 9.92152e-14 5.79168e-13 8.09148e-13 3.17587e-06 1.85391e-05 2.59008e-05 
74 1 1.42115e-06 4.87196e-05 5.28672e-05 4.83387e-05 -6.6525e-13 3.60209e-13 -6.53981e-13 -0.000282323 0.000152867 -0.00027754 
75 2 1.16722e-06 5.09064e-05 4.7508e-05 5.02216e-05 8.63481e-13 3.78536e-13 3.33333e-13 1.52263e-05 6.67495e-06 5.87786e-06 
76 1 1.3545e-06 4.94072e-05 5.08567e-05 4.99871e-05 -7.77996e-13 -1.72591e-13 -6.04099e-13 -0.000293358 -6.50787e-05 -0.000227787 
77 1 1.33545e-06 4.91866e-05 5.17822e-05 5.05441e-05 -8.78735e-13 4.57381e-13 -1.36483e-13 -0.000373591 0.000194454 -5.8025e-05 
78 4 9.52952e-07 4.99056e-05 5.21442e-05 5.04954e-05 -8.79338e-13 3.28482e-13 3.44768e-13 -0.000291317 0.000108823 0.000114219 
79 4 9.00222e-07 5.10602e-05 5.13339e-05 5.25825e-05 2.52978e-14 8.4565e-13 5.33139e-13 8.09723e-07 2.70672e-05 1.70645e-05 
80 1 1.38433e-06 4.97141e-05 5.19613e-05 4.89232e-05 3.66072e-13 -6.90404e-13 -6.23966e-13 0.000189199 -0.000356826 -0.000322488 
81 1 1.29263e-06 5.07863e-05 5.14041e-05 4.96479e-05 2.30841e-13 -5.04002e-13 -8.32283e-13 0.000112297 -0.000245181 -0.00040488 
82 1 1.36297e-06 4.98461e-05 5.29989e-05 5.0341e-05 4.08715e-13 7.83338e-13 -4.68331e-13 0.000116797 0.000223852 -0.000133834 
83 1 1.22585e-06 4.98047e-05 5.47437e-05 4.91797e-05 4.66587e-14 9.55396e-13 2.9162e-13 0 0 0 
84 1 1.37054e-06 4.96072e-05 5.28438e-05 4.94586e-05 7.20933e-13 -1.85958e-13 6.67589e-13 0.000284493 -7.33823e-05 0.000263442 
85 4 1.09402e-06 4.95896e-05 5.31925e-05 4.95579e-05 3.12914e-13 8.54096e-13 4.15458e-13 0.000181849 0.000496355 0.000241442 
86 4 1.00967e-06 4.86889e-05 5.38766e-05 4.83931e-05 -4.71549e-13 8.36336e-13 -2.79615e-13 -3.84834e-05 6.82538e-05 -2.28196e-05 
87 4 9.39486e-07 5.10749e-05 5.18766e-05 4.90874e-05 8.78595e-13 3.36874e-14 -4.76378e-13 0.000233984 8.97148e-06 -0.000126867 
88 4 8.2895e-07 4.966e-05 5.35737e-05 4.95911e-05 2.16247e-13 9.71773e-13 9.4308e-14 7.48746e-05 0.000336472 3.26537e-05 
89 4 9.47099e-07 4.97119e-05 5.19353e-05 4.95447e-05 -2.24615e-13 -3.89368e-13 8.93275e-13 -4.59619e-05 -7.96745e-05 0.000182786 