ITEM: TIMESTEP
0
ITEM: NUMBER OF ATOMS
5
ITEM: BOX BOUNDS ff ff ff
1e-05 3e-05
1e-05 3e-05
0 4e-05
ITEM: ATOMS id type diameter x y z vx vy vz fx fy fz 
4 4 1.0539e-06 2e-05 2e-05 1.9e-05 0 0 0 0 0 -8.22e-06 
2 2 1.2839e-06 2e-05 1.9e-05 2e-05 0 0 0 0 -3.122e-05 0 
3 3 1.0283e-06 2e-05 2e-05 2e-05 0 0 0 0 2e-05 -4.3e-05 
1 1 1.0839e-06 2e-05 2.1e-05 2e-05 0 0 0 0 1.122e-05 0 
5 5 1.4839e-06 2e-05 2e-05 2.1e-05 0 0 0 0 0 5.122e-05 
ITEM: TIMESTEP
2000
ITEM: NUMBER OF ATOMS
7
ITEM: BOX BOUNDS ff ff ff
1e-05 3e-05
1e-05 3e-05
0 4e-05
ITEM: ATOMS id type diameter x y z vx vy vz fx fy fz 
4 4 1.0539e-06 2e-05 1.24485e-05 2.73509e-05 0 1.2859e-08 -9.91698e-08 0 0 0 
2 2 1.30914e-06 2.07623e-05 2.35394e-05 2.34033e-05 -1.13299e-08 -9.46424e-08 3.024e-08 0 0 0 
3 3 1.09105e-06 2e-05 2.23717e-05 2.51964e-05 0 9.99943e-08 1.07068e-09 0 0 0 
1 1 1.80049e-06 2.2184e-05 1.08719e-05 6.78591e-06 0 1e-07 0 0 5.67397e-06 0 
5 5 1.4839e-06 2e-05 1.83125e-05 1.74191e-05 0 -9.90568e-08 1.37022e-08 0 0 0 
6 4 9.10165e-07 2.3107e-05 2.51309e-05 4.98389e-06 -4.62019e-10 -8.01324e-10 9.99957e-08 0 0 0 
7 4 1.11747e-06 2.10481e-05 1.39293e-05 1.10606e-05 2.35626e-08 -6.28947e-08 7.40882e-08 0 0 0 
ITEM: TIMESTEP
4000
ITEM: NUMBER OF ATOMS
16
ITEM: BOX BOUNDS ff ff ff
1e-05 3e-05
1e-05 3e-05
0 4e-05
ITEM: ATOMS id type diameter x y z vx vy vz fx fy fz 
4 4 1.0539e-06 2e-05 1.50099e-05 3.07361e-05 0 5.547e-08 8.3205e-08 0 0 0 
2 2 1.32683e-06 2.19445e-05 2.83387e-05 5.43043e-06 -8.3205e-08 9.44669e-11 5.547e-08 0 0 0 
3 3 1.14855e-06 2e-05 2.65746e-05 2.49108e-05 0 -1e-07 -3.54242e-12 0 0 0 
1 1 1.98699e-06 2.89093e-05 2.10455e-05 2.11788e-06 1e-07 0 0 7.06675e-22 0 0 
5 5 1.4839e-06 2e-05 1.39125e-05 2.05453e-05 0 9.99743e-08 2.26777e-09 0 0 0 
6 4 9.10165e-07 2.30575e-05 2.5045e-05 3.09833e-05 3.1003e-11 5.37714e-11 -1e-07 0 0 0 
7 4 1.11747e-06 1.78811e-05 2.79155e-05 2.12203e-06 -9.96543e-09 5.547e-08 -8.26061e-08 0 0 0 
8 1 1.9587e-06 1.28188e-05 2.91009e-05 1.22727e-05 1.66829e-204 -1e-07 1.63591e-204 2.67782e-202 -1.60512e-05 2.62584e-202 
9 4 1.14584e-06 2.26084e-05 1.66462e-05 1.66445e-05 -5.547e-08 1.11127e-08 -8.24596e-08 0 0 0 
10 4 1.08392e-06 2.0612e-05 2.76626e-05 7.11469e-06 -1.61458e-08 -9.86784e-08 1.3708e-09 0 0 0 
11 1 2.06232e-06 1.975e-05 2.90281e-05 5.13032e-06 0 -1e-07 0 0 -1.18456e-05 0 
12 1 1.92364e-06 1.08627e-05 2.87248e-05 1.70714e-05 1e-07 0 0 1.98267e-05 0 0 
13 4 1.51676e-06 2.54848e-05 1.67606e-05 2.56524e-05 2.11518e-08 -7.93924e-09 9.74144e-08 0 0 0 
14 4 1.29483e-06 1.29244e-05 2.73831e-05 1.6015e-05 -4.27892e-11 7.96965e-09 9.96819e-08 0 0 0 
15 4 1.53913e-06 1.56362e-05 1.97055e-05 1.53177e-05 -3.4892e-10 9.99993e-08 1.36323e-10 0 0 0 
16 4 1.18053e-06 2.37538e-05 2.2444e-05 2.29955e-05 6.56373e-08 -3.93586e-08 6.43633e-08 0 0 0 
ITEM: TIMESTEP
6000
ITEM: NUMBER OF ATOMS
40
ITEM: BOX BOUNDS ff ff ff
1e-05 3e-05
1e-05 3e-05
0 4e-05
ITEM: ATOMS id type diameter x y z vx vy vz fx fy fz 
4 4 1.0539e-06 2.64339e-05 1.4446e-05 2.75478e-05 -9.98457e-08 3.13922e-09 -4.58048e-09 0 0 0 
2 2 1.33137e-06 2.14166e-05 1.35226e-05 9.76368e-06 6.39212e-08 -6.09426e-08 -4.69049e-08 0 0 0 
3 3 1.29968e-06 2.00175e-05 1.93534e-05 3.05954e-05 -4.15629e-11 1.88993e-08 -9.81978e-08 0 0 0 
1 1 1.94414e-06 2.27005e-05 1.7642e-05 9.59302e-07 0 0 1e-07 0 0 2.55326e-06 
5 5 1.4839e-06 2.07545e-05 1.76715e-05 1.65052e-05 8.93682e-09 -4.0949e-08 -9.07927e-08 0 0 0 
6 4 9.10165e-07 2.90018e-05 1.85751e-05 2.53582e-05 8.33791e-08 -5.49036e-08 -5.78893e-09 0 0 0 
7 4 1.11747e-06 2.30386e-05 2.65591e-05 3.18764e-05 -1.92458e-08 -6.30861e-08 -7.51648e-08 0 0 0 
8 1 1.90164e-06 1.43091e-05 1.10404e-05 1.24655e-05 -5.36605e-259 -1e-07 -1.38718e-259 0 -1.48876e-21 0 
9 4 1.14584e-06 2.14625e-05 1.84522e-05 1.28653e-05 1.31837e-08 9.91189e-08 1.27928e-09 0 0 0 
10 4 1.08392e-06 1.77298e-05 2.25374e-05 9.01138e-06 9.76889e-08 2.13677e-08 5.39308e-10 0 0 0 
11 1 2.04569e-06 1.69881e-05 2.90062e-05 1.43853e-05 0 -1e-07 0 0 -5.81417e-06 0 
12 1 1.68822e-06 1.16506e-05 2.91091e-05 1.84353e-05 1.98602e-162 1e-07 6.16564e-163 0 2.8571e-22 0 
13 4 1.51676e-06 1.98555e-05 2.42632e-05 3.05175e-05 -1.15412e-08 6.47119e-08 7.53603e-08 0 0 0 
14 4 1.29483e-06 1.4916e-05 2.78504e-05 2.63361e-05 -8.33791e-08 5.49036e-08 5.78893e-09 0 0 0 
15 4 1.53913e-06 1.08955e-05 1.9569e-05 2.9508e-05 -8.82365e-08 -9.78565e-09 -4.60277e-08 0 0 0 
16 4 1.18053e-06 1.67087e-05 1.29889e-05 2.96739e-05 9.99071e-08 -2.43632e-09 3.55486e-09 0 0 0 
17 1 1.39255e-06 2.92631e-05 2.00672e-05 3.29665e-06 1e-07 0 0 3.60306e-22 0 0 
18 1 1.54742e-06 1.24958e-05 1.07485e-05 1.19967e-05 -4.68189e-156 1e-07 -1.21032e-156 -2.35747e-154 5.0353e-06 -6.09431e-155 
19 1 1.95062e-06 2.62589e-05 1.583e-05 1.0423e-06 0 0 -1e-07 0 0 -1.33879e-21 
20 1 1.83875e-06 2.89898e-05 2.18729e-05 2.02005e-05 1e-07 0 0 6.64355e-22 0 0 
21 4 1.23e-06 2.25777e-05 2.81267e-05 1.92014e-05 -8.28528e-08 -5.547e-08 -7.6484e-09 0 0 0 
22 4 1.1541e-06 1.95622e-05 1.30665e-05 9.6786e-06 1.21395e-08 5.547e-08 -8.23147e-08 0 0 0 
23 4 1.264e-06 1.23253e-05 1.90126e-05 1.03665e-05 -8.0756e-08 -5.547e-08 2.00388e-08 0 0 0 
24 4 1.3453e-06 1.78807e-05 2.41758e-05 1.76694e-05 -9.03907e-08 4.16087e-08 9.91134e-09 0 0 0 
25 1 1.42848e-06 2.93318e-05 2.15017e-05 6.68168e-07 -7.07107e-08 0 7.07107e-08 -1.3255e-05 0 1.3255e-05 
26 1 1.52829e-06 1.29457e-05 1.07165e-05 1.357e-05 0 1e-07 0 0 9.53608e-06 0 
27 1 1.98126e-06 1.11774e-05 2.89436e-05 9.02353e-06 -3.90791e-08 9.2048e-08 0 -5.94597e-22 1.40053e-21 0 
28 1 1.57088e-06 1.36032e-05 2.92687e-05 1.6393e-05 -2.59341e-157 -1e-07 1.03896e-157 -2.80653e-155 -1.08218e-05 1.12434e-155 
29 1 1.42546e-06 2.92974e-05 2.17441e-05 3.15634e-06 -1e-07 0 0 -2.03049e-06 0 0 
30 1 1.67701e-06 1.08438e-05 1.14986e-05 1.0213e-05 -1e-07 0 0 -7.91072e-22 0 0 
31 1 2.07021e-06 1.11029e-05 1.94701e-05 1.97767e-06 -1e-07 2.5981e-177 8.57338e-179 -1.45699e-21 0 0 
32 1 1.97138e-06 1.09198e-05 2.14835e-05 1.83272e-05 1e-07 -4.25237e-156 6.97027e-156 1.31789e-05 -5.60417e-154 9.18606e-154 
33 4 1.32746e-06 1.42778e-05 2.24152e-05 3.57659e-06 1.11711e-08 9.89693e-08 8.9607e-09 0 0 0 
34 4 1.34877e-06 1.8805e-05 2.86996e-05 6.49894e-06 4.9193e-08 4.53431e-08 -7.4324e-08 0 0 0 
35 4 1.24577e-06 1.6999e-05 2.29662e-05 2.09304e-06 5.547e-08 8.31598e-08 2.74416e-09 0 0 0 
36 4 1.16158e-06 2.81063e-05 1.94302e-05 1.66516e-05 -2.86188e-09 -9.95191e-08 -9.36786e-09 0 0 0 
37 4 1.19738e-06 1.50109e-05 2.59743e-05 3.684e-05 3.4936e-08 -1.84838e-08 -9.18576e-08 0 0 0 
38 4 1.19224e-06 2.46287e-05 2.9141e-05 1.17408e-05 -9.97419e-08 6.9219e-11 7.17984e-09 0 0 0 
39 4 1.41884e-06 2.08429e-05 2.47809e-05 9.28704e-07 -1.06098e-08 -8.25258e-08 5.547e-08 0 0 0 
40 4 1.31232e-06 1.26648e-05 2.29998e-05 1.70579e-05 8.92179e-08 -3.57941e-08 -2.75492e-08 0 0 0 
ITEM: TIMESTEP
8000
ITEM: NUMBER OF ATOMS
156
ITEM: BOX BOUNDS ff ff ff
1e-05 3e-05
1e-05 3e-05
0 4e-05
ITEM: ATOMS id type diameter x y z vx vy vz fx fy fz 
4 4 1.0539e-06 2.13522e-05 1.17359e-05 2.98219e-05 1.53804e-08 5.547e-08 -8.17711e-08 0 0 0 
2 2 1.33284e-06 2.52038e-05 2.03528e-05 7.88325e-06 -9.19134e-08 8.93632e-09 -3.83676e-08 0 0 0 
3 3 1.39986e-06 1.97986e-05 1.48078e-05 2.15556e-05 8.54459e-09 -6.6212e-08 7.4451e-08 0 0 0 
1 1 2.08312e-06 2.88938e-05 2.03332e-05 1.46876e-05 1e-07 1.99642e-254 1.34705e-254 1.8634e-21 0 0 
5 5 1.4839e-06 2.17677e-05 1.84489e-05 2.95389e-05 5.547e-08 3.72816e-08 7.43852e-08 0 0 0 
6 4 9.10165e-07 1.16468e-05 1.57332e-05 3.39289e-05 8.83239e-08 2.15334e-08 -4.16558e-08 0 0 0 
7 4 1.11747e-06 1.68472e-05 2.48746e-05 2.97609e-05 -9.81674e-08 -1.23203e-09 1.90168e-08 0 0 0 
8 1 2.18311e-06 1.67288e-05 2.89217e-05 7.30805e-06 1.00738e-267 -1e-07 2.06822e-267 2.66443e-266 -2.64492e-06 5.47029e-266 
9 4 1.14584e-06 1.501e-05 1.48838e-05 2.04332e-06 8.56089e-08 4.13344e-08 3.10257e-08 0 0 0 
10 4 1.08392e-06 2.39578e-05 1.58374e-05 1.69645e-05 -1.98374e-08 8.50564e-08 -4.8702e-08 0 0 0 
11 1 1.84062e-06 1.0889e-05 2.1794e-05 1.11686e-05 1e-07 0 0 6.26602e-06 0 0 
12 1 1.94324e-06 1.22739e-05 2.90819e-05 1.94313e-05 -5.06828e-13 -9.99997e-08 -2.58181e-10 -5.41998e-11 -1.06939e-05 -2.76096e-08 
13 4 1.51676e-06 1.91393e-05 1.48409e-05 2.60104e-05 1.47623e-08 -9.82878e-08 1.10268e-08 0 0 0 
14 4 1.29483e-06 2.92851e-05 1.58932e-05 1.32344e-05 9.19321e-08 2.68847e-08 2.8735e-08 0 0 0 
15 4 1.53913e-06 2.19064e-05 2.2793e-05 3.53133e-05 -2.24454e-08 -9.62654e-09 -9.69718e-08 0 0 0 
16 4 1.18053e-06 2.57875e-05 1.87729e-05 2.70395e-05 8.87854e-09 3.27742e-08 -9.40586e-08 0 0 0 
17 1 2.1488e-06 2.7627e-05 2.51613e-05 1.08703e-06 3.16653e-69 1.04513e-68 -1e-07 0 0 -2.70248e-21 
18 1 2.38302e-06 1.7258e-05 2.27607e-05 1.10723e-06 0 0 1e-07 0 0 1.68562e-05 
19 1 1.75687e-06 1.19736e-05 1.09531e-05 6.57822e-06 4.53251e-108 -1e-07 2.16586e-107 0 -9.42833e-22 0 
20 1 2.06503e-06 2.62963e-05 1.11126e-05 2.33709e-05 7.01286e-08 -7.09626e-08 6.80311e-09 1.60565e-05 -1.62474e-05 1.55762e-06 
21 4 1.23e-06 2.16863e-05 1.93337e-05 1.18658e-05 6.34351e-08 -3.66441e-08 -6.80676e-08 0 0 0 
22 4 1.1541e-06 1.17639e-05 2.41036e-05 2.18324e-06 -1.83663e-08 -8.60137e-08 -4.7585e-08 0 0 0 
23 4 1.264e-06 1.8799e-05 2.27159e-05 7.03467e-06 -9.94779e-08 7.53048e-09 6.88748e-09 0 0 0 
24 4 1.3453e-06 2.51254e-05 2.44749e-05 5.01457e-06 6.26517e-08 7.68242e-08 1.3146e-08 0 0 0 
25 1 1.58222e-06 2.91871e-05 2.11356e-05 1.08846e-06 1e-07 3.83906e-48 -1.30733e-47 4.6963e-22 0 0 
26 1 1.48727e-06 1.07547e-05 1.79625e-05 1.95871e-05 -1e-07 3.06588e-168 -4.40656e-169 -4.33718e-22 0 0 
27 1 2.06168e-06 2.21718e-05 2.90003e-05 1.91235e-05 2.15878e-23 -1e-07 1.61886e-23 1.3435e-21 -6.22344e-06 1.00749e-21 
28 1 2.08885e-06 1.09461e-05 1.6641e-05 1.65842e-05 1e-07 1.00181e-56 -5.15812e-57 1.96629e-05 1.96984e-54 -1.01423e-54 
29 1 1.79064e-06 2.67169e-05 2.90161e-05 6.18498e-06 0 1e-07 0 0 8.05884e-22 0 
30 1 1.4045e-06 1.17818e-05 1.0702e-05 1.012e-05 0 1e-07 0 0 4.94829e-08 0 
31 1 2.14653e-06 2.03638e-05 1.11169e-05 2.25528e-06 -4.92377e-193 -1e-07 -6.24877e-193 0 -2.90891e-21 0 
32 1 2.17895e-06 2.17021e-05 1.10935e-05 2.79614e-05 -7.64182e-74 -1e-07 4.06283e-73 0 -3.43014e-21 0 
33 4 1.32746e-06 2.83109e-05 2.00507e-05 9.18026e-06 9.19134e-08 -8.93632e-09 3.83676e-08 0 0 0 
34 4 1.34877e-06 2.55583e-05 2.60548e-05 2.35607e-05 -5.06193e-10 9.27146e-08 3.74665e-08 0 0 0 
35 4 1.24577e-06 1.74565e-05 1.68027e-05 1.54038e-06 8.96855e-08 -1.8757e-08 -4.00585e-08 0 0 0 
36 4 1.16158e-06 1.35317e-05 2.37759e-05 2.10498e-05 -9.85234e-08 -1.71202e-08 2.14241e-10 0 0 0 
37 4 1.19738e-06 2.01143e-05 2.86145e-05 1.16487e-05 6.34667e-08 -1.85584e-08 7.50171e-08 0 0 0 
38 4 1.19224e-06 2.45765e-05 2.82482e-05 2.09268e-05 7.81849e-08 -2.12036e-08 5.86305e-08 0 0 0 
39 4 1.41884e-06 1.53881e-05 1.4786e-05 2.61207e-05 -1.18791e-08 -9.78724e-08 -1.67293e-08 0 0 0 
40 4 1.31232e-06 2.11721e-05 2.49289e-05 2.89231e-05 9.81674e-08 1.23203e-09 -1.90168e-08 0 0 0 
41 1 1.74451e-06 2.65794e-05 1.09142e-05 2.41985e-06 -1.76619e-271 -1e-07 7.43142e-272 0 -2.65196e-22 0 
42 1 2.28437e-06 1.54394e-05 1.11427e-05 1.28549e-05 0 -1e-07 0 0 -3.25573e-21 0 
43 1 1.76582e-06 1.82513e-05 2.9054e-05 1.54885e-05 1.40903e-125 1e-07 7.49693e-126 0 7.57963e-22 0 
44 1 2.59771e-06 2.54246e-05 1.13908e-05 2.10975e-05 0 -1e-07 0 0 -5.38217e-21 0 
45 1 1.66808e-06 2.49118e-05 2.62466e-05 9.09524e-07 0 0 -1e-07 0 0 -3.40192e-22 
46 1 1.84931e-06 1.08867e-05 1.52348e-05 7.74985e-06 1e-07 0 0 7.59963e-06 0 0 
47 1 1.57105e-06 2.66051e-05 1.31453e-05 7.36952e-07 -3.17925e-297 -1.4242e-297 1e-07 -3.08866e-295 -1.38362e-295 9.71506e-06 
48 1 1.58608e-06 2.0217e-05 2.92095e-05 1.29715e-05 0 -1e-07 0 0 -5.04348e-07 0 
49 1 1.61395e-06 2.9172e-05 1.314e-05 4.0976e-06 1e-07 -1.37108e-15 1.80792e-17 2.02299e-22 0 0 
50 1 1.29858e-06 1.3755e-05 1.06883e-05 1.34741e-05 3.46638e-194 -1e-07 -6.14761e-194 0 -1.4183e-22 0 
51 1 1.83777e-06 1.75633e-05 2.90108e-05 1.31124e-05 -3.34204e-209 1e-07 -5.13664e-209 0 9.13825e-22 0 
52 1 2.15318e-06 1.10306e-05 1.86903e-05 1.55291e-05 1e-07 -2.04591e-49 1.05341e-49 9.20631e-06 -1.88353e-47 9.69797e-48 
53 1 1.38829e-06 2.59971e-05 2.92716e-05 4.62499e-06 0 1e-07 0 0 2.94676e-22 0 
54 1 1.50566e-06 1.07894e-05 1.26596e-05 8.76604e-06 -1e-07 0 0 -4.92098e-22 0 0 
55 1 2.12049e-06 1.36222e-05 2.09858e-05 1.14376e-06 1.18478e-77 -3.93903e-78 -1e-07 0 0 -1.28554e-21 
56 1 1.96236e-06 2.75992e-05 2.89625e-05 1.15063e-05 0 1e-07 0 0 1.52353e-21 0 
57 4 1.39249e-06 1.18175e-05 2.69228e-05 6.8813e-06 9.98351e-08 -4.3497e-09 3.74634e-09 0 0 0 
58 4 1.41645e-06 1.87887e-05 2.43702e-05 3.81846e-05 1.57499e-08 -8.17008e-08 -5.547e-08 0 0 0 
59 4 1.22911e-06 1.71713e-05 1.78782e-05 1.78636e-05 -8.3685e-09 1.33718e-08 9.8748e-08 0 0 0 
60 4 9.19908e-07 1.66144e-05 1.1087e-05 1.71727e-06 -8.24156e-08 1.5555e-10 -5.66361e-08 0 0 0 
61 4 8.96911e-07 1.25048e-05 1.75826e-05 2.2881e-05 1.06e-09 9.99539e-08 2.84439e-09 0 0 0 
62 4 1.26189e-06 1.88057e-05 1.79854e-05 3.04494e-05 1.45021e-08 -5.25106e-10 -9.89415e-08 0 0 0 
63 4 1.27537e-06 2.52053e-05 1.22165e-05 2.32651e-05 -7.01286e-08 7.09626e-08 -6.80311e-09 -1.60565e-05 1.62474e-05 -1.55762e-06 
64 4 9.31118e-07 2.76682e-05 1.398e-05 2.44331e-05 7.90031e-08 3.83097e-08 -4.78631e-08 0 0 0 
65 4 1.28251e-06 2.53171e-05 2.01947e-05 1.56992e-05 -6.52914e-09 -8.49106e-08 -5.24172e-08 0 0 0 
66 4 9.07396e-07 1.22706e-05 2.86784e-05 1.77637e-05 -1.93135e-10 -1.79056e-08 -9.83837e-08 0 0 0 
67 4 9.93779e-07 2.5976e-05 1.97121e-05 2.3254e-06 -2.81986e-08 -9.30707e-08 2.32957e-08 0 0 0 
68 4 1.32371e-06 2.67298e-05 1.97829e-05 3.18316e-05 7.63854e-08 -6.3426e-08 -1.19337e-08 0 0 0 
69 4 1.41288e-06 1.18189e-05 1.99267e-05 3.0097e-05 9.66308e-11 9.97735e-08 -6.72603e-09 0 0 0 
70 4 1.23173e-06 1.47237e-05 2.06538e-05 1.9335e-05 5.56964e-09 5.547e-08 8.30184e-08 0 0 0 
71 4 1.35131e-06 1.71123e-05 2.19759e-05 1.67737e-05 -6.34351e-08 3.66441e-08 6.80676e-08 0 0 0 
72 4 9.09689e-07 2.40351e-05 2.93339e-05 2.787e-05 8.02218e-08 4.44648e-08 -3.98415e-08 0 0 0 
73 4 1.08856e-06 1.93739e-05 2.24782e-05 3.75783e-05 3.20493e-08 4.24434e-08 8.46842e-08 0 0 0 
74 4 1.32151e-06 2.37142e-05 2.729e-05 2.40625e-05 8.72734e-08 1.67742e-08 -4.58473e-08 0 0 0 
75 4 1.14573e-06 1.91498e-05 1.60427e-05 2.39235e-06 3.68117e-08 2.70389e-08 -8.89595e-08 0 0 0 
76 4 9.14817e-07 1.31505e-05 1.44081e-05 9.44646e-06 4.31527e-09 -9.88422e-08 1.45461e-08 0 0 0 
77 4 1.42982e-06 2.86921e-05 1.0783e-05 4.12875e-06 2.27888e-08 9.73611e-08 -1.21714e-09 0 0 0 
78 4 9.70826e-07 1.19798e-05 1.79482e-05 3.98658e-06 -8.96855e-08 1.8757e-08 4.00585e-08 0 0 0 
79 4 1.129e-06 2.38138e-05 2.57917e-05 1.60152e-05 -8.16519e-08 1.55832e-08 -5.55889e-08 0 0 0 
80 4 1.26775e-06 1.79375e-05 2.03896e-05 1.94895e-06 -8.18939e-08 -1.47129e-08 5.547e-08 0 0 0 
81 1 2.20867e-06 1.53627e-05 1.10943e-05 1.68912e-05 0 1e-07 0 0 2.01039e-06 0 
82 1 2.0904e-06 2.88843e-05 1.74608e-05 2.00466e-05 1e-07 3.17987e-274 -8.1184e-275 1.68513e-21 0 0 
83 1 1.91459e-06 2.90549e-05 1.72482e-05 1.41523e-05 -1e-07 0 0 -2.43284e-06 0 0 
84 1 2.10859e-06 1.48076e-05 2.90041e-05 1.78796e-05 -4.64714e-255 -1e-07 -6.17653e-257 -5.42575e-253 -1.16755e-05 -7.21139e-255 
85 1 2.17695e-06 1.10823e-05 1.51338e-05 4.27069e-06 1e-07 6.14212e-61 1.06687e-60 1.24331e-06 7.63656e-60 1.32645e-59 
86 1 2.35089e-06 1.37133e-05 2.30419e-05 1.25843e-06 -3.12522e-59 -8.53662e-59 -1e-07 0 0 -3.40712e-21 
87 1 1.61527e-06 2.70868e-05 1.94477e-05 7.46015e-07 1.57131e-36 1.54122e-36 1e-07 1.93654e-34 1.89945e-34 1.23244e-05 
88 1 2.27451e-06 2.58197e-05 1.12279e-05 2.54951e-05 1.04832e-276 -1e-07 -4.67178e-276 0 -3.23212e-21 0 
89 1 2.02786e-06 1.28149e-05 2.897e-05 4.90619e-06 -6.922e-72 1e-07 -1.79341e-71 0 2.77062e-21 0 
90 1 2.17985e-06 2.89176e-05 2.53556e-05 1.48551e-05 -1e-07 0 0 -1.51022e-06 0 0 
91 1 2.29925e-06 1.10915e-05 1.85503e-05 1.77744e-05 1e-07 -3.37098e-211 -2.28915e-211 1.16256e-05 -3.91898e-209 -2.66128e-209 
92 1 1.90862e-06 2.91436e-05 1.83145e-05 2.86452e-05 -1e-07 0 0 -1.95859e-05 0 0 
93 1 1.2444e-06 1.05626e-05 1.18641e-05 1.11098e-05 1e-07 -4.36412e-221 1.04775e-220 1.192e-05 -5.20204e-219 1.24892e-218 
94 1 1.95881e-06 1.09637e-05 1.97136e-05 9.63673e-07 7.07107e-08 0 7.07107e-08 7.18698e-06 0 7.18698e-06 
95 1 1.6613e-06 2.86049e-05 1.09263e-05 1.55175e-05 0 -1e-07 0 0 -4.65637e-22 0 
96 1 2.16021e-06 2.02284e-05 1.10199e-05 1.08833e-05 0 1e-07 0 0 1.20434e-05 0 
97 1 1.91511e-06 1.40246e-05 1.08848e-05 1.01884e-05 2.9824e-58 1e-07 5.88695e-58 4.34023e-56 1.45528e-05 8.56717e-56 
98 1 1.65144e-06 1.53828e-05 2.90991e-05 1.59383e-05 0 1e-07 0 0 5.79243e-22 0 
99 1 2.1721e-06 1.10696e-05 2.5399e-05 9.58284e-06 1e-07 -3.48611e-230 3.7234e-230 3.28793e-06 -1.14621e-228 1.22423e-228 
100 1 1.80186e-06 2.44909e-05 2.90449e-05 2.13159e-06 0 1e-07 0 0 6.49219e-22 0 
101 1 1.78073e-06 1.15208e-05 1.33204e-05 9.20244e-07 4.18517e-12 -3.54418e-11 -1e-07 0 0 -9.24684e-22 
102 1 1.97479e-06 2.89432e-05 1.20601e-05 1.20915e-05 1e-07 0 0 8.70831e-22 0 0 
103 1 2.02307e-06 2.89269e-05 2.02449e-05 2.09887e-05 1e-07 -7.42242e-283 -7.44148e-283 2.15348e-21 0 0 
104 1 2.09301e-06 2.50848e-05 1.0971e-05 7.5381e-06 2.14935e-107 1e-07 1.47704e-107 3.24735e-105 1.51085e-05 2.23158e-105 
105 1 1.23406e-06 1.21226e-05 1.06541e-05 1.33015e-05 2.5194e-185 -1e-07 -4.2623e-185 0 -1.24442e-22 0 
106 1 1.65087e-06 1.84089e-05 2.92131e-05 9.63296e-06 -8.5297e-20 -1e-07 -1.0082e-19 -6.57235e-18 -7.70525e-06 -7.76846e-18 
107 1 1.83298e-06 1.09534e-05 1.38758e-05 1.58397e-05 -1e-07 -2.66122e-202 -4.8193e-201 -1.00635e-21 0 0 
108 1 1.41013e-06 2.93451e-05 2.17664e-05 2.50204e-06 -1e-07 0 0 -1.00355e-05 0 0 
109 1 1.49625e-06 1.06944e-05 1.32989e-05 1.16352e-05 1e-07 -1.95713e-136 2.51691e-135 1.07547e-05 -2.10483e-134 2.70685e-133 
110 1 1.96691e-06 1.10466e-05 1.69015e-05 1.04709e-06 -7.08205e-08 0 -7.06007e-08 -1.00617e-21 0 -1.00366e-21 
111 1 2.27614e-06 2.56161e-05 1.11777e-05 1.13732e-05 -2.40765e-52 -1e-07 -1.1656e-51 0 -3.35648e-21 0 
112 4 1.21314e-06 1.81572e-05 1.34571e-05 7.71799e-07 -2.02822e-08 -7.38923e-08 -6.42539e-08 0 0 0 
113 4 1.07982e-06 2.44332e-05 2.40709e-05 1.87091e-05 9.12303e-08 4.0535e-08 -5.82606e-09 0 0 0 
114 4 1.19857e-06 1.92345e-05 1.13928e-05 2.88292e-05 -2.68273e-08 -7.9583e-08 5.42848e-08 0 0 0 
115 4 1.38448e-06 1.1742e-05 1.14468e-05 1.09163e-06 1.1679e-08 -9.89025e-08 9.0496e-09 0 0 0 
116 4 1.11664e-06 2.90789e-05 1.89044e-05 6.56379e-06 7.78214e-08 -1.27973e-08 -6.14822e-08 0 0 0 
117 4 1.00339e-06 2.59702e-05 2.2948e-05 7.95182e-06 2.37803e-08 8.49527e-08 4.70908e-08 0 0 0 
118 4 1.05084e-06 2.4719e-05 1.32313e-05 4.16885e-06 7.64943e-08 -3.55131e-09 -6.43119e-08 0 0 0 
119 4 1.2505e-06 2.91e-05 1.87725e-05 2.35856e-05 7.78743e-08 -9.89412e-09 6.19492e-08 0 0 0 
120 4 1.5053e-06 1.10495e-05 1.27834e-05 4.45589e-06 6.32962e-08 2.81964e-08 -7.2101e-08 0 0 0 
121 4 1.17808e-06 2.11516e-05 1.97824e-05 1.72626e-05 -7.78743e-08 9.89412e-09 -6.19492e-08 0 0 0 
122 4 1.05929e-06 2.0991e-05 1.824e-05 2.44653e-05 -3.04574e-08 -1.81629e-08 -9.35011e-08 0 0 0 
123 4 1.37931e-06 2.37013e-05 1.64316e-05 7.16626e-06 -6.78252e-08 2.69918e-08 -6.8346e-08 0 0 0 
124 4 1.48294e-06 2.42715e-05 2.05069e-05 5.98767e-06 -9.723e-08 -1.40129e-08 1.87074e-08 0 0 0 
125 4 1.41503e-06 2.04128e-05 2.45631e-05 1.43987e-05 -8.36011e-08 -2.92384e-09 -5.47933e-08 0 0 0 
126 4 1.3475e-06 2.71147e-05 1.58723e-05 3.49301e-05 -7.22555e-08 6.52104e-08 -2.2951e-08 0 0 0 
127 4 1.24582e-06 1.75085e-05 1.63781e-05 7.44488e-06 -8.26736e-10 -5.38756e-08 8.42421e-08 0 0 0 
128 4 1.24411e-06 2.59462e-05 2.83759e-05 2.07496e-05 6.52914e-09 8.49106e-08 5.24172e-08 0 0 0 
129 4 1.47524e-06 1.63957e-05 1.40197e-05 9.04798e-06 -3.68117e-08 -2.70389e-08 8.89595e-08 0 0 0 
130 4 1.00086e-06 2.66334e-05 1.99458e-05 5.13995e-06 -5.34381e-08 -2.38154e-08 8.10999e-08 0 0 0 
131 4 1.44929e-06 2.7215e-05 1.36057e-05 1.57428e-05 -8.77135e-08 -2.37783e-08 -4.17246e-08 0 0 0 
132 4 8.83361e-07 2.48487e-05 1.20173e-05 1.91518e-05 1.98374e-08 -8.50564e-08 4.8702e-08 0 0 0 
133 4 1.42674e-06 1.66958e-05 1.45331e-05 3.24581e-06 5.86068e-08 8.00876e-08 1.22973e-08 0 0 0 
134 4 1.19358e-06 2.43688e-05 1.67817e-05 1.62416e-06 -6.99447e-08 -6.86051e-08 2.00269e-08 0 0 0 
135 4 1.32041e-06 1.39645e-05 1.58953e-05 1.2579e-05 1.68228e-08 -9.37447e-08 -3.04781e-08 0 0 0 
136 4 1.17877e-06 2.32897e-05 2.75287e-05 5.15457e-06 1.49149e-08 -9.81816e-08 1.17437e-08 0 0 0 
137 4 1.3741e-06 1.3961e-05 1.45471e-05 1.60752e-05 1.91429e-08 3.55813e-08 9.14742e-08 0 0 0 
138 4 1.41347e-06 2.24502e-05 1.69689e-05 1.73176e-05 4.00905e-08 1.72242e-08 8.99782e-08 0 0 0 
139 4 1.38647e-06 2.60439e-05 1.99784e-05 1.87068e-05 -1.36953e-09 9.96234e-08 8.56179e-09 0 0 0 
140 4 9.27768e-07 1.25441e-05 1.9433e-05 2.51649e-05 1.7885e-09 -9.99796e-08 9.42514e-10 0 0 0 
141 4 1.50481e-06 2.69411e-05 2.09576e-05 2.00078e-05 -6.09229e-08 -7.92721e-08 2.08073e-09 0 0 0 
142 4 1.35189e-06 2.01472e-05 2.34123e-05 1.04491e-05 3.03798e-09 -2.69044e-08 9.62649e-08 0 0 0 
143 4 1.09841e-06 2.38149e-05 2.49804e-05 1.95609e-05 2.68273e-08 7.9583e-08 -5.42848e-08 0 0 0 
144 4 1.02053e-06 1.26507e-05 2.43147e-05 1.67736e-05 -2.01594e-08 -2.83477e-08 9.37551e-08 0 0 0 
145 4 1.26242e-06 1.75697e-05 1.72416e-05 1.31625e-05 8.3685e-09 -1.33718e-08 -9.8748e-08 0 0 0 
146 4 1.37796e-06 2.08033e-05 1.41501e-05 2.23305e-05 5.70873e-08 6.68535e-08 -4.76618e-08 0 0 0 
147 4 1.37679e-06 1.54642e-05 2.78247e-05 5.42324e-06 2.62022e-08 7.1572e-08 6.47372e-08 0 0 0 
148 4 1.40372e-06 1.41549e-05 1.971e-05 2.23898e-06 -9.48374e-08 -1.70383e-08 2.67501e-08 0 0 0 
149 4 1.17418e-06 1.66205e-05 1.88373e-05 1.21845e-05 9.67473e-08 2.61353e-09 2.51622e-08 0 0 0 
150 4 1.3423e-06 2.15108e-05 2.16848e-05 1.03254e-05 4.23788e-09 -8.1205e-09 -9.95796e-08 0 0 0 
151 4 1.46745e-06 2.28042e-05 2.10958e-05 1.596e-05 -2.53519e-08 8.81853e-08 3.97572e-08 0 0 0 
152 4 9.31221e-07 1.94921e-05 2.61763e-05 1.10056e-05 -5.32838e-09 -1.05828e-08 9.92956e-08 0 0 0 
153 4 1.27847e-06 2.66e-05 1.16686e-05 1.61364e-05 2.01027e-08 1.1147e-08 9.73223e-08 0 0 0 
154 4 8.91512e-07 2.43962e-05 2.26083e-05 3.63597e-05 5.3893e-08 -2.58625e-08 8.01665e-08 0 0 0 
155 4 1.27574e-06 1.20939e-05 1.48993e-05 6.37732e-06 -3.33163e-08 6.75666e-08 -6.5763e-08 0 0 0 
156 4 1.27393e-06 1.38597e-05 2.25181e-05 3.39771e-05 9.66883e-08 1.90078e-08 -1.70315e-08 0 0 0 
ITEM: TIMESTEP
10000
ITEM: NUMBER OF ATOMS
508
ITEM: BOX BOUNDS ff ff ff
1e-05 3e-05
1e-05 3e-05
0 4e-05
ITEM: ATOMS id type diameter x y z vx vy vz fx fy fz 
325 1 1.35222e-06 1.25807e-05 1.07424e-05 7.29592e-07 -1.32699e-74 -6.60243e-08 -7.51052e-08 0 -1.66727e-22 -1.89126e-22 
31 1 1.6558e-06 2.12103e-05 1.22712e-05 7.54087e-07 8.00312e-167 -1.1701e-167 1e-07 1.18149e-164 -1.7274e-165 1.47629e-05 
184 1 1.30414e-06 1.96329e-05 1.27014e-05 5.52178e-07 1.04224e-42 -2.48283e-41 1e-07 2.08225e-40 -4.96036e-39 1.99787e-05 
94 1 1.99173e-06 2.56879e-05 1.30355e-05 9.50454e-07 -5.93276e-20 -2.50358e-18 1e-07 -5.38833e-18 -2.27383e-16 9.08232e-06 
47 1 1.2605e-06 2.74191e-05 1.33168e-05 6.76382e-07 -8.42954e-36 1.96036e-35 -1e-07 0 0 -6.53433e-23 
417 1 1.23679e-06 1.06372e-05 1.39383e-05 6.37226e-07 -7.07107e-08 0 -7.07107e-08 -1.84553e-22 0 -1.84553e-22 
207 1 1.39958e-06 1.19822e-05 1.3602e-05 6.59169e-07 2.98839e-163 -1.96996e-162 1e-07 2.42784e-161 -1.60044e-160 8.12425e-06 
85 1 1.61715e-06 1.34553e-05 1.45746e-05 8.49748e-07 -2.13676e-63 -8.16778e-64 -1e-07 0 0 -3.94647e-22 
350 1 1.83975e-06 1.69715e-05 1.53804e-05 8.43617e-07 1.39881e-176 2.91017e-177 1e-07 2.13348e-174 4.43862e-175 1.52521e-05 
352 1 1.26326e-06 2.61752e-05 1.51099e-05 5.80811e-07 7.8194e-74 -1.00427e-73 1e-07 7.94745e-72 -1.02071e-71 1.01638e-05 
424 1 1.45087e-06 1.32019e-05 1.64217e-05 7.70826e-07 -1.23073e-145 4.64462e-145 -1e-07 0 0 -2.3145e-22 
210 1 1.60205e-06 2.9195e-05 1.64893e-05 8.04988e-07 7.07107e-08 0 -7.07107e-08 6.44954e-22 0 -6.44954e-22 
373 1 1.30997e-06 1.07115e-05 1.74559e-05 8.45435e-07 -1e-07 7.80868e-57 6.8627e-57 -8.19894e-23 0 0 
374 1 1.86736e-06 2.42146e-05 1.81553e-05 9.62166e-07 5.57083e-216 -1.87627e-215 -1e-07 0 0 -1.48067e-21 
194 1 1.44832e-06 2.79253e-05 1.83194e-05 6.69659e-07 0 0 1e-07 0 0 1.09003e-05 
397 1 1.77538e-06 1.39353e-05 1.93862e-05 8.2165e-07 -5.68877e-100 -1.92855e-99 1e-07 -7.51405e-98 -2.54734e-97 1.32086e-05 
200 1 1.47649e-06 1.12129e-05 1.95141e-05 7.34691e-07 -2.71585e-132 6.77533e-132 1e-07 -1.93107e-131 4.81751e-131 7.11037e-07 
87 1 1.41695e-06 2.37251e-05 1.9804e-05 7.26904e-07 -5.19462e-193 1.74956e-192 -1e-07 0 0 -4.27688e-22 
321 1 1.92553e-06 1.5993e-05 2.12709e-05 9.99949e-07 -4.49586e-82 5.57562e-82 -1e-07 0 0 -2.05653e-21 
165 1 1.73238e-06 2.43413e-05 2.16056e-05 8.77009e-07 -1.97311e-85 1.51399e-84 -1e-07 0 0 -9.38301e-22 
338 1 1.55959e-06 2.65451e-05 2.16737e-05 6.85663e-07 0 0 1e-07 0 0 1.88259e-05 
364 1 1.45713e-06 1.76645e-05 2.23236e-05 6.32042e-07 0 0 1e-07 0 0 1.93044e-05 
404 1 1.89704e-06 1.47066e-05 2.27364e-05 9.11083e-07 2.33545e-33 8.35173e-33 1e-07 1.74875e-31 6.25365e-31 7.48785e-06 
8 1 1.63176e-06 1.32874e-05 2.39291e-05 7.41423e-07 -6.1427e-70 4.77942e-70 1e-07 -9.14739e-68 7.11727e-68 1.48915e-05 
351 1 2.12622e-06 1.52869e-05 2.48104e-05 9.8476e-07 -5.84701e-40 -2.0499e-39 1e-07 -9.16244e-38 -3.21226e-37 1.56703e-05 
379 1 1.44013e-06 2.62554e-05 2.50201e-05 6.73698e-07 6.1652e-38 -6.50524e-38 1e-07 5.71695e-36 -6.03227e-36 9.27294e-06 
177 1 1.51293e-06 2.50751e-05 2.60999e-05 7.77821e-07 0 0 -1e-07 0 0 -5.52314e-22 
380 1 1.61081e-06 1.50088e-05 2.70808e-05 8.44697e-07 0 0 -1e-07 0 0 -5.45685e-22 
162 1 1.77274e-06 2.05563e-05 2.72511e-05 9.36502e-07 -1.42624e-31 -7.55534e-31 -1e-07 0 0 -8.45492e-22 
206 1 1.29888e-06 2.21817e-05 2.84489e-05 6.99231e-07 -2.35331e-102 5.11991e-102 -1e-07 0 0 -2.57716e-22 
196 1 1.36491e-06 1.34028e-05 2.86694e-05 6.31973e-07 1.82763e-176 -6.64777e-176 1e-07 1.84521e-174 -6.71169e-174 1.00962e-05 
410 1 1.36316e-06 1.06869e-05 2.08556e-05 1.1559e-06 -1e-07 3.78865e-146 1.3123e-145 -3.63333e-22 0 0 
30 1 2.13169e-06 1.91966e-05 2.0865e-05 1.08942e-06 1.33371e-214 2.47412e-214 -1e-07 0 0 -3.03442e-21 
17 1 2.22259e-06 2.20175e-05 2.20881e-05 1.15942e-06 2.75116e-34 5.66141e-35 -1e-07 0 0 -2.36274e-21 
86 1 2.14438e-06 1.79135e-05 2.51363e-05 1.02067e-06 6.85781e-57 1.32884e-56 1e-07 7.06606e-55 1.36919e-54 1.03037e-05 
104 1 1.90074e-06 2.44141e-05 2.78519e-05 1.00212e-06 -5.95662e-28 -5.6767e-29 -1e-07 0 0 -1.28236e-21 
332 1 1.58123e-06 2.07942e-05 1.08239e-05 1.60888e-06 -2.03193e-305 -1e-07 4.22778e-305 0 -5.74831e-22 0 
334 1 1.53714e-06 2.47694e-05 1.08359e-05 1.56348e-06 0 -1e-07 0 0 -5.06857e-22 0 
41 1 1.12941e-06 2.61855e-05 1.06039e-05 1.55028e-06 0 -1e-07 0 0 -5.92552e-23 0 
233 4 1.2976e-06 1.33416e-05 1.25547e-05 1.54359e-06 -5.68485e-08 7.59274e-08 -3.16745e-08 0 0 0 
231 4 1.41786e-06 2.40545e-05 1.43759e-05 1.66069e-06 -4.07793e-08 -3.9442e-08 8.23491e-08 0 0 0 
440 4 1.3368e-06 1.78628e-05 1.74447e-05 1.68321e-06 1.41399e-08 -7.13407e-08 6.86336e-08 0 0 0 
138 4 1.41347e-06 1.74005e-05 1.9151e-05 1.61864e-06 -5.83823e-08 -5.547e-08 -5.92839e-08 0 0 0 
416 1 1.30584e-06 2.46409e-05 2.93218e-05 1.88956e-06 -5.58262e-155 1e-07 -4.13201e-155 0 3.11667e-22 0 
192 1 1.81327e-06 1.45705e-05 1.08565e-05 2.22831e-06 1.83688e-15 1e-07 1.02346e-15 1.84047e-13 1.00196e-05 1.02547e-13 
403 1 1.95677e-06 1.90224e-05 1.1033e-05 2.02828e-06 0 -1e-07 0 0 -1.45692e-21 0 
269 4 1.38828e-06 2.61053e-05 1.48486e-05 2.19688e-06 5.4926e-08 6.05023e-08 -5.76421e-08 0 0 0 
25 1 1.47575e-06 2.93288e-05 2.08153e-05 2.48178e-06 -1e-07 0 0 -1.33415e-05 0 0 
213 1 1.26886e-06 2.94154e-05 2.22474e-05 2.43936e-06 -1e-07 -2.51855e-24 -4.90958e-24 -9.95947e-06 -2.50834e-22 -4.88968e-22 
161 1 1.46888e-06 2.93142e-05 2.65447e-05 2.03772e-06 -1e-07 -9.03281e-34 -9.13023e-34 -9.72153e-06 -8.78127e-32 -8.87598e-32 
179 1 1.48902e-06 2.10033e-05 2.9301e-05 2.28816e-06 5.08356e-170 -1e-07 1.7335e-170 4.62417e-168 -9.09632e-06 1.57684e-168 
389 1 1.18459e-06 2.69945e-05 1.0628e-05 2.60951e-06 9.05084e-113 -1e-07 7.5846e-112 0 -6.70232e-23 0 
482 4 1.08228e-06 1.50849e-05 1.42195e-05 2.52088e-06 -7.3767e-08 -6.31273e-08 -2.39452e-08 0 0 0 
33 4 1.32746e-06 1.94795e-05 1.63553e-05 2.55651e-06 -3.71981e-09 8.86139e-08 4.61925e-08 0 0 0 
155 4 1.27574e-06 2.9194e-05 1.89422e-05 2.84587e-06 7.80261e-08 -6.05734e-08 -1.55816e-08 0 0 0 
115 4 1.38448e-06 2.30382e-05 2.25371e-05 2.63325e-06 -9.42059e-08 2.33075e-09 -3.34637e-08 0 0 0 
186 1 1.6213e-06 1.08327e-05 2.4279e-05 2.85067e-06 -1e-07 1.15582e-176 -1.22549e-176 -4.51044e-22 0 0 
280 4 1.12081e-06 1.3907e-05 2.48497e-05 2.76454e-06 -5.21232e-08 8.15185e-08 -2.52568e-08 0 0 0 
429 4 1.44475e-06 2.63858e-05 2.53451e-05 2.51617e-06 5.04052e-08 4.76649e-08 -7.20234e-08 0 0 0 
108 1 1.26439e-06 1.0582e-05 2.72218e-05 2.62962e-06 1e-07 5.09818e-264 -3.27769e-265 1.00466e-05 5.12195e-262 -3.29298e-263 
294 4 1.37482e-06 1.31929e-05 1.1297e-05 3.28598e-06 9.38873e-08 9.16949e-09 -3.31828e-08 0 0 0 
49 1 1.39245e-06 2.93762e-05 1.29601e-05 3.21576e-06 -1e-07 0 0 -1.44803e-05 0 0 
240 4 8.8494e-07 1.71048e-05 1.66567e-05 3.46001e-06 7.78042e-08 -4.09078e-08 -4.76766e-08 0 0 0 
110 1 1.46756e-06 1.08046e-05 1.92877e-05 3.02593e-06 -1e-07 2.56312e-78 -1.56624e-78 -1.7611e-22 0 0 
492 4 1.34258e-06 2.00421e-05 2.45272e-05 3.40417e-06 -1.39007e-08 -7.36376e-08 6.62138e-08 0 0 0 
468 4 1.4048e-06 2.26921e-05 2.52808e-05 3.29217e-06 -4.45063e-08 -6.66287e-08 5.98315e-08 0 0 0 
65 4 1.28251e-06 1.59777e-05 2.70193e-05 3.47886e-06 -1.28437e-09 -5.09036e-08 -8.60649e-08 0 0 0 
223 4 1.64683e-06 2.00878e-05 2.78749e-05 3.28668e-06 -2.49541e-08 8.02147e-08 -5.42485e-08 0 0 0 
259 4 1.16423e-06 2.20968e-05 2.7631e-05 3.26552e-06 -7.12235e-08 -6.78766e-09 6.98652e-08 0 0 0 
173 1 1.07673e-06 2.64666e-05 1.05539e-05 3.71583e-06 5.29326e-276 -1e-07 -1.04683e-275 0 -5.69855e-23 0 
135 4 1.32041e-06 2.46049e-05 1.31958e-05 3.77149e-06 -5.4926e-08 -6.05023e-08 5.76421e-08 0 0 0 