ITEM: TIMESTEP
0
ITEM: NUMBER OF ATOMS
5
ITEM: BOX BOUNDS ff ff ff
1e-05 3e-05
1e-05 3e-05
0 4e-05
ITEM: ATOMS id type diameter x y z vx vy vz fx fy fz 
4 4 1.0539e-06 2e-05 2e-05 1.9e-05 0 0 0 0 0 -8.22e-06 
2 2 1.2839e-06 2e-05 1.9e-05 2e-05 0 0 0 0 -3.122e-05 0 
3 3 1.0283e-06 2e-05 2e-05 2e-05 0 0 0 0 2e-05 -4.3e-05 
1 1 1.0839e-06 2e-05 2.1e-05 2e-05 0 0 0 0 1.122e-05 0 
5 5 1.4839e-06 2e-05 2e-05 2.1e-05 0 0 0 0 0 5.122e-05 
ITEM: TIMESTEP
2000
ITEM: NUMBER OF ATOMS
8
ITEM: BOX BOUNDS ff ff ff
1e-05 3e-05
1e-05 3e-05
0 4e-05
ITEM: ATOMS id type diameter x y z vx vy vz fx fy fz 
4 4 1.0539e-06 2e-05 1.99999e-05 1.898e-05 -8.34075e-15 -7.97195e-14 -9.99968e-12 -2.41398e-08 -2.30724e-07 -2.8941e-05 
2 2 1.30371e-06 2.00487e-05 1.84748e-05 1.97013e-05 8.30565e-13 -8.60195e-12 -5.03156e-12 2.05759e-06 -2.131e-05 -1.24649e-05 
3 3 1.23897e-06 2.00008e-05 2.00079e-05 1.99817e-05 9.19345e-13 3.32342e-12 -9.38668e-12 9.22627e-06 3.33529e-05 -9.42019e-05 
1 1 1.52571e-06 2.00002e-05 2.10199e-05 1.99989e-05 5.57009e-13 9.65799e-12 -2.53237e-12 3.55682e-06 6.16717e-05 -1.61706e-05 
5 5 1.4839e-06 2.00003e-05 2.00035e-05 2.10194e-05 2.88812e-13 2.79411e-12 9.59737e-12 4.31892e-06 4.17834e-05 0.00014352 
6 4 9.10165e-07 1.99088e-05 2.19744e-05 2.05587e-05 -8.22719e-13 8.59694e-12 5.04141e-12 -1.77178e-06 1.8514e-05 1.0857e-05 
7 2 1.2285e-06 1.99539e-05 1.94574e-05 2.02761e-05 -1.12846e-12 -9.93612e-12 -2.66861e-15 -1.55282e-05 -0.000136727 -3.67217e-08 
8 4 1.0304e-06 1.94655e-05 2.18779e-05 1.92527e-05 -4.25493e-12 6.82832e-12 -5.93882e-12 -1.83545e-06 2.94552e-06 -2.56182e-06 
ITEM: TIMESTEP
4000
ITEM: NUMBER OF ATOMS
17
ITEM: BOX BOUNDS ff ff ff
1e-05 3e-05
1e-05 3e-05
0 4e-05
ITEM: ATOMS id type diameter x y z vx vy vz fx fy fz 
4 4 1.0539e-06 2.0001e-05 1.99901e-05 1.8963e-05 1.40048e-12 -5.84253e-12 -7.99397e-12 1.26496e-05 -5.27714e-05 -7.22038e-05 
2 2 1.27936e-06 2.02939e-05 1.80625e-05 2.00371e-05 4.18437e-14 -9.93438e-12 -1.14299e-12 6.00687e-07 -0.000142613 -1.64082e-05 
3 3 1.49273e-06 1.99931e-05 2.00129e-05 1.99802e-05 -3.20397e-12 1.04742e-12 -9.41475e-12 -9.34968e-05 3.05654e-05 -0.000274737 
1 1 1.39794e-06 2.03958e-05 1.98418e-05 2.00561e-05 9.36148e-12 -2.67923e-12 -2.27693e-12 0.00037507 -0.000107344 -9.12258e-05 
5 5 1.4839e-06 2.00002e-05 2.00062e-05 2.10387e-05 -4.08601e-13 -7.96401e-13 9.95986e-12 -1.2052e-05 -2.34904e-05 0.000293773 
6 4 9.10165e-07 1.99079e-05 2.19742e-05 2.05686e-05 -1.04048e-13 -8.45406e-12 5.34022e-12 -1.14903e-06 -9.33602e-05 5.89733e-05 
7 2 1.25892e-06 1.98957e-05 2.00115e-05 2.02369e-05 -8.74354e-12 5.19731e-13 4.82498e-12 -0.000238899 1.42006e-05 0.000131832 
8 4 1.0304e-06 1.94586e-05 2.18943e-05 1.92477e-05 -2.60554e-12 9.60726e-12 9.54873e-13 -8.92134e-06 3.28951e-05 3.26947e-06 
9 1 1.363e-06 1.98774e-05 2.23883e-05 2.02929e-05 -6.11072e-13 8.30862e-12 -5.53113e-12 -7.7988e-06 0.000106039 -7.0591e-05 
10 1 1.414e-06 1.97325e-05 2.08846e-05 1.91474e-05 -6.95565e-12 4.81596e-13 -7.16848e-12 -0.00012567 8.70114e-06 -0.000129515 
11 1 1.26999e-06 2.00003e-05 2.09677e-05 2.0415e-05 2.53886e-13 9.86296e-12 1.63021e-12 4.07336e-06 0.000158242 2.61552e-05 
12 2 1.29405e-06 1.97991e-05 1.88652e-05 1.93403e-05 -3.31063e-12 3.56121e-13 -9.42936e-12 -2.37745e-05 2.55739e-06 -6.77146e-05 
13 2 1.16226e-06 1.999e-05 1.89283e-05 2.03268e-05 -6.85817e-12 -1.43333e-12 7.1352e-12 -0.000105487 -2.20464e-05 0.000109748 
14 4 9.27591e-07 2.04944e-05 1.86977e-05 2.0151e-05 9.34799e-12 3.46951e-12 -7.60061e-13 0.000109691 4.0712e-05 -8.91873e-06 
15 4 9.16305e-07 2.03185e-05 2.20096e-05 2.12945e-05 4.91862e-12 4.24323e-13 8.69638e-12 7.72227e-06 6.66189e-07 1.36534e-05 
16 4 1.03392e-06 1.88938e-05 2.1305e-05 1.8413e-05 -7.03926e-12 3.529e-12 -6.164e-12 -4.58589e-06 2.29905e-06 -4.01568e-06 
17 4 8.38918e-07 1.99748e-05 2.09702e-05 1.93697e-05 7.21002e-12 2.88e-12 6.30247e-12 0.000112027 4.47484e-05 9.79254e-05 
ITEM: TIMESTEP
6000
ITEM: NUMBER OF ATOMS
34
ITEM: BOX BOUNDS ff ff ff
1e-05 3e-05
1e-05 3e-05
0 4e-05
ITEM: ATOMS id type diameter x y z vx vy vz fx fy fz 
4 4 1.0539e-06 1.99913e-05 1.99833e-05 1.89557e-05 -7.55778e-12 -6.49429e-12 8.39173e-13 -0.000109644 -9.42157e-05 1.21743e-05 
2 2 1.30695e-06 2.0071e-05 1.82353e-05 1.95222e-05 9.89047e-13 -8.65637e-12 -4.90806e-12 2.82679e-05 -0.000247407 -0.000140277 
3 3 1.46842e-06 2.00505e-05 1.94916e-05 1.96584e-05 1.49628e-12 3.76973e-13 -9.88023e-12 4.29649e-05 1.08246e-05 -0.000283706 
1 1 1.37434e-06 2.01528e-05 2.00657e-05 2.01165e-05 5.84072e-12 -3.28941e-12 -7.42063e-12 0.000168083 -9.4662e-05 -0.000213549 
5 5 1.4839e-06 1.99972e-05 2.0003e-05 2.10581e-05 -2.1295e-12 -7.79579e-13 9.73948e-12 -0.000102883 -3.7664e-05 0.000470547 
6 4 9.10165e-07 1.99103e-05 2.19758e-05 2.05738e-05 2.68181e-12 9.60682e-12 -7.18989e-13 4.6846e-05 0.000167813 -1.25593e-05 
7 2 1.16361e-06 2.02644e-05 1.98154e-05 2.05661e-05 3.50666e-12 -5.79878e-12 7.35374e-12 5.78554e-05 -9.56723e-05 0.000121327 
8 4 1.0304e-06 1.94594e-05 2.19093e-05 1.92589e-05 -3.09939e-12 5.12871e-12 8.00563e-12 -3.97537e-06 6.57824e-06 1.02683e-05 
9 1 1.41797e-06 1.99429e-05 2.31039e-05 2.00261e-05 -6.8791e-13 8.93641e-12 -4.4348e-12 0 0 0 
10 1 1.52096e-06 2.02072e-05 2.06679e-05 1.95379e-05 5.74183e-12 4.09413e-12 -7.0901e-12 0.000188722 0.000134566 -0.000233037 
11 1 1.53399e-06 1.93804e-05 2.08952e-05 2.09015e-05 -4.16832e-12 6.07965e-12 6.75744e-12 -9.43969e-05 0.000137681 0.000153031 
12 2 1.33066e-06 1.98043e-05 1.88516e-05 1.99312e-05 -9.11077e-12 -4.12101e-12 -1.05271e-13 -0.000358852 -0.000162317 -4.14637e-06 
13 2 1.44524e-06 1.99827e-05 1.89239e-05 2.03448e-05 -3.31575e-12 -3.43257e-12 8.78767e-12 -0.00015434 -0.000159778 0.000409045 
14 4 9.27591e-07 2.05136e-05 1.86949e-05 2.0154e-05 9.35908e-12 -3.35266e-12 1.08039e-12 0.000237289 -8.50028e-05 2.73921e-05 
15 4 9.16305e-07 2.03285e-05 2.20123e-05 2.13111e-05 5.35603e-12 3.45767e-12 7.70438e-12 3.6509e-05 2.3569e-05 5.25164e-05 
16 4 1.03392e-06 1.88864e-05 2.13139e-05 1.83983e-05 -1.47264e-12 5.18704e-12 -8.42176e-12 -1.01511e-05 3.57547e-05 -5.8052e-05 
17 4 8.38918e-07 1.99648e-05 2.09841e-05 1.93599e-05 -5.71416e-12 5.85417e-12 -5.75127e-12 -0.000112057 0.000114802 -0.000112785 
18 1 1.54503e-06 2.06717e-05 1.96175e-05 2.06422e-05 9.11214e-12 -2.46582e-12 3.2998e-12 0.000494394 -0.000133787 0.000179036 
19 1 1.27452e-06 1.97967e-05 2.13512e-05 1.83876e-05 9.75776e-12 -1.39255e-12 -1.6873e-12 5.44169e-05 -7.76597e-06 -9.4097e-06 
20 3 1.38371e-06 1.99407e-05 2.05296e-05 2.02673e-05 -2.9723e-12 9.5208e-12 7.20953e-13 -0.000111582 0.000357416 2.70649e-05 
21 4 9.59836e-07 2.00239e-05 1.90169e-05 1.98061e-05 4.15757e-12 2.28192e-12 -8.80383e-12 7.91828e-05 4.34602e-05 -0.000167673 
22 4 1.00698e-06 2.09075e-05 2.25445e-05 1.94909e-05 7.86137e-12 1.12628e-12 -6.07704e-12 0 0 0 
23 4 1.05975e-06 1.89457e-05 2.05675e-05 2.09817e-05 -8.41351e-12 -5.23812e-12 1.3323e-12 -0.000131324 -8.17605e-05 2.07956e-05 
24 4 8.30702e-07 1.9962e-05 2.03234e-05 2.03549e-05 -3.93859e-12 4.72649e-13 9.17955e-12 -5.87358e-05 7.04857e-06 0.000136894 
25 1 1.25875e-06 2.01074e-05 2.00834e-05 1.87682e-05 1.1199e-12 9.74248e-13 -9.88922e-12 2.45852e-05 2.13876e-05 -0.000217097 
26 1 1.63869e-06 1.97922e-05 2.16026e-05 2.05767e-05 -8.6921e-12 4.82192e-12 -1.09385e-12 -8.99922e-05 4.9923e-05 -1.1325e-05 
27 1 1.3746e-06 2.0562e-05 2.10624e-05 1.99924e-05 8.25717e-12 5.48027e-12 1.33636e-12 0.000269577 0.000178918 4.36289e-05 
28 1 1.43876e-06 1.85733e-05 2.08801e-05 1.90558e-05 -3.36101e-12 -5.21087e-12 7.84541e-12 -2.68634e-05 -4.16487e-05 6.27057e-05 
29 2 1.21506e-06 2.05055e-05 1.7866e-05 2.0515e-05 2.71879e-12 -8.26026e-12 4.93724e-12 2.06059e-05 -6.2605e-05 3.74196e-05 
30 2 1.31244e-06 1.94621e-05 2.02068e-05 1.98684e-05 -9.38882e-12 -8.75937e-13 -3.32908e-12 -0.00041232 -3.84677e-05 -0.0001462 
31 2 1.21874e-06 1.97752e-05 1.88669e-05 1.87737e-05 -2.60951e-12 4.11478e-13 -9.64475e-12 -2.63648e-05 4.15732e-06 -9.74445e-05 
32 4 1.00407e-06 2.06445e-05 2.04192e-05 1.83957e-05 7.20204e-12 4.41271e-12 -5.35338e-12 6.77358e-05 4.1502e-05 -5.0349e-05 
33 4 8.84021e-07 1.933e-05 2.2155e-05 1.78851e-05 -4.41714e-12 7.6074e-12 -4.75566e-12 -2.00196e-06 3.44787e-06 -2.15539e-06 
34 4 1.02455e-06 1.7942e-05 2.15136e-05 1.82351e-05 -8.98331e-12 3.03848e-12 -3.17298e-12 -1.155e-05 3.90662e-06 -4.07955e-06 
ITEM: TIMESTEP
8000
ITEM: NUMBER OF ATOMS
87
ITEM: BOX BOUNDS ff ff ff
1e-05 3e-05
1e-05 3e-05
0 4e-05
ITEM: ATOMS id type diameter x y z vx vy vz fx fy fz 
4 4 1.0539e-06 1.99829e-05 1.99779e-05 1.89412e-05 -3.43831e-12 7.48146e-13 -9.36047e-12 -9.64721e-05 2.09915e-05 -0.000262636 
2 2 1.35636e-06 1.95881e-05 1.81502e-05 1.98826e-05 -3.87918e-12 -7.33432e-12 -5.58209e-12 -0.000120668 -0.000228145 -0.00017364 
3 3 1.39571e-06 2.03129e-05 1.90827e-05 2.00096e-05 6.59641e-12 -6.08086e-12 4.41707e-12 0.00047238 -0.00043546 0.000316313 
1 1 1.64813e-06 2.06492e-05 1.95751e-05 2.03265e-05 9.71196e-12 -1.53906e-12 1.81911e-12 0.00113112 -0.000179249 0.000211865 
5 5 1.4839e-06 1.99918e-05 2.00005e-05 2.10767e-05 -3.59331e-12 3.08129e-13 9.32701e-12 -0.00027659 2.37178e-05 0.000717934 
6 4 9.10165e-07 1.99093e-05 2.1983e-05 2.05883e-05 -2.83572e-12 8.2274e-12 4.92631e-12 -5.52103e-05 0.000160184 9.59133e-05 
7 2 1.44675e-06 2.02745e-05 1.98137e-05 2.0583e-05 5.36797e-12 -1.81768e-12 8.23899e-12 0.000321581 -0.000108892 0.000493576 
8 4 1.0304e-06 1.94428e-05 2.19105e-05 1.92599e-05 -8.25644e-12 -2.6424e-12 4.98487e-12 -0.000266649 -8.53387e-05 0.000160991 
9 1 1.30329e-06 1.94061e-05 2.35046e-05 2.01451e-05 -8.51761e-13 9.34014e-12 3.46933e-12 -9.41195e-06 0.000103208 3.83361e-05 
10 1 1.32091e-06 2.05993e-05 2.06697e-05 2.02439e-05 9.75306e-12 2.04499e-12 8.34192e-13 0.000716296 0.000150191 6.12658e-05 
11 1 1.35107e-06 1.9085e-05 2.05408e-05 2.1318e-05 -7.50445e-13 -7.09807e-13 9.94651e-12 -2.23145e-05 -2.11061e-05 0.000295759 
12 2 1.22917e-06 2.02619e-05 1.90147e-05 1.96797e-05 4.89347e-12 -8.50031e-12 -1.94902e-12 0.000309102 -0.000536932 -0.000123112 
13 2 1.32943e-06 2.00198e-05 1.94209e-05 2.01742e-05 -5.25387e-12 -5.92979e-12 6.102e-12 -0.00018593 -0.000209851 0.000215945 
14 4 9.27591e-07 2.05287e-05 1.86828e-05 2.01584e-05 6.61269e-12 -7.2021e-12 2.09814e-12 0.000238788 -0.000260072 7.57652e-05 
15 4 9.16305e-07 2.03468e-05 2.2005e-05 2.13121e-05 8.42808e-12 -4.14774e-12 3.42983e-12 3.34281e-05 -1.64511e-05 1.36037e-05 
16 4 1.03392e-06 1.88935e-05 2.13319e-05 1.83989e-05 4.80001e-12 8.71337e-12 -1.0184e-12 5.24261e-05 9.5168e-05 -1.1123e-05 
17 4 8.38918e-07 1.99718e-05 2.09944e-05 1.93499e-05 -9.32565e-13 8.56317e-12 -5.0796e-12 -3.43525e-05 0.000315438 -0.000187115 
18 1 1.27327e-06 2.04887e-05 1.97276e-05 2.10852e-05 4.99036e-12 -2.96927e-12 8.14124e-12 0.000261575 -0.000155638 0.000426732 
19 1 1.38681e-06 1.97159e-05 2.20774e-05 1.81746e-05 8.1739e-12 1.61393e-12 -5.53015e-12 0.000133847 2.64279e-05 -9.05558e-05 
20 3 1.37341e-06 1.98952e-05 2.11176e-05 2.02264e-05 1.27328e-12 9.41685e-12 3.11477e-12 0.000118938 0.000879631 0.000290952 
21 4 9.59836e-07 2.00145e-05 1.90021e-05 1.98013e-05 -6.53475e-12 -7.47388e-12 1.19922e-12 -0.000356568 -0.000407811 6.54355e-05 
22 4 1.00698e-06 2.0925e-05 2.25402e-05 1.94824e-05 9.04349e-12 -9.52693e-13 -4.16024e-12 7.29013e-05 -7.67983e-06 -3.35365e-05 
23 4 1.05975e-06 1.89304e-05 2.05676e-05 2.09878e-05 -7.37516e-12 3.1066e-12 5.99633e-12 -0.000107315 4.52037e-05 8.72519e-05 
24 4 8.30702e-07 1.99663e-05 2.03191e-05 2.03735e-05 1.20045e-12 -3.60942e-12 9.2483e-12 4.30534e-05 -0.000129449 0.000331683 
25 1 1.56284e-06 2.02879e-05 2.08506e-05 1.86107e-05 8.37887e-13 7.9016e-12 -6.07146e-12 5.21228e-05 0.000491539 -0.00037769 
26 1 1.32279e-06 1.92367e-05 2.26566e-05 2.00235e-05 -5.8662e-12 -3.6531e-12 7.2279e-12 -8.40513e-05 -5.23419e-05 0.000103562 
27 1 1.61765e-06 2.0854e-05 2.16111e-05 2.03097e-05 9.52623e-12 1.21344e-12 2.78898e-12 0.000385874 4.91521e-05 0.000112972 
28 1 1.38655e-06 1.79231e-05 2.12832e-05 1.98709e-05 -4.52297e-12 -3.64258e-12 -8.14091e-12 -5.00774e-05 -4.033e-05 -9.01345e-05 
29 2 1.51094e-06 2.05181e-05 1.78512e-05 2.05195e-05 6.381e-12 -7.40602e-12 2.10562e-12 0.000158219 -0.000183635 5.22095e-05 
30 2 1.31213e-06 1.9839e-05 1.97973e-05 2.00344e-05 -9.40506e-12 -2.10863e-12 -2.66431e-12 -0.000539177 -0.000120885 -0.000152741 
31 2 1.51531e-06 1.97635e-05 1.88564e-05 1.87619e-05 -5.87229e-12 -6.27889e-12 -5.10801e-12 -0.000397846 -0.000425394 -0.000346067 
32 4 1.00407e-06 2.06546e-05 2.04137e-05 1.83799e-05 5.78715e-12 -4.4618e-12 -6.82651e-12 0.000215492 -0.000166141 -0.000254194 
33 4 8.84021e-07 1.93178e-05 2.21643e-05 1.78743e-05 -7.56321e-12 1.76216e-12 -6.30021e-12 -0.000100952 2.35208e-05 -8.40935e-05 
34 4 1.02455e-06 1.79269e-05 2.15264e-05 1.8232e-05 -7.21582e-12 6.75862e-12 -1.50096e-12 -6.04862e-05 5.66538e-05 -1.25817e-05 
35 1 1.60493e-06 1.9672e-05 2.05469e-05 1.99081e-05 -8.95603e-12 9.7418e-13 -4.34057e-12 -0.000505626 5.49988e-05 -0.000245053 
36 1 1.53547e-06 2.01855e-05 2.29803e-05 1.93771e-05 4.77251e-12 8.44249e-12 -2.43876e-12 8.166e-05 0.000144455 -4.17284e-05 
37 1 1.36609e-06 2.01635e-05 2.06564e-05 1.93093e-05 5.14921e-12 4.18392e-12 -7.48201e-12 0.000269469 0.000218953 -0.000391549 
38 1 1.38944e-06 1.83173e-05 2.16017e-05 2.05416e-05 4.4802e-12 3.98939e-12 8.00079e-12 4.59419e-05 4.09089e-05 8.20436e-05 
39 1 1.45675e-06 1.9979e-05 1.93121e-05 2.07332e-05 -3.38722e-12 -4.82508e-12 8.07746e-12 -0.000288389 -0.000410808 0.000687717 
40 1 1.51467e-06 1.98242e-05 2.09993e-05 2.19584e-05 -1.67271e-12 8.11205e-12 5.60327e-12 -2.85666e-05 0.000138538 9.56929e-05 
41 1 1.63648e-06 2.0294e-05 2.04999e-05 1.96693e-05 9.31688e-12 8.13104e-13 -3.54043e-12 0.000922766 8.05318e-05 -0.000350653 
42 1 1.63829e-06 1.85782e-05 2.0867e-05 1.83699e-05 -4.14824e-12 -9.08973e-12 -4.11012e-13 -7.53093e-05 -0.00016502 -7.46174e-06 
43 2 1.51139e-06 1.99212e-05 1.83443e-05 2.05714e-05 -2.07354e-12 -5.71191e-12 7.94194e-12 -8.9207e-05 -0.000245736 0.000341675 
44 3 1.41174e-06 1.97837e-05 1.9893e-05 1.92979e-05 -8.52068e-12 1.53407e-13 -5.23207e-12 -0.000514187 9.25749e-06 -0.000315733 
45 3 1.26797e-06 1.99769e-05 1.9997e-05 2.03264e-05 -3.85066e-12 -4.30036e-12 8.16574e-12 -0.000123988 -0.000138468 0.000262929 
46 4 9.63591e-07 1.99624e-05 1.92243e-05 1.94848e-05 -9.88427e-12 -1.2763e-12 -8.19861e-13 -0.000467695 -6.03908e-05 -3.87935e-05 
47 4 1.01629e-06 1.97149e-05 2.23908e-05 2.15248e-05 -5.96848e-12 -5.79136e-12 5.55314e-12 -5.30676e-05 -5.14926e-05 4.93746e-05 
48 4 9.49888e-07 2.00663e-05 1.91575e-05 1.93635e-05 -3.66728e-12 -6.46964e-12 -6.68541e-12 -0.000147016 -0.000259358 -0.000268008 
49 4 9.25748e-07 1.97805e-05 2.05111e-05 2.02715e-05 -4.83088e-12 -3.91031e-12 7.83403e-12 -0.000234966 -0.000190191 0.000381034 
50 4 9.59751e-07 2.1581e-05 1.94528e-05 2.21864e-05 3.94392e-13 -6.24688e-12 7.79878e-12 1.98893e-06 -3.15031e-05 3.93294e-05 
51 4 1.09689e-06 2.00283e-05 1.90018e-05 1.80929e-05 1.36224e-12 -1.36567e-12 -9.8122e-12 2.77762e-05 -2.78461e-05 -0.000200072 
52 4 1.04576e-06 2.09872e-05 2.21333e-05 2.02371e-05 5.24668e-12 8.41817e-12 1.26757e-12 0.000113638 0.00018233 2.74545e-05 
53 4 9.43633e-07 2.19171e-05 2.18282e-05 2.05181e-05 9.62195e-12 1.96469e-12 1.8863e-12 3.38236e-05 6.90636e-06 6.63083e-06 
54 4 9.30024e-07 1.98034e-05 1.95053e-05 2.02054e-05 -9.74499e-12 -1.81185e-12 1.32376e-12 -0.000560234 -0.000104162 7.6102e-05 
55 4 8.51366e-07 1.99603e-05 2.19399e-05 1.95805e-05 6.93966e-12 3.7016e-12 6.1757e-12 0.00011017 5.87645e-05 9.80421e-05 
56 4 1.00415e-06 2.07769e-05 2.04558e-05 1.92109e-05 9.88575e-12 -5.331e-13 1.40988e-12 0.00034518 -1.86142e-05 4.92286e-05 
57 4 1.02169e-06 2.00093e-05 2.06405e-05 2.02059e-05 9.00476e-12 9.54737e-13 4.24296e-12 0.00038241 4.05453e-05 0.000180188 
58 4 1.13442e-06 1.96239e-05 2.05079e-05 1.97041e-05 -4.20152e-12 -2.4223e-12 -8.74527e-12 -0.000265572 -0.00015311 -0.000552776 
59 4 1.21177e-06 2.10787e-05 2.04449e-05 2.08317e-05 6.61882e-12 5.85231e-12 4.68419e-12 0.000216595 0.000191511 0.000153286 
60 4 9.47162e-07 2.05932e-05 2.05535e-05 1.86167e-05 9.7701e-12 -1.16868e-12 -1.78308e-12 0.000241505 -2.88884e-05 -4.40755e-05 
61 1 1.31613e-06 1.99579e-05 2.30384e-05 2.12984e-05 3.18015e-12 8.9754e-12 -3.05431e-12 2.84301e-05 8.02387e-05 -2.7305e-05 
62 1 1.49277e-06 2.0504e-05 1.94472e-05 1.95007e-05 9.71958e-12 1.86738e-12 -1.42923e-12 0.000945795 0.000181711 -0.000139075 
63 1 1.40977e-06 2.0491e-05 2.0464e-05 2.15444e-05 2.91024e-12 5.74427e-12 7.65074e-12 7.39145e-05 0.000145893 0.000194314 
64 1 1.4309e-06 2.18318e-05 1.99833e-05 2.13413e-05 9.65042e-12 -1.04586e-12 -2.40322e-12 0.000126624 -1.37229e-05 -3.1533e-05 
65 1 1.58172e-06 1.98977e-05 2.05492e-05 1.85935e-05 -5.94645e-12 1.23347e-12 -7.9447e-12 -0.000429443 8.90792e-05 -0.000573754 
66 1 1.40921e-06 1.99386e-05 1.93973e-05 1.88782e-05 -5.05312e-12 -1.57755e-13 -8.62792e-12 -0.000326127 -1.01815e-05 -0.000556844 
67 1 1.47634e-06 2.03154e-05 2.17006e-05 2.00595e-05 3.67234e-12 9.19298e-12 -1.41531e-12 0.000156165 0.000390928 -6.01857e-05 
68 1 1.37097e-06 1.91464e-05 2.0469e-05 1.96969e-05 -8.30759e-12 -3.59848e-12 -4.24675e-12 -0.00069801 -0.000302347 -0.000356816 
69 1 1.51692e-06 1.95503e-05 2.19416e-05 1.89797e-05 -3.55088e-12 -4.12605e-14 -9.34824e-12 -0.000137104 -1.59313e-06 -0.000360948 
70 1 1.59048e-06 1.96746e-05 2.103e-05 2.01468e-05 -5.86543e-12 8.05126e-12 8.79758e-13 -0.000705886 0.000968944 0.000105876 
71 1 1.60683e-06 2.04214e-05 1.93862e-05 1.92203e-05 7.48394e-12 -3.37941e-13 -6.62393e-12 0.000735325 -3.3204e-05 -0.000650825 
72 1 1.70842e-06 1.98366e-05 2.09308e-05 2.03235e-05 -5.36709e-13 6.39301e-12 7.67081e-12 -6.46346e-05 0.000769895 0.000923777 
73 2 1.21543e-06 2.05066e-05 1.82798e-05 1.9183e-05 4.29179e-12 -8.7311e-12 -2.31265e-12 0.000104081 -0.00021174 -5.60846e-05 
74 2 1.38757e-06 1.92663e-05 1.86463e-05 2.02169e-05 -9.96954e-12 -2.06885e-13 7.51923e-13 -0.000375147 -7.78493e-06 2.82943e-05 
75 2 1.27773e-06 1.90592e-05 2.06005e-05 1.96961e-05 -9.0386e-12 2.44933e-12 -3.50777e-12 -0.000750486 0.000203371 -0.000291254 
76 4 9.23486e-07 1.90829e-05 2.04935e-05 2.02292e-05 -8.22096e-12 -3.20219e-12 4.70763e-12 -0.000358062 -0.000139471 0.00020504 
77 4 8.41943e-07 2.12028e-05 1.99891e-05 2.17382e-05 -4.92738e-12 -1.65719e-12 8.54252e-12 -2.82217e-05 -9.49157e-06 4.89274e-05 
78 4 9.79896e-07 1.94693e-05 2.24345e-05 1.92747e-05 -3.87244e-12 9.21794e-12 -1.83707e-13 -9.34748e-05 0.000222507 -4.43441e-06 
79 4 1.01482e-06 1.7468e-05 2.08667e-05 2.08819e-05 -6.3865e-12 -5.60234e-12 5.27507e-12 -5.39019e-06 -4.72836e-06 4.45215e-06 
80 4 1.07869e-06 1.9652e-05 2.36175e-05 1.84149e-05 -4.196e-12 5.01157e-12 -7.56821e-12 -2.99308e-06 3.57484e-06 -5.39853e-06 
81 4 8.77617e-07 1.92504e-05 2.20082e-05 2.08981e-05 -9.5641e-12 -9.80438e-13 2.75075e-12 -2.87171e-05 -2.94385e-06 8.25939e-06 
82 4 1.14852e-06 1.79062e-05 1.97556e-05 1.79998e-05 -4.97627e-12 -8.22952e-12 -2.74075e-12 -4.27366e-06 -7.06758e-06 -2.35378e-06 
83 4 8.97969e-07 1.9861e-05 2.00218e-05 2.23589e-05 -7.82912e-13 -8.79469e-12 4.69473e-12 -2.69078e-06 -3.02264e-05 1.61353e-05 
84 4 9.69929e-07 2.10536e-05 2.02906e-05 2.05599e-05 9.04396e-12 -2.73641e-13 -4.25816e-12 0.00017795 -5.3842e-06 -8.37843e-05 
85 4 1.07297e-06 2.06663e-05 1.94943e-05 1.86355e-05 7.01969e-12 8.54465e-13 -7.07064e-12 0.000240913 2.9325e-05 -0.000242662 
86 4 9.88215e-07 1.88933e-05 2.05152e-05 2.07997e-05 -7.25874e-12 -3.26829e-12 -6.05219e-12 -0.000168898 -7.60471e-05 -0.000140823 
87 4 9.70982e-07 1.97395e-05 2.18145e-05 1.91942e-05 7.36646e-12 -6.75987e-12 1.98365e-13 0.000198194 -0.000181873 5.33697e-06 
ITEM: TIMESTEP
10000
ITEM: NUMBER OF ATOMS
288
ITEM: BOX BOUNDS ff ff ff
1e-05 3e-05
1e-05 3e-05
0 4e-05
ITEM: ATOMS id type diameter x y z vx vy vz fx fy fz 
4 4 1.0539e-06 1.99933e-05 1.99728e-05 1.893e-05 7.93567e-12 -3.20252e-12 -5.17388e-12 0.000180644 -7.29007e-05 -0.000117776 
2 2 1.33036e-06 1.98216e-05 1.8613e-05 2.0147e-05 -4.42809e-12 -8.70638e-12 2.14265e-12 -0.000504739 -0.000992402 0.000244232 
3 3 1.38024e-06 2.01036e-05 1.92659e-05 1.9495e-05 5.56124e-12 -3.1317e-12 -7.69838e-12 0.000694426 -0.000391052 -0.000961289 
1 1 1.45111e-06 1.94106e-05 1.96144e-05 1.95728e-05 -9.60975e-12 7.88377e-13 -2.65164e-12 -0.00152529 0.000125134 -0.000420879 
5 5 1.4839e-06 1.99862e-05 1.99978e-05 2.1095e-05 -7.73356e-13 -4.66722e-13 9.95912e-12 -9.62737e-05 -5.81013e-05 0.00123979 
6 4 9.10165e-07 1.99078e-05 2.2001e-05 2.05861e-05 -1.6501e-12 9.46946e-12 2.75798e-12 -4.45165e-05 0.000255468 7.44048e-05 
7 2 1.4768e-06 2.0071e-05 1.99258e-05 2.11472e-05 2.25271e-12 -2.08954e-12 9.51626e-12 0.000306699 -0.000284485 0.00129561 
8 4 1.0304e-06 1.94242e-05 2.19054e-05 1.92549e-05 -9.50797e-12 -5.42725e-13 -3.05022e-12 -0.000437355 -2.49647e-05 -0.000140306 
9 1 1.46212e-06 1.9692e-05 2.37378e-05 1.94804e-05 -5.05186e-12 6.4565e-12 5.72646e-12 -9.31627e-05 0.000119066 0.000105603 
10 1 1.67371e-06 2.14601e-05 2.0676e-05 2.02642e-05 9.37154e-12 3.21708e-12 -1.35079e-12 0.00106058 0.000364077 -0.000152869 
11 1 1.74967e-06 1.93061e-05 2.06792e-05 2.0467e-05 -7.83647e-12 2.02792e-12 5.87174e-12 -0.00196806 0.000509295 0.00147464 
12 2 1.25552e-06 2.02594e-05 1.89934e-05 2.02466e-05 2.91926e-13 -9.23015e-12 3.83655e-12 3.58898e-05 -0.00113477 0.00047167 
13 2 1.30511e-06 1.97785e-05 1.96244e-05 1.96766e-05 -4.94508e-12 1.65852e-12 -8.53203e-12 -0.000390585 0.000130997 -0.000673898 
14 4 9.27591e-07 2.05373e-05 1.86664e-05 2.01602e-05 2.19793e-12 -9.62276e-12 -1.60364e-12 0.000135297 -0.000592343 -9.87141e-05 
15 4 9.16305e-07 2.0351e-05 2.20201e-05 2.13146e-05 -7.89462e-13 9.52162e-12 -2.95221e-12 -1.73973e-05 0.000209827 -6.50576e-05 
16 4 1.03392e-06 1.88807e-05 2.13325e-05 1.83979e-05 -7.52641e-12 3.54231e-12 5.55023e-12 -0.000255404 0.000120206 0.000188343 
17 4 8.38918e-07 1.99876e-05 2.10025e-05 1.93447e-05 8.0727e-12 2.61724e-12 -5.28976e-12 0.000190638 6.18064e-05 -0.000124918 
18 1 1.59578e-06 2.08553e-05 1.96169e-05 2.03525e-05 9.41146e-12 -1.42852e-12 3.06329e-12 0.00170962 -0.000259495 0.000556456 
19 1 1.70828e-06 1.98569e-05 2.18834e-05 1.7515e-05 1.94409e-12 5.37785e-12 -8.20361e-12 0.000144783 0.000400506 -0.00061095 
20 3 1.22885e-06 2.02693e-05 2.09517e-05 2.05548e-05 5.04639e-12 4.98258e-12 7.05037e-12 0.000611795 0.00060406 0.000854747 
21 4 9.59836e-07 2.00112e-05 1.89828e-05 1.98023e-05 -6.18304e-13 -9.94881e-12 -7.99301e-13 -6.07571e-05 -0.000977612 -7.85426e-05 
22 4 1.00698e-06 2.09286e-05 2.25556e-05 1.94747e-05 -2.25345e-12 9.13722e-12 -3.38131e-12 -8.5458e-05 0.000346511 -0.00012823 
23 4 1.05975e-06 1.89214e-05 2.0557e-05 2.10019e-05 -4.08448e-12 -5.03767e-12 7.61176e-12 -0.000266659 -0.000328889 0.000496942 
24 4 8.30702e-07 1.99754e-05 2.03206e-05 2.03895e-05 6.25784e-12 -1.68641e-12 7.61548e-12 0.000636594 -0.000171554 0.000774702 
25 1 1.38604e-06 1.98895e-05 2.11896e-05 1.79751e-05 2.40326e-12 5.2572e-12 -8.16004e-12 0.000206316 0.000451322 -0.000700525 
26 1 1.50803e-06 1.92414e-05 2.2264e-05 1.93466e-05 -8.22312e-12 5.66366e-12 5.5075e-13 -0.000831828 0.00057292 5.57123e-05 
27 1 1.49779e-06 2.11813e-05 2.13618e-05 2.01528e-05 9.50805e-12 1.75261e-12 -2.55448e-12 0.00094568 0.000174316 -0.000254071 
28 1 1.60925e-06 1.7322e-05 2.1012e-05 1.96524e-05 -7.87615e-12 -4.43237e-12 4.28022e-12 -0.000186449 -0.000104926 0.000101324 
29 2 1.47356e-06 2.07866e-05 1.73809e-05 2.08117e-05 5.56661e-12 -7.73003e-12 3.04294e-12 5.49308e-05 -7.62792e-05 3.00275e-05 
30 2 1.21094e-06 1.98685e-05 2.02583e-05 2.03299e-05 1.03867e-12 -4.98758e-12 8.60495e-12 9.09752e-05 -0.000436851 0.000753689 
31 2 1.43256e-06 2.00599e-05 1.85408e-05 1.91402e-05 -2.22969e-12 -8.28475e-12 -5.13726e-12 -0.000189986 -0.000705922 -0.000437733 
32 4 1.00407e-06 2.06626e-05 2.04068e-05 1.83632e-05 3.80296e-12 -4.79323e-12 -7.90964e-12 0.000278962 -0.000351602 -0.000580203 
33 4 8.84021e-07 1.93092e-05 2.21807e-05 1.78671e-05 -3.55803e-12 7.98454e-12 -4.8567e-12 -4.04759e-05 9.08317e-05 -5.52495e-05 
34 4 1.02455e-06 1.79155e-05 2.1535e-05 1.82214e-05 -7.63504e-12 6.32704e-12 -1.29413e-12 -0.000221915 0.000183897 -3.76143e-05 
35 1 1.43238e-06 2.06556e-05 2.16239e-05 1.99362e-05 8.70382e-12 4.26642e-13 -4.90525e-12 0.000499386 2.44788e-05 -0.000281441 
36 1 1.3422e-06 2.12952e-05 2.30206e-05 1.87643e-05 4.49828e-12 5.07718e-12 -7.34763e-12 8.9701e-05 0.000101245 -0.00014652 
37 1 1.57825e-06 2.06288e-05 2.04857e-05 1.97522e-05 8.47621e-12 2.86248e-12 -4.46766e-12 0.00127518 0.000430638 -0.000672126 
38 1 1.56962e-06 1.79004e-05 2.21838e-05 2.05283e-05 -4.23766e-12 7.85129e-12 4.51657e-12 -0.000106371 0.000197078 0.000113372 
39 1 1.68128e-06 2.0145e-05 1.92693e-05 2.00562e-05 2.13191e-12 -9.68563e-12 1.28202e-12 0.000300116 -0.00136348 0.000180473 
40 1 1.50093e-06 2.022e-05 1.99477e-05 2.22842e-05 3.51187e-12 1.18606e-12 9.28763e-12 0.000220827 7.45798e-05 0.000584007 
41 1 1.45811e-06 2.09538e-05 2.09755e-05 2.00638e-05 9.04069e-12 2.70245e-12 -3.311e-12 0.00081069 0.000242332 -0.000296901 
42 1 1.52193e-06 1.84009e-05 1.99219e-05 1.7645e-05 6.58201e-13 3.67872e-13 -9.97153e-12 1.21323e-05 6.78081e-06 -0.0001838 
43 2 1.39359e-06 2.02518e-05 1.85129e-05 2.10068e-05 5.47529e-15 -7.23426e-12 6.90402e-12 4.56808e-07 -0.00060356 0.000576008 
44 3 1.40528e-06 1.97851e-05 1.98913e-05 1.98762e-05 -8.07371e-12 -8.96187e-13 -5.83199e-12 -0.000942684 -0.000104639 -0.000680942 
45 3 1.12921e-06 2.00334e-05 2.04818e-05 2.01564e-05 9.91554e-12 6.61366e-13 -1.11561e-12 0.000972671 6.4877e-05 -0.000109436 
46 4 9.63591e-07 1.99571e-05 1.92141e-05 1.94698e-05 -5.3071e-13 -6.94565e-12 -7.1747e-12 -3.88027e-05 -0.000507829 -0.000524575 
47 4 1.01629e-06 1.96984e-05 2.23857e-05 2.15342e-05 -8.85514e-12 3.76987e-13 4.6308e-12 -9.46624e-05 4.03003e-06 4.95038e-05 
48 4 9.49888e-07 2.007e-05 1.91483e-05 1.93468e-05 3.28315e-12 -5.79764e-12 -7.4571e-12 0.000291912 -0.00051548 -0.000663027 
49 4 9.25748e-07 1.97735e-05 2.05124e-05 2.02886e-05 5.7726e-13 -4.21173e-13 9.97444e-12 2.9517e-05 -2.15358e-05 0.000510022 
50 4 9.59751e-07 2.15717e-05 1.94427e-05 2.22001e-05 -2.45724e-12 -5.33401e-12 8.09384e-12 -6.53278e-05 -0.000141809 0.000215182 
51 4 1.09689e-06 2.00338e-05 1.89968e-05 1.80787e-05 -1.45982e-12 -3.01991e-12 -9.42067e-12 -3.64167e-05 -7.53347e-05 -0.000235008 
52 4 1.04576e-06 2.10015e-05 2.2143e-05 2.02438e-05 5.23591e-12 6.1771e-12 5.86759e-12 0.000278436 0.000328487 0.000312028 
53 4 9.43633e-07 2.19283e-05 2.18365e-05 2.05039e-05 6.58832e-12 4.9233e-12 -5.68815e-12 0.000104183 7.78537e-05 -8.99486e-05 
54 4 9.30024e-07 1.97877e-05 1.95021e-05 2.02172e-05 -8.06696e-12 -2.81068e-12 5.19848e-12 -0.000778766 -0.000271336 0.00050185 
55 4 8.51366e-07 1.99601e-05 2.19498e-05 1.95911e-05 5.04348e-12 8.28023e-12 2.44972e-12 0.000196828 0.000323146 9.56032e-05 
56 4 1.00415e-06 2.07903e-05 2.04589e-05 1.92186e-05 6.30135e-12 1.37431e-13 7.76364e-12 0.000238574 5.20325e-06 0.000293937 
57 4 1.02169e-06 2.00239e-05 2.06512e-05 2.02126e-05 8.80902e-12 3.84179e-12 2.76438e-12 0.000913492 0.000398392 0.000286665 
58 4 1.13442e-06 1.96135e-05 2.0503e-05 1.97006e-05 -2.85839e-12 -2.78662e-12 -9.16866e-12 -0.000371377 -0.000362053 -0.00119124 
59 4 1.21177e-06 2.10908e-05 2.04556e-05 2.08424e-05 4.89159e-12 4.03388e-12 7.73306e-12 0.000276809 0.000228272 0.000437603 
60 4 9.47162e-07 2.06063e-05 2.0558e-05 1.86054e-05 7.0178e-12 -1.89354e-12 -6.86767e-12 0.000228051 -6.15325e-05 -0.000223172 
61 1 1.50911e-06 1.99515e-05 2.29899e-05 2.20821e-05 -1.7857e-13 8.52446e-12 5.2251e-12 -5.25011e-06 0.000250626 0.000153622 
62 1 1.46602e-06 1.99171e-05 1.98607e-05 1.99803e-05 -5.84705e-12 -6.46989e-12 -4.89413e-12 -0.000253372 -0.000280362 -0.000212079 
63 1 1.54212e-06 2.10591e-05 2.02832e-05 2.04777e-05 9.43878e-12 3.07983e-12 1.19339e-12 0.000984098 0.000321107 0.000124425 
64 1 1.63682e-06 2.2198e-05 1.967e-05 2.18743e-05 9.59368e-12 -1.53998e-12 2.36426e-12 0.000512018 -8.21894e-05 0.000126181 
65 1 1.55937e-06 2.04491e-05 2.1046e-05 1.79366e-05 5.3253e-12 1.99768e-12 -8.22499e-12 0.000559356 0.000209831 -0.000863933 
66 1 1.47568e-06 1.94354e-05 1.82781e-05 1.84143e-05 -5.94216e-12 -5.6089e-12 -5.76463e-12 -0.000212957 -0.000201014 -0.000206595 
67 1 1.47463e-06 2.05881e-05 2.18057e-05 2.01082e-05 2.40006e-12 8.24465e-12 5.12499e-12 0.000176608 0.000606679 0.00037712 
68 1 1.39692e-06 2.01863e-05 2.12364e-05 1.944e-05 7.62386e-12 4.67376e-12 -4.47579e-12 0.000759441 0.000465571 -0.00044585 
69 1 1.46277e-06 2.0883e-05 2.23057e-05 1.97064e-05 3.27389e-12 9.4479e-12 1.36991e-13 0.000169878 0.000490241 7.10829e-06 
70 1 1.58518e-06 1.92858e-05 2.03342e-05 2.0271e-05 -9.14342e-12 -3.70863e-12 1.62601e-12 -0.00218967 -0.000888142 0.000389397 
71 1 1.68248e-06 2.00781e-05 2.0031e-05 1.98275e-05 4.99866e-12 9.81963e-13 -8.60518e-12 0.000856238 0.000168204 -0.00147401 
72 1 1.5517e-06 2.01466e-05 2.09713e-05 1.88693e-05 6.60327e-12 6.93077e-12 -2.89159e-12 0.000675528 0.000709032 -0.000295816 
73 2 1.51077e-06 2.05154e-05 1.82643e-05 1.91751e-05 5.26764e-12 -7.85744e-12 -3.24233e-12 0.000356691 -0.000532055 -0.000219549 
74 2 1.29196e-06 1.92299e-05 1.90184e-05 1.98711e-05 -7.31703e-12 -5.87395e-12 3.45799e-12 -0.000864123 -0.000693699 0.00040838 
75 2 1.23321e-06 1.84929e-05 2.06274e-05 1.9608e-05 -9.06909e-12 -3.89516e-12 -1.60602e-12 -0.000449954 -0.000193254 -7.96812e-05 
76 4 9.23486e-07 1.90647e-05 2.04883e-05 2.02331e-05 -9.57712e-12 -2.87663e-12 -6.19372e-14 -0.000967312 -0.000290547 -6.25581e-06 
77 4 8.41943e-07 2.11903e-05 1.99824e-05 2.1751e-05 -8.12093e-12 -3.17609e-12 4.8952e-12 -0.000185008 -7.23564e-05 0.00011152 
78 4 9.79896e-07 1.94672e-05 2.24533e-05 1.92704e-05 3.7076e-13 9.98468e-12 -4.10645e-13 2.61682e-05 0.000704718 -2.89833e-05 
79 4 1.01482e-06 1.74724e-05 2.08531e-05 2.08959e-05 -2.20573e-14 -6.26515e-12 7.79406e-12 -1.35467e-07 -3.84779e-05 4.78678e-05 
80 4 1.07869e-06 1.9639e-05 2.36213e-05 1.84022e-05 -4.13772e-12 6.4643e-13 -9.08083e-12 -7.57049e-05 1.18273e-05 -0.000166146 