NUFEB Simulation 

       10 atoms 
       1 atom types 

   0.000000   4e-04  xlo xhi 
   0.000000   4e-04  ylo yhi 
   0.000000   2e-5  zlo zhi 

 Atoms 

 1 1 1.0e-5 150 2.134e-4 2.281e-4 5e-6 1.0e-5
 2 1 1.0e-5 150 1.775e-4 2.854e-4 5e-6 1.0e-5
 3 1 1.0e-5 150 1.274e-4 1.185e-4 5e-6 1.0e-5
 4 1 1.0e-5 150 2.988e-4 2.321e-4 5e-6 1.0e-5
 5 1 1.0e-5 150 1.623e-4 1.945e-4 5e-6 1.0e-5
 6 1 1.0e-5 150 2.557e-4 2.063e-4 5e-6 1.0e-5
 7 1 1.0e-5 150 1.312e-4 2.766e-4 5e-6 1.0e-5
 8 1 1.0e-5 150 2.867e-4 1.217e-4 5e-6 1.0e-5
 9 1 1.0e-5 150 1.948e-4 2.442e-4 5e-6 1.0e-5
10 1 1.0e-5 150 2.416e-4 1.464e-4 5e-6 1.0e-5
