NUFEB Simulation 

       10 atoms 
       1 atom types 

   0.000000   2e-04  xlo xhi 
   0.000000   2e-04  ylo yhi 
   0.000000   2e-5  zlo zhi 

 Atoms 

     1 1 1.0e-5 150 1.712e-4 1.843e-4 5e-6 1.0e-5
     2 1 1.0e-5 150 4.541e-5 1.078e-4 5e-6 1.0e-5
     3 1 1.0e-5 150 1.233e-4 1.646e-4 5e-6 1.0e-5
     4 1 1.0e-5 150 3.887e-5 2.062e-5 5e-6 1.0e-5
     5 1 1.0e-5 150 1.960e-4 3.983e-5 5e-6 1.0e-5
     6 1 1.0e-5 150 6.751e-5 1.251e-4 5e-6 1.0e-5
     7 1 1.0e-5 150 2.823e-5 7.169e-5 5e-6 1.0e-5
     8 1 1.0e-5 150 1.544e-4 1.829e-4 5e-6 1.0e-5
     9 1 1.0e-5 150 9.172e-5 1.055e-4 5e-6 1.0e-5
    10 1 1.0e-5 150 1.102e-4 2.934e-5 5e-6 1.0e-5

