ITEM: TIMESTEP
0
ITEM: NUMBER OF ATOMS
12
ITEM: BOX BOUNDS ff ff ff
0.0000000000000000e+00 2.0000000000000001e-04
0.0000000000000000e+00 2.0000000000000001e-04
0.0000000000000000e+00 2.0000000000000001e-04
ITEM: ATOMS id type diameter x y z vx vy vz fx fy fz 
1 1 9.66e-07 0.0001 1.39e-05 3.9e-07 0 0 0 0 0 0.000186 
2 2 9.66e-07 0.0001 2.04e-05 3.9e-07 0 0 0 0 0 0.000186 
3 3 9.66e-07 0.0001 3.99e-05 3.9e-07 0 0 0 0 0 0.000186 
4 1 9.66e-07 0.0001 6.26e-05 3.9e-07 0 0 0 0 0 0.000186 
5 2 9.66e-07 0.0001 6.91e-05 3.9e-07 0 0 0 0 0 0.000186 
6 3 9.66e-07 0.0001 8.86e-05 3.9e-07 0 0 0 0 0 0.000186 
7 1 9.66e-07 0.0001 0.0001114 3.9e-07 0 0 0 0 0 0.000186 
8 2 9.66e-07 0.0001 0.0001179 3.9e-07 0 0 0 0 0 0.000186 
9 3 9.66e-07 0.0001 0.0001374 3.9e-07 0 0 0 0 0 0.000186 
10 1 9.66e-07 0.0001 0.0001601 3.9e-07 0 0 0 0 0 0.000186 
11 2 9.66e-07 0.0001 0.0001666 3.9e-07 0 0 0 0 0 0.000186 
12 3 9.66e-07 0.0001 0.0001861 3.9e-07 0 0 0 0 0 0.000186 
ITEM: TIMESTEP
1
ITEM: NUMBER OF ATOMS
12
ITEM: BOX BOUNDS ff ff ff
0.0000000000000000e+00 2.0000000000000001e-04
0.0000000000000000e+00 2.0000000000000001e-04
0.0000000000000000e+00 2.0000000000000001e-04
ITEM: ATOMS id type diameter x y z vx vy vz fx fy fz 
1 1 9.96606e-07 0.0001 1.39e-05 4e-07 0 0 2.77778e-12 0 0 0.000196606 
2 2 9.62767e-07 0.0001 2.04e-05 4e-07 0 0 2.77778e-12 0 0 0.000162767 
3 3 9.93004e-07 0.0001 3.99e-05 4e-07 0 0 2.77778e-12 0 0 0.000193004 
4 1 9.96606e-07 0.0001 6.26e-05 4e-07 0 0 2.77778e-12 0 0 0.000196606 
5 2 9.62767e-07 0.0001 6.91e-05 4e-07 0 0 2.77778e-12 0 0 0.000162767 
6 3 9.93004e-07 0.0001 8.86e-05 4e-07 0 0 2.77778e-12 0 0 0.000193004 
7 1 9.96606e-07 0.0001 0.0001114 4e-07 0 0 2.77778e-12 0 0 0.000196606 
8 2 9.62767e-07 0.0001 0.0001179 4e-07 0 0 2.77778e-12 0 0 0.000162767 
9 3 9.93004e-07 0.0001 0.0001374 4e-07 0 0 2.77778e-12 0 0 0.000193004 
10 1 9.96606e-07 0.0001 0.0001601 4e-07 0 0 2.77778e-12 0 0 0.000196606 
11 2 9.62767e-07 0.0001 0.0001666 4e-07 0 0 2.77778e-12 0 0 0.000162767 
12 3 9.93004e-07 0.0001 0.0001861 4e-07 0 0 2.77778e-12 0 0 0.000193004 
ITEM: TIMESTEP
2
ITEM: NUMBER OF ATOMS
12
ITEM: BOX BOUNDS ff ff ff
0.0000000000000000e+00 2.0000000000000001e-04
0.0000000000000000e+00 2.0000000000000001e-04
0.0000000000000000e+00 2.0000000000000001e-04
ITEM: ATOMS id type diameter x y z vx vy vz fx fy fz 
1 1 1.02555e-06 0.0001 1.39e-05 4.1e-07 0 0 2.77778e-12 0 0 0.000205547 
2 2 9.59544e-07 0.0001 2.04e-05 4.1e-07 0 0 2.77778e-12 0 0 0.000139544 
3 3 1.01883e-06 0.0001 3.99e-05 4.1e-07 0 0 2.77778e-12 0 0 0.000198833 
4 1 1.02555e-06 0.0001 6.26e-05 4.1e-07 0 0 2.77778e-12 0 0 0.000205547 
5 2 9.59544e-07 0.0001 6.91e-05 4.1e-07 0 0 2.77778e-12 0 0 0.000139544 
6 3 1.01883e-06 0.0001 8.86e-05 4.1e-07 0 0 2.77778e-12 0 0 0.000198833 
7 1 1.02555e-06 0.0001 0.0001114 4.1e-07 0 0 2.77778e-12 0 0 0.000205547 
8 2 9.59544e-07 0.0001 0.0001179 4.1e-07 0 0 2.77778e-12 0 0 0.000139544 
9 3 1.01883e-06 0.0001 0.0001374 4.1e-07 0 0 2.77778e-12 0 0 0.000198833 
10 1 1.02555e-06 0.0001 0.0001601 4.1e-07 0 0 2.77778e-12 0 0 0.000205547 
11 2 9.59544e-07 0.0001 0.0001666 4.1e-07 0 0 2.77778e-12 0 0 0.000139544 
12 3 1.01883e-06 0.0001 0.0001861 4.1e-07 0 0 2.77778e-12 0 0 0.000198833 
ITEM: TIMESTEP
3
ITEM: NUMBER OF ATOMS
20
ITEM: BOX BOUNDS ff ff ff
0.0000000000000000e+00 2.0000000000000001e-04
0.0000000000000000e+00 2.0000000000000001e-04
0.0000000000000000e+00 2.0000000000000001e-04
ITEM: ATOMS id type diameter x y z vx vy vz fx fy fz 
1 1 7.80629e-07 0.00010007 1.36444e-05 3.79348e-07 9.49189e-19 -3.46859e-18 2.77778e-12 7.49502e-12 -2.73888e-11 2.1934e-05 
2 2 9.56332e-07 0.0001 2.04e-05 4.2e-07 0 0 2.77778e-12 0 0 0.000116332 
3 3 8.14321e-07 0.000100111 3.97046e-05 3.96876e-07 2.54203e-18 -4.48395e-18 2.77778e-12 1.88242e-11 -3.32045e-11 2.05699e-05 
4 1 8.82038e-07 0.000100351 6.28371e-05 4.97159e-07 2.29391e-12 1.54865e-12 2.35989e-13 4.0162e-12 2.7114e-12 4.13172e-13 
5 2 9.56332e-07 0.0001 6.91e-05 4.2e-07 0 0 2.77778e-12 0 0 0.000116332 
6 3 7.75985e-07 9.99296e-05 8.84575e-05 7.65255e-07 -8.73259e-13 -1.76812e-12 1.95632e-12 -2.18344e-11 -4.42091e-11 4.89147e-11 
7 1 7.90821e-07 0.000100047 0.000111391 3.843e-07 1.88892e-18 -3.76332e-19 2.77778e-12 1.51101e-11 -3.0104e-12 2.22203e-05 
8 2 9.56332e-07 0.0001 0.0001179 4.2e-07 0 0 2.77778e-12 0 0 0.000116332 
9 3 8.01413e-07 0.000100051 0.0001374 8.09217e-07 7.23369e-13 -2.15222e-15 2.68194e-12 2.19487e-11 -6.53032e-14 8.13762e-11 
10 1 8.27002e-07 9.99976e-05 0.000159872 4.01882e-07 -5.04776e-20 -4.74726e-18 2.77778e-12 -4.2226e-13 -3.97123e-11 2.3237e-05 
11 2 9.56332e-07 0.0001 0.0001666 4.2e-07 0 0 2.77778e-12 0 0 0.000116332 
12 3 8.60638e-07 9.97926e-05 0.00018631 4.19449e-07 -3.15179e-18 3.18942e-18 2.77778e-12 -2.46671e-11 2.49616e-11 2.17399e-05 
13 1 8.87563e-07 9.99205e-05 1.41906e-05 7.31684e-07 -6.25228e-13 2.28475e-12 1.45088e-12 -7.49502e-12 2.73888e-11 1.73926e-11 
14 3 8.44344e-07 9.98851e-05 4.01027e-05 7.61715e-07 -1.07498e-12 1.89619e-12 1.7219e-12 -1.88242e-11 3.32045e-11 3.01525e-11 
15 1 7.87664e-07 9.96863e-05 6.23882e-05 3.82766e-07 -5.04079e-19 -3.40311e-19 2.77778e-12 -4.0162e-12 -2.7114e-12 2.21317e-05 
16 3 8.77066e-07 0.00010008 8.87611e-05 4.27455e-07 2.7376e-18 5.54293e-18 2.77778e-12 2.18344e-11 4.42091e-11 2.21549e-05 
17 1 8.79503e-07 9.99481e-05 0.00011141 8.4626e-07 -5.81271e-13 1.15807e-13 2.71381e-12 -1.51101e-11 3.0104e-12 7.05452e-11 
18 3 8.55999e-07 9.99456e-05 0.0001374 4.17188e-07 -2.81966e-18 8.38923e-21 2.77778e-12 -2.19487e-11 6.53032e-14 2.16227e-05 
19 1 8.4776e-07 0.000100002 0.000160334 7.61481e-07 2.33952e-14 2.20025e-12 1.69541e-12 4.2226e-13 3.97123e-11 3.06005e-11 
20 3 7.96057e-07 0.000100192 0.000185906 6.98446e-07 1.75799e-12 -1.77898e-12 1.20861e-12 2.46671e-11 -2.49616e-11 1.69586e-11 
ITEM: TIMESTEP
4
ITEM: NUMBER OF ATOMS
20
ITEM: BOX BOUNDS ff ff ff
0.0000000000000000e+00 2.0000000000000001e-04
0.0000000000000000e+00 2.0000000000000001e-04
0.0000000000000000e+00 2.0000000000000001e-04
ITEM: ATOMS id type diameter x y z vx vy vz fx fy fz 
1 1 8.03136e-07 0.00010007 1.36444e-05 3.89348e-07 7.35575e-19 -2.68799e-18 2.77778e-12 6.47203e-12 -2.36505e-11 2.44406e-05 
2 2 9.53131e-07 0.0001 2.04e-05 4.3e-07 0 0 2.77778e-12 0 0 9.31312e-05 
3 3 8.35377e-07 0.000100111 3.97046e-05 4.06876e-07 1.94823e-18 -3.43653e-18 2.77778e-12 1.51672e-11 -2.67538e-11 2.16254e-05 
4 1 9.07468e-07 0.00010036 6.28427e-05 4.98009e-07 2.28268e-12 1.54107e-12 3.6129e-13 6.33038e-12 4.27373e-12 1.00194e-12 
5 2 9.53131e-07 0.0001 6.91e-05 4.3e-07 0 0 2.77778e-12 0 0 9.31312e-05 
6 3 7.9605e-07 9.99265e-05 8.84511e-05 7.72297e-07 -8.83577e-13 -1.78902e-12 1.93255e-12 -2.32358e-11 -4.70464e-11 5.08211e-11 
7 1 8.13622e-07 0.000100047 0.000111391 3.943e-07 1.39355e-18 -2.77638e-19 2.77778e-12 1.25523e-11 -2.50082e-12 2.50207e-05 
8 2 9.53131e-07 0.0001 0.0001179 4.3e-07 0 0 2.77778e-12 0 0 9.31312e-05 
9 3 8.22135e-07 0.000100054 0.0001374 8.18872e-07 7.38302e-13 -2.19665e-15 2.67786e-12 2.35196e-11 -6.99771e-14 8.5307e-11 
10 1 8.50845e-07 9.99976e-05 0.000159872 4.11882e-07 -3.66306e-20 -3.44499e-18 2.77778e-12 -3.57111e-13 -3.35852e-11 2.70805e-05 
11 2 9.53131e-07 0.0001 0.0001666 4.3e-07 0 0 2.77778e-12 0 0 9.31312e-05 
12 3 8.82891e-07 9.97926e-05 0.00018631 4.29449e-07 -2.3566e-18 2.38474e-18 2.77778e-12 -2.03551e-11 2.05981e-11 2.3993e-05 
13 1 9.13153e-07 9.99182e-05 1.41988e-05 7.36907e-07 -6.27404e-13 2.2927e-12 1.43734e-12 -8.36213e-12 3.05575e-11 1.9157e-11 
14 3 8.66176e-07 9.98812e-05 4.01095e-05 7.67914e-07 -1.08252e-12 1.90949e-12 1.70236e-12 -2.02891e-11 3.57884e-11 3.19063e-11 
15 1 8.10373e-07 9.96863e-05 6.23882e-05 3.92766e-07 -6.17572e-19 -4.16932e-19 2.77778e-12 -5.52281e-12 -3.72853e-12 2.4841e-05 
16 3 8.99743e-07 0.00010008 8.87611e-05 4.37455e-07 1.97896e-18 4.00689e-18 2.77778e-12 1.76915e-11 3.58206e-11 2.48327e-05 
17 1 9.0486e-07 9.9946e-05 0.000111411 8.5603e-07 -5.91133e-13 1.17772e-13 2.71159e-12 -1.638e-11 3.26341e-12 7.51369e-11 
18 3 8.78133e-07 9.99456e-05 0.0001374 4.27188e-07 -2.08037e-18 6.18966e-21 2.77778e-12 -1.77915e-11 5.29345e-14 2.37558e-05 
19 1 8.72202e-07 0.000100003 0.000160342 7.67585e-07 2.35589e-14 2.21564e-12 1.67524e-12 4.58611e-13 4.31309e-11 3.26113e-11 
20 3 8.16641e-07 0.000100198 0.000185899 7.02797e-07 1.76457e-12 -1.78564e-12 1.18904e-12 2.6663e-11 -2.69813e-11 1.79665e-11 
ITEM: TIMESTEP
5
ITEM: NUMBER OF ATOMS
20
ITEM: BOX BOUNDS ff ff ff
0.0000000000000000e+00 2.0000000000000001e-04
0.0000000000000000e+00 2.0000000000000001e-04
0.0000000000000000e+00 2.0000000000000001e-04
ITEM: ATOMS id type diameter x y z vx vy vz fx fy fz 
1 1 8.26244e-07 0.00010007 1.36444e-05 3.99348e-07 5.9735e-19 -2.18288e-18 2.77778e-12 5.92434e-12 -2.16491e-11 2.75492e-05 
2 2 9.49941e-07 0.0001 2.04e-05 4.4e-07 0 0 2.77778e-12 0 0 6.99409e-05 
3 3 8.5694e-07 0.000100111 3.97046e-05 4.16876e-07 1.53192e-18 -2.70219e-18 2.77778e-12 1.27887e-11 -2.25583e-11 2.31893e-05 
4 1 9.33579e-07 0.000100368 6.28483e-05 4.99309e-07 2.28662e-12 1.54373e-12 3.23013e-13 8.96532e-12 6.05262e-12 1.26646e-12 
5 2 9.49941e-07 0.0001 6.91e-05 4.4e-07 0 0 2.77778e-12 0 0 6.99409e-05 
6 3 8.16598e-07 9.99233e-05 8.84447e-05 7.79255e-07 -8.96179e-13 -1.81453e-12 1.90273e-12 -2.47797e-11 -5.01724e-11 5.26113e-11 
7 1 8.37032e-07 0.000100047 0.000111391 4.043e-07 1.08331e-18 -2.15829e-19 2.77778e-12 1.10878e-11 -2.20905e-12 2.84311e-05 
8 2 9.49941e-07 0.0001 0.0001179 4.4e-07 0 0 2.77778e-12 0 0 6.99409e-05 
9 3 8.43357e-07 0.000100056 0.0001374 8.28512e-07 7.55794e-13 -2.24869e-15 2.67298e-12 2.5251e-11 -7.51284e-14 8.93039e-11 
10 1 8.75327e-07 9.99976e-05 0.000159872 4.21882e-07 -2.83372e-20 -2.66503e-18 2.77778e-12 -3.21975e-13 -3.02808e-11 3.15619e-05 
11 2 9.49941e-07 0.0001 0.0001666 4.4e-07 0 0 2.77778e-12 0 0 6.99409e-05 
12 3 9.05681e-07 9.97926e-05 0.00018631 4.39449e-07 -1.84075e-18 1.86272e-18 2.77778e-12 -1.77485e-11 1.79604e-11 2.67834e-05 
13 1 9.39427e-07 9.9916e-05 1.4207e-05 7.42082e-07 -6.32168e-13 2.31011e-12 1.40705e-12 -9.3274e-12 3.40848e-11 2.07605e-11 
14 3 8.88535e-07 9.98773e-05 4.01164e-05 7.74042e-07 -1.09363e-12 1.92908e-12 1.67292e-12 -2.19176e-11 3.86609e-11 3.35271e-11 
15 1 8.3369e-07 9.96863e-05 6.23882e-05 4.02766e-07 -6.79323e-19 -4.58621e-19 2.77778e-12 -6.88619e-12 -4.64897e-12 2.81579e-05 
16 3 9.22969e-07 0.00010008 8.87611e-05 4.47455e-07 1.50139e-18 3.03992e-18 2.77778e-12 1.51654e-11 3.07059e-11 2.80581e-05 
17 1 9.30895e-07 9.99439e-05 0.000111411 8.65792e-07 -6.03326e-13 1.20201e-13 2.7088e-12 -1.77812e-11 3.54258e-12 7.98338e-11 
18 3 9.008e-07 9.99456e-05 0.0001374 4.37188e-07 -1.60262e-18 4.76821e-21 2.77778e-12 -1.52448e-11 4.53572e-14 2.64234e-05 
19 1 8.97298e-07 0.000100003 0.00016035 7.73616e-07 2.37963e-14 2.23797e-12 1.64529e-12 4.98813e-13 4.69118e-11 3.44882e-11 
20 3 8.37721e-07 0.000100205 0.000185893 7.07077e-07 1.77615e-12 -1.79736e-12 1.15362e-12 2.89036e-11 -2.92487e-11 1.8773e-11 
ITEM: TIMESTEP
6
ITEM: NUMBER OF ATOMS
20
ITEM: BOX BOUNDS ff ff ff
0.0000000000000000e+00 2.0000000000000001e-04
0.0000000000000000e+00 2.0000000000000001e-04
0.0000000000000000e+00 2.0000000000000001e-04
ITEM: ATOMS id type diameter x y z vx vy vz fx fy fz 
1 1 8.49979e-07 0.00010007 1.36444e-05 4.09348e-07 5.05993e-19 -1.84904e-18 2.77778e-12 5.69858e-12 -2.08242e-11 3.12838e-05 
2 2 9.46761e-07 0.0001 2.04e-05 4.5e-07 0 0 2.77778e-12 0 0 4.67613e-05 
3 3 8.79031e-07 0.000100111 3.97046e-05 4.26876e-07 1.24452e-18 -2.19524e-18 2.77778e-12 1.13262e-11 -1.99786e-11 2.52802e-05 
4 1 9.60397e-07 0.000100376 6.28538e-05 5.00472e-07 2.2896e-12 1.54575e-12 2.9056e-13 1.16955e-11 7.89582e-12 1.48421e-12 
5 2 9.46761e-07 0.0001 6.91e-05 4.5e-07 0 0 2.77778e-12 0 0 4.67613e-05 
6 3 8.37649e-07 9.99201e-05 8.84382e-05 7.86104e-07 -9.08667e-13 -1.83982e-12 1.87228e-12 -2.63823e-11 -5.34173e-11 5.436e-11 
7 1 8.61077e-07 0.000100047 0.000111391 4.143e-07 8.84513e-19 -1.76223e-19 2.77778e-12 1.0341e-11 -2.06026e-12 3.24756e-05 
8 2 9.46761e-07 0.0001 0.0001179 4.5e-07 0 0 2.77778e-12 0 0 4.67613e-05 
9 3 8.65098e-07 0.000100059 0.0001374 8.38135e-07 7.73643e-13 -2.30179e-15 2.66787e-12 2.70781e-11 -8.05644e-14 9.33773e-11 
10 1 9.00471e-07 9.99976e-05 0.000159872 4.31882e-07 -2.31191e-20 -2.17428e-18 2.77778e-12 -3.05503e-13 -2.87316e-11 3.67064e-05 
11 2 9.46761e-07 0.0001 0.0001666 4.5e-07 0 0 2.77778e-12 0 0 4.67613e-05 
12 3 9.29028e-07 9.97926e-05 0.00018631 4.49449e-07 -1.5005e-18 1.51841e-18 2.77778e-12 -1.6276e-11 1.64703e-11 3.01307e-05 
13 1 9.66413e-07 9.99137e-05 1.42154e-05 7.47147e-07 -6.36814e-13 2.32709e-12 1.37666e-12 -1.033e-11 3.77486e-11 2.23313e-11 
14 3 9.1144e-07 9.98734e-05 4.01233e-05 7.80065e-07 -1.10456e-12 1.94836e-12 1.64313e-12 -2.36053e-11 4.1638e-11 3.51149e-11 
15 1 8.57638e-07 9.96863e-05 6.23882e-05 4.12766e-07 -7.11118e-19 -4.80086e-19 2.77778e-12 -8.21931e-12 -5.54898e-12 3.21064e-05 
16 3 9.46762e-07 0.00010008 8.87611e-05 4.57455e-07 1.19311e-18 2.41574e-18 2.77778e-12 1.36807e-11 2.76999e-11 3.18511e-05 
17 1 9.57636e-07 9.99417e-05 0.000111412 8.75543e-07 -6.15743e-13 1.22675e-13 2.70589e-12 -1.92617e-11 3.83754e-12 8.46459e-11 
18 3 9.24022e-07 9.99456e-05 0.0001374 4.47188e-07 -1.29091e-18 3.84079e-21 2.77778e-12 -1.37768e-11 4.09895e-14 2.96449e-05 
19 1 9.23074e-07 0.000100003 0.000160358 7.79539e-07 2.40298e-14 2.25993e-12 1.61499e-12 5.40611e-13 5.08428e-11 3.63332e-11 
20 3 8.59316e-07 0.000100211 0.000185887 7.1123e-07 1.78732e-12 -1.80866e-12 1.11817e-12 3.12166e-11 -3.15893e-11 1.95295e-11 
ITEM: TIMESTEP
7
ITEM: NUMBER OF ATOMS
20
ITEM: BOX BOUNDS ff ff ff
0.0000000000000000e+00 2.0000000000000001e-04
0.0000000000000000e+00 2.0000000000000001e-04
0.0000000000000000e+00 2.0000000000000001e-04
ITEM: ATOMS id type diameter x y z vx vy vz fx fy fz 
1 1 8.74362e-07 0.00010007 1.36444e-05 4.19348e-07 4.43889e-19 -1.62209e-18 2.77778e-12 5.69946e-12 -2.08274e-11 3.56662e-05 
2 2 9.43592e-07 0.0001 2.04e-05 4.6e-07 0 0 2.77778e-12 0 0 2.35923e-05 
3 3 9.01666e-07 0.000100111 3.97046e-05 4.36876e-07 1.04645e-18 -1.84585e-18 2.77778e-12 1.05161e-11 -1.85495e-11 2.79148e-05 
4 1 9.87947e-07 0.000100384 6.28594e-05 5.01518e-07 2.29227e-12 1.54755e-12 2.58167e-13 1.45257e-11 9.80653e-12 1.63596e-12 
5 2 9.43592e-07 0.0001 6.91e-05 4.6e-07 0 0 2.77778e-12 0 0 2.35923e-05 
6 3 8.59218e-07 9.99168e-05 8.84315e-05 7.92845e-07 -9.2104e-13 -1.86487e-12 1.8412e-12 -2.80452e-11 -5.67842e-11 5.60635e-11 
7 1 8.85777e-07 0.000100047 0.000111391 4.243e-07 7.53673e-19 -1.50155e-19 2.77778e-12 1.00868e-11 -2.0096e-12 3.71763e-05 
8 2 9.43592e-07 0.0001 0.0001179 4.6e-07 0 0 2.77778e-12 0 0 2.35923e-05 
9 3 8.87374e-07 0.000100062 0.0001374 8.47739e-07 7.9186e-13 -2.35599e-15 2.66252e-12 2.90058e-11 -8.63001e-14 9.75281e-11 
10 1 9.26302e-07 9.99976e-05 0.000159872 4.41882e-07 -1.9683e-20 -1.85113e-18 2.77778e-12 -3.01414e-13 -2.8347e-11 4.25372e-05 
11 2 9.43592e-07 0.0001 0.0001666 4.6e-07 0 0 2.77778e-12 0 0 2.35923e-05 
12 3 9.5295e-07 9.97926e-05 0.00018631 4.59449e-07 -1.27073e-18 1.2859e-18 2.77778e-12 -1.55779e-11 1.57639e-11 3.40527e-05 
13 1 9.94135e-07 9.99114e-05 1.42237e-05 7.52103e-07 -6.41357e-13 2.34369e-12 1.34604e-12 -1.13713e-11 4.15538e-11 2.38654e-11 
14 3 9.3491e-07 9.98694e-05 4.01303e-05 7.8598e-07 -1.11533e-12 1.96736e-12 1.61295e-12 -2.53543e-11 4.4723e-11 3.66664e-11 
15 1 8.8224e-07 9.96863e-05 6.23882e-05 4.22766e-07 -7.25455e-19 -4.89766e-19 2.77778e-12 -9.58694e-12 -6.47229e-12 3.67085e-05 
16 3 9.7114e-07 0.00010008 8.87611e-05 4.67455e-07 9.88326e-19 2.0011e-18 2.77778e-12 1.28904e-11 2.60998e-11 3.62297e-05 
17 1 9.85107e-07 9.99395e-05 0.000111412 8.85285e-07 -6.28396e-13 1.25196e-13 2.70287e-12 -2.08258e-11 4.14915e-12 8.95763e-11 
18 3 9.47815e-07 9.99456e-05 0.0001374 4.57188e-07 -1.08416e-18 3.22566e-21 2.77778e-12 -1.30508e-11 3.88295e-14 3.3438e-05 
19 1 9.49553e-07 0.000100003 0.000160366 7.85353e-07 2.42596e-14 2.28154e-12 1.58431e-12 5.84058e-13 5.49288e-11 3.81428e-11 
20 3 8.81443e-07 0.000100217 0.00018588 7.15256e-07 1.79811e-12 -1.81957e-12 1.0826e-12 3.36041e-11 -3.40053e-11 2.02323e-11 
ITEM: TIMESTEP
8
ITEM: NUMBER OF ATOMS
20
ITEM: BOX BOUNDS ff ff ff
0.0000000000000000e+00 2.0000000000000001e-04
0.0000000000000000e+00 2.0000000000000001e-04
0.0000000000000000e+00 2.0000000000000001e-04
ITEM: ATOMS id type diameter x y z vx vy vz fx fy fz 
1 1 8.99413e-07 0.00010007 1.36444e-05 4.29348e-07 4.00312e-19 -1.46285e-18 2.77778e-12 5.86787e-12 -2.14428e-11 4.07173e-05 
2 2 9.40434e-07 0.0001 2.04e-05 4.7e-07 0 0 2.77778e-12 0 0 4.3393e-07 
3 3 9.2486e-07 0.000100111 3.97046e-05 4.46876e-07 9.08623e-19 -1.60274e-18 2.77778e-12 1.01759e-11 -1.79495e-11 3.1109e-05 
4 1 1.01625e-06 0.000100392 6.2865e-05 5.02447e-07 -1.03117e-12 -6.96159e-13 2.48357e-12 -4.71551e-06 -3.18351e-06 1.13573e-05 
5 2 9.40434e-07 0.0001 6.91e-05 4.7e-07 0 0 2.77778e-12 0 0 4.3393e-07 
6 3 8.81321e-07 9.99135e-05 8.84248e-05 7.99473e-07 -9.33284e-13 -1.88966e-12 1.80948e-12 -2.97696e-11 -6.02757e-11 5.77183e-11 
7 1 9.11155e-07 0.000100047 0.000111391 4.343e-07 6.65133e-19 -1.32515e-19 2.77778e-12 1.01896e-11 -2.03008e-12 4.25544e-05 
8 2 9.40434e-07 0.0001 0.0001179 4.7e-07 0 0 2.77778e-12 0 0 4.3393e-07 
9 3 9.102e-07 0.000100065 0.0001374 8.57324e-07 8.10448e-13 -2.4113e-15 2.65692e-12 3.10393e-11 -9.23501e-14 1.01757e-10 
10 1 9.52841e-07 9.99976e-05 0.000159872 4.51882e-07 -1.73248e-20 -1.62934e-18 2.77778e-12 -3.06086e-13 -2.87865e-11 4.90764e-05 
11 2 9.40434e-07 0.0001 0.0001666 4.7e-07 0 0 2.77778e-12 0 0 4.3393e-07 
12 3 9.77464e-07 9.97926e-05 0.00018631 4.69449e-07 -1.11127e-18 1.12453e-18 2.77778e-12 -1.54286e-11 1.56128e-11 3.85662e-05 
13 1 1.02262e-06 9.99091e-05 1.42322e-05 7.56949e-07 -6.45796e-13 2.35991e-12 1.31522e-12 -1.24524e-11 4.55044e-11 2.53604e-11 
14 3 9.58959e-07 9.98654e-05 4.01374e-05 7.91787e-07 -1.12592e-12 1.98604e-12 1.5824e-12 -2.71657e-11 4.79182e-11 3.81792e-11 
15 1 9.07517e-07 9.96863e-05 6.23882e-05 4.32766e-07 -7.29617e-19 -4.92575e-19 2.77778e-12 -1.1028e-11 -7.44514e-12 4.19853e-05 
16 3 9.96122e-07 0.00010008 8.87611e-05 4.77455e-07 8.48135e-19 1.71725e-18 2.77778e-12 1.25829e-11 2.54772e-11 4.12111e-05 
17 1 1.01333e-06 9.99372e-05 0.000111413 8.95015e-07 -6.41286e-13 1.27764e-13 2.69972e-12 -2.24777e-11 4.47827e-12 9.4628e-11 
18 3 9.72196e-07 9.99456e-05 0.0001374 4.67188e-07 -9.44237e-19 2.80936e-21 2.77778e-12 -1.28557e-11 3.82493e-14 3.78193e-05 
19 1 9.76758e-07 0.000100003 0.000160374 7.91056e-07 2.44854e-14 2.30278e-12 1.55327e-12 6.29198e-13 5.91741e-11 3.99142e-11 
20 3 9.04117e-07 0.000100224 0.000185873 7.19153e-07 1.80851e-12 -1.8301e-12 1.04694e-12 3.60679e-11 -3.64985e-11 2.08796e-11 
ITEM: TIMESTEP
9
ITEM: NUMBER OF ATOMS
23
ITEM: BOX BOUNDS ff ff ff
0.0000000000000000e+00 2.0000000000000001e-04
0.0000000000000000e+00 2.0000000000000001e-04
0.0000000000000000e+00 2.0000000000000001e-04
ITEM: ATOMS id type diameter x y z vx vy vz fx fy fz 
1 1 9.25153e-07 0.00010007 1.36444e-05 4.39348e-07 -1.30256e-19 3.10883e-19 2.77778e-12 -2.17849e-12 5.19944e-12 4.64576e-05 
2 2 9.37286e-07 0.0001 2.04e-05 4.8e-07 0 0 -2.77778e-12 0 0 -2.77778e-13 
3 3 9.4863e-07 0.000100111 3.97046e-05 4.56876e-07 8.10992e-19 -1.43053e-18 2.77778e-12 1.01831e-11 -1.79621e-11 3.48786e-05 
4 1 8.38354e-07 0.000100187 6.27189e-05 8.37852e-07 1.71435e-13 3.86487e-14 2.77221e-12 2.54401e-12 5.73528e-13 4.11383e-11 
5 2 9.37286e-07 0.0001 6.91e-05 4.8e-07 0 0 -2.77778e-12 0 0 -2.77778e-13 
6 3 9.03971e-07 9.99101e-05 8.8418e-05 8.05987e-07 -9.45385e-13 -1.91416e-12 1.77716e-12 -3.15566e-11 -6.38939e-11 5.93208e-11 
7 1 9.37232e-07 0.000100047 0.000111391 4.443e-07 1.40474e-18 -1.5993e-18 2.77778e-12 2.4593e-11 -2.79992e-11 4.86309e-05 
8 2 9.37286e-07 0.0001 0.0001179 4.8e-07 0 0 -2.77778e-12 0 0 -2.77778e-13 
9 3 9.33593e-07 0.000100067 0.0001374 8.66889e-07 8.29411e-13 -2.46772e-15 2.65106e-12 3.31835e-11 -9.87297e-14 1.06065e-10 
10 1 9.80111e-07 9.99976e-05 0.000159872 4.61882e-07 -1.56448e-20 -1.47134e-18 2.77778e-12 -3.17347e-13 -2.98455e-11 5.63458e-05 
11 2 9.37286e-07 0.0001 0.0001666 4.8e-07 0 0 -2.77778e-12 0 0 -2.77778e-13 
12 3 1.00259e-06 9.97926e-05 0.00018631 4.79449e-07 -9.97298e-19 1.0092e-18 2.77778e-12 -1.56851e-11 1.58723e-11 4.36877e-05 
13 1 7.98708e-07 0.000100013 1.44229e-05 4.33411e-07 -1.2416e-14 2.72621e-12 -5.32628e-13 -8.1017e-14 1.77891e-11 -3.47552e-12 
14 3 9.83605e-07 9.98614e-05 4.01445e-05 7.97483e-07 -1.13634e-12 2.00441e-12 1.55149e-12 -2.9041e-11 5.12261e-11 3.96508e-11 
15 1 9.3349e-07 9.96863e-05 6.23882e-05 4.42766e-07 -8.78201e-19 -5.72359e-19 2.77778e-12 -1.51619e-11 -9.88162e-12 4.79576e-05 
16 3 1.02172e-06 0.00010008 8.87611e-05 4.87455e-07 7.49238e-19 1.51701e-18 2.77778e-12 1.26265e-11 2.55653e-11 4.68122e-05 
17 1 8.72439e-07 9.97194e-05 0.000111732 7.22419e-07 -1.68185e-12 1.78956e-12 1.29804e-12 -4.43202e-11 4.71585e-11 3.42061e-11 
18 3 9.97182e-07 9.99456e-05 0.0001374 4.77188e-07 -8.47462e-19 2.52142e-21 2.77778e-12 -1.30594e-11 3.88551e-14 4.28055e-05 
19 1 1.00471e-06 0.000100003 0.000160383 7.96648e-07 2.47072e-14 2.32364e-12 1.52189e-12 6.76075e-13 6.35828e-11 4.16441e-11 
20 3 9.27354e-07 0.00010023 0.000185867 7.22922e-07 1.81853e-12 -1.84023e-12 1.01121e-12 3.86093e-11 -3.90703e-11 2.14692e-11 
21 1 8.20828e-07 0.000100586 6.3003e-05 3.98995e-07 2.5641e-13 1.73106e-13 2.7605e-12 2.12129e-06 1.43211e-06 2.28377e-05 
22 1 8.68165e-07 9.97913e-05 1.40426e-05 1.1185e-06 -9.6944e-13 7.33211e-13 2.49773e-12 -5.08351e-12 3.84478e-12 1.30975e-11 
23 1 7.76609e-07 0.000100127 0.000111129 1.06702e-06 4.48769e-13 -1.20319e-12 2.46313e-12 6.13616e-12 -1.64516e-11 3.36791e-11 
ITEM: TIMESTEP
10
ITEM: NUMBER OF ATOMS
26
ITEM: BOX BOUNDS ff ff ff
0.0000000000000000e+00 2.0000000000000001e-04
0.0000000000000000e+00 2.0000000000000001e-04
0.0000000000000000e+00 2.0000000000000001e-04
ITEM: ATOMS id type diameter x y z vx vy vz fx fy fz 
1 1 9.51603e-07 0.00010007 1.36444e-05 4.49348e-07 -2.61688e-21 -3.63493e-20 2.77778e-12 -4.98432e-14 -6.92339e-13 5.29078e-05 
2 2 9.34149e-07 0.0001 2.04e-05 4.7e-07 0 0 2.77778e-12 0 0 2.77778e-13 
3 3 9.7299e-07 0.000100111 3.97046e-05 4.66876e-07 7.40206e-19 -1.30567e-18 2.77778e-12 1.04562e-11 -1.8444e-11 3.92391e-05 
4 1 8.62323e-07 0.000100188 6.2719e-05 8.47832e-07 1.8167e-13 4.43166e-14 2.77148e-12 3.07573e-12 7.50295e-13 4.6922e-11 
5 2 9.34149e-07 0.0001 6.91e-05 4.7e-07 0 0 2.77778e-12 0 0 2.77778e-13 
6 3 9.27185e-07 9.99067e-05 8.84111e-05 8.12385e-07 -1.19874e-12 -2.47056e-12 4.1881e-13 -5.78105e-11 -1.19145e-10 2.01975e-11 
7 1 9.64027e-07 0.000100047 0.000111391 4.543e-07 1.20106e-18 -1.28817e-18 2.77778e-12 2.39653e-11 -2.57036e-11 5.54264e-05 
8 2 9.34149e-07 0.0001 0.0001179 4.7e-07 0 0 2.77778e-12 0 0 2.77778e-13 
9 3 9.57568e-07 0.00010007 0.0001374 8.76433e-07 8.48752e-13 -2.52526e-15 2.64493e-12 3.54437e-11 -1.05454e-13 1.10452e-10 
10 1 1.00813e-06 9.99976e-05 0.000159872 4.71882e-07 2.91162e-19 -5.88393e-19 2.77778e-12 6.74687e-12 -1.36344e-11 6.43673e-05 
11 2 9.34149e-07 0.0001 0.0001666 4.7e-07 0 0 2.77778e-12 0 0 2.77778e-13 
12 3 7.85875e-07 9.98116e-05 0.000186221 8.63688e-07 -1.26278e-12 4.13964e-13 2.43928e-12 -3.82634e-11 1.25435e-11 7.39125e-11 
13 1 8.21543e-07 0.000100013 1.44327e-05 4.31493e-07 2.74992e-14 2.69678e-12 -6.65332e-13 2.20763e-13 2.16497e-11 -5.34128e-12 
14 3 1.00886e-06 9.98573e-05 4.01518e-05 8.03069e-07 -1.14657e-12 2.02245e-12 1.52024e-12 -3.09814e-11 5.46489e-11 4.10784e-11 
15 1 9.60178e-07 9.96863e-05 6.23882e-05 4.52766e-07 -8.55743e-19 -5.5844e-19 2.77778e-12 -1.68347e-11 -1.0986e-11 5.46461e-05 
16 3 8.56556e-07 0.000100078 8.87738e-05 9.16901e-07 8.52475e-13 1.88555e-12 1.85311e-12 3.90789e-11 8.64368e-11 8.49497e-11 
17 1 8.97382e-07 9.97134e-05 0.000111739 7.27092e-07 -1.70251e-12 1.82271e-12 1.22279e-12 -4.81232e-11 5.15207e-11 3.45633e-11 
18 3 1.02279e-06 9.99456e-05 0.0001374 4.87188e-07 -7.79071e-19 2.31794e-21 2.77778e-12 -1.35781e-11 4.03986e-14 4.84128e-05 
19 1 8.67026e-07 9.95796e-05 0.000160385 7.96081e-07 -1.74955e-12 1.8245e-12 1.15166e-12 -2.65261e-11 2.76625e-11 1.74612e-11 
20 3 9.51168e-07 0.000100237 0.00018586 7.26562e-07 2.03383e-12 -1.88416e-12 -1.71865e-13 5.70713e-11 -5.28714e-11 -4.82269e-12 
21 1 8.44296e-07 0.000100587 6.30036e-05 4.08933e-07 1.6707e-13 1.12792e-13 2.77045e-12 1.59382e-06 1.07601e-06 2.64297e-05 
22 1 8.92986e-07 9.97878e-05 1.40453e-05 1.1275e-06 -9.78327e-13 7.2094e-13 2.49783e-12 -7.27696e-12 5.36247e-12 1.85793e-11 
23 1 7.98813e-07 0.000100128 0.000111124 1.07589e-06 4.82032e-13 -1.24732e-12 2.43473e-12 7.67211e-12 -1.98525e-11 3.87516e-11 
24 3 8.44401e-07 9.97721e-05 0.000186405 4.1163e-07 -2.22555e-18 5.05019e-18 2.77778e-12 -1.69381e-11 3.84358e-11 2.1141e-05 
25 3 8.05405e-07 0.000100081 8.87491e-05 3.9262e-07 2.38107e-18 4.10223e-18 2.77778e-12 1.72849e-11 2.97792e-11 2.01646e-05 
26 1 7.67403e-07 0.000100378 0.000160397 8.07478e-07 1.67383e-12 1.86752e-12 1.19445e-12 2.01677e-11 2.25015e-11 1.43918e-11 
ITEM: TIMESTEP
11
ITEM: NUMBER OF ATOMS
29
ITEM: BOX BOUNDS ff ff ff
0.0000000000000000e+00 2.0000000000000001e-04
0.0000000000000000e+00 2.0000000000000001e-04
0.0000000000000000e+00 2.0000000000000001e-04
ITEM: ATOMS id type diameter x y z vx vy vz fx fy fz 
1 1 9.78784e-07 0.00010007 1.36444e-05 4.59348e-07 8.7739e-20 -2.8068e-19 2.77778e-12 1.89796e-12 -6.07163e-12 6.00886e-05 
2 2 9.31022e-07 0.0001 2.04e-05 4.8e-07 0 0 -2.77778e-12 0 0 -2.77778e-13 
3 3 9.97957e-07 0.000100111 3.97046e-05 4.76876e-07 1.79576e-18 -1.58714e-18 2.77778e-12 2.85783e-11 -2.52583e-11 4.42064e-05 
4 1 8.86954e-07 0.000100189 6.27192e-05 8.57809e-07 1.94248e-13 5.10347e-14 2.77051e-12 3.71215e-12 9.75292e-13 5.29454e-11 
5 2 9.31022e-07 0.0001 6.91e-05 4.8e-07 0 0 -2.77778e-12 0 0 -2.77778e-13 
6 3 9.50977e-07 9.99024e-05 8.84022e-05 8.13892e-07 -1.19814e-12 -2.46664e-12 4.42959e-13 -5.99748e-11 -1.23471e-10 2.2173e-11 
7 1 9.91563e-07 0.000100047 0.000111391 4.643e-07 1.05086e-18 -1.06105e-18 2.77778e-12 2.38192e-11 -2.40501e-11 6.2962e-05 
8 2 9.31022e-07 0.0001 0.0001179 4.8e-07 0 0 -2.77778e-12 0 0 -2.77778e-13 
9 3 9.82139e-07 0.000100074 0.0001374 8.85954e-07 1.61229e-12 -2.6318e-13 2.24662e-12 7.20176e-11 -1.17557e-11 1.00352e-10 
10 1 8.61602e-07 9.99548e-05 0.000159528 4.18838e-07 -2.99312e-19 2.22461e-18 2.77778e-12 -2.57815e-12 1.91618e-11 2.39266e-05 
11 2 9.31022e-07 0.0001 0.0001666 4.8e-07 0 0 -2.77778e-12 0 0 -2.77778e-13 
12 3 8.06041e-07 9.98071e-05 0.000186223 8.72469e-07 -1.22462e-12 3.56965e-13 2.46758e-12 -3.92697e-11 1.14467e-11 7.91271e-11 
13 1 8.45009e-07 0.000100013 1.44424e-05 4.29098e-07 6.16735e-14 2.66538e-12 -7.79725e-13 5.94398e-13 2.56885e-11 -7.51485e-12 
14 3 8.7255e-07 9.97874e-05 4.01142e-05 4.2536e-07 2.93173e-13 -5.17138e-13 2.71342e-12 2.3586e-06 -4.16041e-06 2.18297e-05 
15 1 9.87604e-07 9.96863e-05 6.23882e-05 4.62766e-07 -8.34662e-19 -5.45038e-19 2.77778e-12 -1.86512e-11 -1.21793e-11 6.20718e-05 
16 3 8.78535e-07 0.000100081 8.87806e-05 9.23572e-07 8.34429e-13 1.85171e-12 1.89498e-12 3.97299e-11 8.8166e-11 9.02264e-11 
17 1 9.23014e-07 9.97072e-05 0.000111745 7.31494e-07 -1.72172e-12 1.85512e-12 1.14466e-12 -5.21658e-11 5.62076e-11 3.46816e-11 
18 3 8.51422e-07 0.000100187 0.000137253 4.15061e-07 8.49848e-18 -4.96431e-18 2.77778e-12 6.51696e-11 -3.80682e-11 2.1301e-05 
19 1 8.91791e-07 9.95733e-05 0.000160391 8.00227e-07 -2.53403e-12 1.02382e-12 4.96545e-13 -6.27096e-11 2.53364e-11 1.2288e-11 
20 3 9.75575e-07 0.000100244 0.000185853 7.25944e-07 2.03014e-12 -1.8898e-12 -1.52416e-13 6.02281e-11 -5.60647e-11 -4.52172e-12 
21 1 8.68412e-07 0.000100587 6.3004e-05 4.18907e-07 1.13353e-13 7.65263e-14 2.77441e-12 1.25014e-06 8.43986e-07 3.05981e-05 
22 1 9.18493e-07 9.97843e-05 1.40479e-05 1.13649e-06 -9.87405e-13 6.97837e-13 2.50082e-12 -9.59611e-12 6.78194e-12 2.43043e-11 
23 1 8.21629e-07 0.00010013 0.00011112 1.08466e-06 5.14453e-13 -1.28995e-12 2.40571e-12 9.38888e-12 -2.35418e-11 4.39047e-11 
24 3 8.66069e-07 9.97721e-05 0.000186405 4.2163e-07 -1.75442e-18 3.9337e-18 2.77778e-12 -1.44057e-11 3.22999e-11 2.28086e-05 
25 3 8.26072e-07 0.000100081 8.87491e-05 4.0262e-07 1.84549e-18 3.17416e-18 2.77778e-12 1.384e-11 2.38041e-11 2.08316e-05 
26 1 7.89322e-07 0.000100384 0.000160404 8.11778e-07 2.33176e-12 1.34319e-12 6.8903e-13 6.40529e-11 3.68971e-11 1.89275e-11 
27 1 7.80414e-07 0.000100036 0.000160183 6.98665e-07 5.81266e-14 -2.44205e-12 -1.32253e-12 1.03683e-12 -4.35598e-11 -2.35905e-11 
28 3 7.62664e-07 9.99107e-05 4.01982e-05 1.17565e-06 4.53648e-13 2.97073e-13 2.72433e-12 1.7366e-12 1.13722e-12 1.04289e-11 
29 3 8.12926e-07 9.97153e-05 0.000137541 7.90238e-07 -2.54195e-12 1.11213e-12 -1.33138e-13 -1.13721e-10 4.97541e-11 -5.9563e-12 
ITEM: TIMESTEP
12
ITEM: NUMBER OF ATOMS
29
ITEM: BOX BOUNDS ff ff ff
0.0000000000000000e+00 2.0000000000000001e-04
0.0000000000000000e+00 2.0000000000000001e-04
0.0000000000000000e+00 2.0000000000000001e-04
ITEM: ATOMS id type diameter x y z vx vy vz fx fy fz 
1 1 1.00672e-06 0.00010007 1.36444e-05 4.69348e-07 1.52925e-19 -4.55423e-19 2.77778e-12 3.74475e-12 -1.11522e-11 6.8021e-05 
2 2 9.27906e-07 0.0001 2.04e-05 4.7e-07 0 0 2.77778e-12 0 0 2.77778e-13 
3 3 1.02355e-06 0.000100111 3.97046e-05 4.86876e-07 1.62624e-18 -1.59309e-18 2.77778e-12 2.91529e-11 -2.85586e-11 4.97961e-05 
4 1 9.12265e-07 0.000100189 6.27194e-05 8.67783e-07 2.0358e-13 5.54852e-14 2.76975e-12 4.34879e-12 1.18525e-12 5.91661e-11 
5 2 9.27906e-07 0.0001 6.91e-05 4.7e-07 0 0 2.77778e-12 0 0 2.77778e-13 
6 3 9.75362e-07 9.98981e-05 8.83933e-05 8.15487e-07 -1.19795e-12 -2.46389e-12 4.58484e-13 -6.22827e-11 -1.281e-10 2.3837e-11 
7 1 1.01986e-06 0.000100047 0.000111391 4.743e-07 9.37225e-19 -8.91211e-19 2.77778e-12 2.40429e-11 -2.28625e-11 7.12591e-05 
8 2 9.27906e-07 0.0001 0.0001179 4.7e-07 0 0 2.77778e-12 0 0 2.77778e-13 
9 3 1.00732e-06 0.000100079 0.000137399 8.94042e-07 1.55339e-12 -2.20265e-13 2.29227e-12 7.24668e-11 -1.02755e-11 1.06936e-10 