LAMMPS (5 Nov 2016)
# NUFEB simulation

atom_style	bio
atom_modify	map array sort 1000 5.0e-7
boundary	ff ff ff
newton		off
#processors  2 1 1

comm_modify	vel yes
read_data_bio atom.in
  orthogonal box = (0 0 0) to (0.0001 0.0001 0.0001)
  1 by 1 by 1 MPI processor grid
  reading atoms ...
  3 atoms
  10 nutrients

group AOB type 1
1 atoms in group AOB
group NOB type 2
1 atoms in group NOB
group COMM type 3
1 atoms in group COMM

neighbor	5.0e-7 bin
neigh_modify	delay 0 one 5000

#pair_style none
pair_style  gran/hooke/history 0.000200 NULL 0.000050 NULL 0.0 1

pair_coeff  * *
timestep 36

fix 1 all nve/limit 1e-8

#fix	 2 all gravity 1.47 vector 0 0 -1 # spherical 90.0 -180.0
#fix     3 all fdrag
fix 10 all viscous 0.1


fix xw all wall/gran hooke/history 2000 NULL 500.0 NULL 1.5 0 xplane  0.0   1.0e-04
fix yw all wall/gran hooke/history 2000 NULL 500.0 NULL 1.5 0 yplane  0.0   1.0e-04
fix zw all wall/gran hooke/history 2000 NULL 500.0 NULL 1.5 0 zplane  0.0   1.0e-04

variable kanc equal 50

fix xwa all walladh v_kanc xplane  0.0   1.0e-04
fix ywa all walladh v_kanc yplane  0.0   1.0e-04
fix zwa all walladh v_kanc zplane  0.0   1.0e-04

##############Ibm Variable Definitions##############

#Defining EPS density and ratio variables
variable EPSdens equal 30
variable EPSratio equal 1.25

variable ke equal 5e+10

#Defining kinetics variables
variable temp equal 298.15
variable gasTran equal 0.08205746
variable gvol equal 8e-14
variable rth equal 0.0083144
variable pressure equal 1
variable ph equal 7.0

#Defining diffusion variables
variable diffT equal 1e-6
variable tol equal 1e-10

##############Ibm functions##############

fix k1 all kinetics 25 25 25 v_temp v_rth v_gvol v_gasTran v_ph
fix g1 all diffusion exp v_diffT v_tol pp pp nd
#fix ki3 all kinetics/ph 1
fix ki2 all kinetics/thermo 1 fix open v_pressure
fix ki1 all kinetics/monod 1 v_EPSdens
fix d1 all divide 1 v_EPSdens 1 31231

#fix j1 all epsadh 1 v_ke 1
#fix e1 HET eps_extract 16 v_EPSratio v_EPSdens 1242242

##############Ibm compute##############

compute myMass all biomass
compute myNtypes all ntypes

##############Simulation outputs##############

#dump		id all custom 250 snapshot.bubblemd id type diameter x y z
dump            d0 all bio 500 biomass
thermo_style    custom step cpu atoms biomass c_myNtypes[*] c_myMass[2]
thermo		5
thermo_modify	lost ignore

run  5000
Neighbor list info ...
  2 neighbor list requests
  update every 1 steps, delay 0 steps, check yes
  max neighbors/atom: 5000, page size: 100000
  master list distance cutoff = 1.466e-06
  ghost atom cutoff = 1.466e-06
  binsize = 7.33e-07 -> bins = 137 137 137
Memory usage per processor = 18.9946 Mbytes
Step CPU Atoms biomass c_myNtypes[1] c_myNtypes[2] c_myNtypes[3] c_myMass[2] 
       0            0        3 4.1062866e-16            1            1            1 1.3687622e-16 
       5    132.11936        3 4.1151573e-16            1            1            1 1.3680774e-16 
      10    149.06819        3 4.1240617e-16            1            1            1 1.3673929e-16 
      15    161.73354        3 4.1329999e-16            1            1            1 1.3667088e-16 
      20    172.41695        3 4.141972e-16            1            1            1 1.3660251e-16 
      25    179.27392        3 4.1509783e-16            1            1            1 1.3653417e-16 
      30    185.83706        3 4.1600187e-16            1            1            1 1.3646586e-16 
      35    192.12543        3 4.1690934e-16            1            1            1 1.3639758e-16 
      40    198.40657        3 4.1782025e-16            1            1            1 1.3632934e-16 
      45    205.52122        3 4.1873462e-16            1            1            1 1.3626114e-16 
      50     212.0873        3 4.1965245e-16            1            1            1 1.3619297e-16 
      55    218.45801        3 4.2057375e-16            1            1            1 1.3612483e-16 
      60    224.56541        3 4.2149855e-16            1            1            1 1.3605673e-16 
      65    230.00226        3 4.2242685e-16            1            1            1 1.3598866e-16 
      70    235.54702        3 4.2335866e-16            1            1            1 1.3592062e-16 
      75    240.87711        3  4.24294e-16            1            1            1 1.3585262e-16 
      80    246.10043        3 4.2523288e-16            1            1            1 1.3578465e-16 
      85    251.34659        3 4.261753e-16            1            1            1 1.3571672e-16 
      90    256.58059        3 4.2712129e-16            1            1            1 1.3564882e-16 
      95    261.65021        3 4.2807086e-16            1            1            1 1.3558096e-16 
     100    266.73583        3 4.2902401e-16            1            1            1 1.3551313e-16 
     105    271.70198        3 4.2998076e-16            1            1            1 1.3544533e-16 
     110    276.70898        3 4.3094112e-16            1            1            1 1.3537757e-16 
     115    281.60147        3 4.319051e-16            1            1            1 1.3530984e-16 
     120    286.57168        3 4.3287272e-16            1            1            1 1.3524214e-16 
     125    291.42079        3  4.33844e-16            1            1            1 1.3517448e-16 
     130    296.20553        3 4.3481893e-16            1            1            1 1.3510685e-16 
     135    300.92752        3 4.3579754e-16            1            1            1 1.3503926e-16 
     140    305.73375        3 4.3677984e-16            1            1            1 1.349717e-16 
     145    310.53337        3 4.3776583e-16            1            1            1 1.3490417e-16 
     150    315.21401        4 4.3875554e-16            2            1            1 1.3483668e-16 
     155    319.90167        5 4.3974898e-16            2            1            2 1.3476922e-16 
     160    324.60669        5 4.4074615e-16            2            1            2 1.3470179e-16 
     165    329.29956        5 4.4174708e-16            2            1            2 1.346344e-16 
     170    333.90356        5 4.4275177e-16            2            1            2 1.3456705e-16 
     175    338.53663        5 4.4376023e-16            2            1            2 1.3449972e-16 
     180    343.21534        5 4.4477249e-16            2            1            2 1.3443243e-16 
     185    347.89185        5 4.4578855e-16            2            1            2 1.3436517e-16 
     190     352.4735        5 4.4680843e-16            2            1            2 1.3429795e-16 
     195    357.06549        5 4.4783214e-16            2            1            2 1.3423076e-16 
     200    361.64138        5 4.4885969e-16            2            1            2 1.3416361e-16 
     205    366.21116        5 4.498911e-16            2            1            2 1.3409649e-16 
     210    370.81903        5 4.5092638e-16            2            1            2 1.340294e-16 
     215    375.39795        5 4.5196554e-16            2            1            2 1.3396234e-16 
     220    379.96554        5 4.530086e-16            2            1            2 1.3389532e-16 
     225    384.52225        5 4.5405557e-16            2            1            2 1.3382833e-16 
     230    389.07871        5 4.5510647e-16            2            1            2 1.3376138e-16 
     235    393.59567        5 4.561613e-16            2            1            2 1.3369446e-16 
     240    398.21349        5 4.5722008e-16            2            1            2 1.3362757e-16 
     245    402.77407        5 4.5828283e-16            2            1            2 1.3356072e-16 
     250    407.43211        5 4.5934955e-16            2            1            2 1.334939e-16 
     255    412.04841        5 4.6042027e-16            2            1            2 1.3342711e-16 
     260    416.63443        5 4.6149499e-16            2            1            2 1.3336036e-16 
     265    421.32983        5 4.6257373e-16            2            1            2 1.3329364e-16 
     270    425.95488        5 4.6365651e-16            2            1            2 1.3322695e-16 
     275    430.66476        5 4.6474334e-16            2            1            2 1.3316029e-16 
     280    435.15851        5 4.6583422e-16            2            1            2 1.3309367e-16 
     285    439.83751        5 4.6692918e-16            2            1            2 1.3302709e-16 
     290    444.33135        5 4.6802824e-16            2            1            2 1.3296053e-16 
     295    448.80931        5 4.6913139e-16            2            1            2 1.3289401e-16 
     300     453.3405        5 4.7023867e-16            2            1            2 1.3282753e-16 
     305    457.86693        5 4.7135007e-16            2            1            2 1.3276107e-16 
     310    462.37869        5 4.7246563e-16            2            1            2 1.3269465e-16 
     315    467.05084        5 4.7358534e-16            2            1            2 1.3262827e-16 
     320    471.58652        5 4.7470923e-16            2            1            2 1.3256191e-16 
     325    476.24474        5 4.7583731e-16            2            1            2 1.3249559e-16 
     330    481.39451        5 4.769696e-16            2            1            2 1.324293e-16 
     335    486.53137        5 4.781061e-16            2            1            2 1.3236305e-16 
     340     491.7822        5 4.7924684e-16            2            1            2 1.3229683e-16 
     345    496.71899        5 4.8039183e-16            2            1            2 1.3223064e-16 
     350    501.58697        5 4.8154108e-16            2            1            2 1.3216449e-16 
     355    506.19066        5 4.826946e-16            2            1            2 1.3209836e-16 
     360    510.71088        5 4.8385242e-16            2            1            2 1.3203228e-16 
     365    515.23306        5 4.8501455e-16            2            1            2 1.3196622e-16 
     370    519.78524        5  4.86181e-16            2            1            2 1.319002e-16 
     375    524.33345        5 4.8735179e-16            2            1            2 1.3183421e-16 
     380    528.83575        5 4.8852693e-16            2            1            2 1.3176825e-16 
     385    533.10214        5 4.8970644e-16            2            1            2 1.3170233e-16 
     390    537.37212        5 4.9089033e-16            2            1            2 1.3163644e-16 
     395    541.65302        5 4.9207861e-16            2            1            2 1.3157058e-16 
     400    545.99296        5 4.9327132e-16            2            1            2 1.3150475e-16 
     405    550.29265        5 4.9446845e-16            2            1            2 1.3143896e-16 
     410     554.5709        5 4.9567002e-16            2            1            2 1.313732e-16 
     415    558.85407        5 4.9687605e-16            2            1            2 1.3130748e-16 
     420    563.09022        5 4.9808656e-16            2            1            2 1.3124178e-16 
     425    567.31888        5 4.9930155e-16            2            1            2 1.3117612e-16 
     430    571.58435        5 5.0052106e-16            2            1            2 1.311105e-16 
     435    575.93469        5 5.0174508e-16            2            1            2 1.310449e-16 
     440    580.31871        5 5.0297364e-16            2            1            2 1.3097934e-16 
     445    584.70536        5 5.0420676e-16            2            1            2 1.3091381e-16 
     450    589.03258        5 5.0544444e-16            2            1            2 1.3084831e-16 
     455    593.37338        5 5.066867e-16            2            1            2 1.3078285e-16 
     460     597.6878        5 5.0793357e-16            2            1            2 1.3071742e-16 
     465    601.99108        5 5.0918505e-16            2            1            2 1.3065202e-16 
     470    606.31833        5 5.1044117e-16            2            1            2 1.3058666e-16 
     475    610.82265        5 5.1170193e-16            2            1            2 1.3052133e-16 
     480    615.14052        5 5.1296735e-16            2            1            2 1.3045603e-16 
     485    619.41931        5 5.1423746e-16            2            1            2 1.3039076e-16 
     490    623.69479        5 5.1551226e-16            2            1            2 1.3032552e-16 
     495    627.99983        5 5.1679178e-16            2            1            2 1.3026032e-16 
     500    632.30865        5 5.1807603e-16            2            1            2 1.3019515e-16 
     505    636.66395        5 5.1936502e-16            2            1            2 1.3013002e-16 
     510    641.04327        5 5.2065877e-16            2            1            2 1.3006491e-16 
     515    645.42814        5 5.219573e-16            2            1            2 1.2999984e-16 
     520    649.84332        5 5.2326063e-16            2            1            2 1.299348e-16 
     525    654.25721        5 5.2456877e-16            2            1            2 1.298698e-16 
     530    658.64552        5 5.2588173e-16            2            1            2 1.2980482e-16 
     535    663.05591        5 5.2719955e-16            2            1            2 1.2973988e-16 
     540    667.46599        5 5.2852222e-16            2            1            2 1.2967497e-16 
     545    671.85256        5 5.2984977e-16            2            1            2 1.296101e-16 
     550    676.31795        5 5.3118222e-16            2            1            2 1.2954525e-16 
     555    680.71539        5 5.3251959e-16            2            1            2 1.2948044e-16 
     560    685.12841        5 5.3386188e-16            2            1            2 1.2941566e-16 
     565    689.49871        5 5.3520912e-16            2            1            2 1.2935091e-16 
     570    693.96893        5 5.3656132e-16            2            1            2 1.292862e-16 
     575    698.33138        5 5.379185e-16            2            1            2 1.2922152e-16 
     580    702.69297        5 5.3928068e-16            2            1            2 1.2915687e-16 
     585    707.10649        5 5.4064788e-16            2            1            2 1.2909225e-16 
     590    711.55551        5 5.4202011e-16            2            1            2 1.2902767e-16 
     595    715.99155        5 5.433974e-16            2            1            2 1.2896311e-16 
     600    720.53522        5 5.4477975e-16            2            1            2 1.2889859e-16 
     605    725.01761        5 5.4616718e-16            2            1            2 1.2883411e-16 
     610    729.60716        5 5.4755972e-16            2            1            2 1.2876965e-16 
     615    734.06871        5 5.4895738e-16            2            1            2 1.2870523e-16 
     620    738.52722        5 5.5036018e-16            2            1            2 1.2864084e-16 
     625    743.08832        5 5.5176814e-16            2            1            2 1.2857648e-16 
     630    747.55963        5 5.5318127e-16            2            1            2 1.2851215e-16 
     635    752.01969        5 5.5459959e-16            2            1            2 1.2844786e-16 
     640    756.48187        5 5.5602313e-16            2            1            2 1.2838359e-16 
     645    760.96276        5 5.5745189e-16            2            1            2 1.2831936e-16 
     650    765.45189        5 5.588859e-16            2            1            2 1.2825516e-16 
     655     769.9405        5 5.6032518e-16            2            1            2  1.28191e-16 
     660    774.46752        5 5.6176973e-16            2            1            2 1.2812686e-16 
     665    779.02266        5 5.6321959e-16            2            1            2 1.2806276e-16 
     670    783.58581        5 5.6467477e-16            2            1            2 1.2799869e-16 
     675    788.15436        5 5.6613529e-16            2            1            2 1.2793465e-16 
     680    792.71747        5 5.6760117e-16            2            1            2 1.2787065e-16 
     685    797.35534        5 5.6907242e-16            2            1            2 1.2780668e-16 
     690    801.97327        5 5.7054906e-16            2            1            2 1.2774273e-16 
     695    806.51443        5 5.7203112e-16            2            1            2 1.2767882e-16 
     700    811.09378        5 5.7351861e-16            2            1            2 1.2761495e-16 
     705    815.73724        5 5.7501155e-16            2            1            2 1.275511e-16 
     710    820.39221        5 5.7650996e-16            2            1            2 1.2748729e-16 
     715    825.06718        5 5.7801386e-16            2            1            2 1.2742351e-16 
     720    829.67148        5 5.7952327e-16            2            1            2 1.2735976e-16 
     725    834.28736        5 5.810382e-16            2            1            2 1.2729604e-16 
     730     838.9166        5 5.8255868e-16            2            1            2 1.2723235e-16 
     735    843.51851        5 5.8408473e-16            2            1            2 1.271687e-16 
     740    848.18356        5 5.8561635e-16            2            1            2 1.2710507e-16 
     745    852.86609        5 5.8715359e-16            2            1            2 1.2704148e-16 
     750    857.52706        5 5.8869644e-16            2            1            2 1.2697792e-16 
     755     862.1769        5 5.9024494e-16            2            1            2 1.269144e-16 
     760    866.83292        5 5.917991e-16            2            1            2 1.268509e-16 
     765    871.49954        5 5.9335895e-16            2            1            2 1.2678744e-16 
     770    876.13147        5 5.9492449e-16            2            1            2 1.2672401e-16 
     775    880.81527        5 5.9649576e-16            2            1            2 1.2666061e-16 
     780    885.51386        5 5.9807277e-16            2            1            2 1.2659724e-16 
     785    890.15824        5 5.9965554e-16            2            1            2 1.265339e-16 
     790    894.81844        5 6.0124409e-16            2            1            2 1.264706e-16 
     795    899.47812        5 6.0283844e-16            2            1            2 1.2640732e-16 
     800    904.18163        5 6.0443861e-16            2            1            2 1.2634408e-16 
     805    908.97609        5 6.0604463e-16            2            1            2 1.2628087e-16 
     810    913.84326        5 6.0765651e-16            2            1            2 1.2621769e-16 
     815    918.60031        5 6.0927427e-16            2            1            2 1.2615455e-16 
     820    923.37063        5 6.1089793e-16            2            1            2 1.2609143e-16 
     825    928.23438        5 6.1252752e-16            2            1            2 1.2602835e-16 
     830    933.02844        5 6.1416305e-16            2            1            2 1.259653e-16 
     835    937.81581        5 6.1580455e-16            2            1            2 1.2590228e-16 
     840    942.68139        5 6.1745203e-16            2            1            2 1.2583929e-16 
     845    947.60144        5 6.1910551e-16            2            1            2 1.2577633e-16 
     850    952.47284        5 6.2076503e-16            2            1            2 1.257134e-16 
     855     957.3354        5 6.2243059e-16            2            1            2 1.2565051e-16 
     860    962.25034        5 6.2410222e-16            2            1            2 1.2558765e-16 
     865    967.06599        5 6.2577994e-16            2            1            2 1.2552482e-16 
     870    971.87503        5 6.2746378e-16            2            1            2 1.2546202e-16 
     875    976.73888        5 6.2915374e-16            2            1            2 1.2539925e-16 
     880    981.59098        5 6.3084986e-16            2            1            2 1.2533651e-16 
     885     986.6291        5 6.3255215e-16            2            1            2 1.252738e-16 
     890    991.83029        5 6.3426064e-16            2            1            2 1.2521113e-16 
     895    996.79611        5 6.3597535e-16            2            1            2 1.2514849e-16 
     900    1001.7272        5 6.376963e-16            2            1            2 1.2508587e-16 
     905    1006.8256        5 6.3942351e-16            2            1            2 1.2502329e-16 
     910    1011.8741        5  6.41157e-16            2            1            2 1.2496075e-16 
     915     1016.966        5 6.428968e-16            2            1            2 1.2489823e-16 
     920     1022.006        5 6.4464292e-16            2            1            2 1.2483574e-16 
     925    1027.1306        5 6.463954e-16            2            1            2 1.2477329e-16 
     930    1032.1064        5 6.4815424e-16            2            1            2 1.2471086e-16 
     935    1037.0807        5 6.4991948e-16            2            1            2 1.2464847e-16 
     940    1042.1689        5 6.5169113e-16            2            1            2 1.2458611e-16 
     945    1047.1755        5 6.5346922e-16            2            1            2 1.2452378e-16 
     950    1052.1659        5 6.5525377e-16            2            1            2 1.2446148e-16 
     955    1057.1817        6 6.570448e-16            2            1            3 1.2439921e-16 
     960    1062.2933        6 6.5884234e-16            2            1            3 1.2433697e-16 
     965    1067.4261        6 6.6064641e-16            2            1            3 1.2427477e-16 
     970    1072.5388        6 6.6245702e-16            2            1            3 1.2421259e-16 
     975      1077.64        6 6.6427421e-16            2            1            3 1.2415045e-16 
     980    1082.7365        6 6.6609799e-16            2            1            3 1.2408834e-16 
     985    1087.8076        6 6.679284e-16            2            1            3 1.2402625e-16 
     990    1092.9087        7 6.6976544e-16            3            1            3 1.239642e-16 
     995    1098.0162        7 6.7160915e-16            3            1            3 1.2390218e-16 
    1000    1103.3667        7 6.7345955e-16            3            1            3 1.238402e-16 
    1005    1108.4764        7 6.7531666e-16            3            1            3 1.2377824e-16 
    1010    1113.6146        7 6.771805e-16            3            1            3 1.2371631e-16 
    1015    1118.8897        7 6.790511e-16            3            1            3 1.2365442e-16 
    1020    1124.3158        7 6.8092849e-16            3            1            3 1.2359255e-16 
    1025    1129.7039        7 6.8281267e-16            3            1            3 1.2353072e-16 
    1030    1135.0056        7 6.8470369e-16            3            1            3 1.2346892e-16 
    1035    1140.1852        7 6.8660156e-16            3            1            3 1.2340715e-16 
    1040    1145.4609        7 6.885063e-16            3            1            3 1.2334541e-16 
    1045    1150.7135        7 6.9041795e-16            3            1            3 1.232837e-16 
    1050    1155.9819        7 6.9233652e-16            3            1            3 1.2322202e-16 
    1055    1161.4306        7 6.9426204e-16            3            1            3 1.2316037e-16 
    1060    1166.8715        7 6.9619453e-16            3            1            3 1.2309875e-16 
    1065    1172.1377        7 6.9813402e-16            3            1            3 1.2303717e-16 
    1070    1177.4513        7 7.0008052e-16            3            1            3 1.2297561e-16 
    1075    1182.6699        7 7.0203408e-16            3            1            3 1.2291409e-16 
    1080    1188.2511        7 7.039947e-16            3            1            3 1.2285259e-16 
    1085    1193.8492        7 7.0596242e-16            3            1            3 1.2279113e-16 
    1090    1199.2286        7 7.0793726e-16            3            1            3 1.227297e-16 
    1095    1204.8301        7 7.0991924e-16            3            1            3 1.2266829e-16 
    1100    1210.1744        7 7.1190839e-16            3            1            3 1.2260692e-16 
    1105     1215.496        7 7.1390473e-16            3            1            3 1.2254558e-16 
    1110    1220.8556        7 7.1590829e-16            3            1            3 1.2248427e-16 
    1115    1226.1251        7 7.179191e-16            3            1            3  1.22423e-16 
    1120    1231.4069        7 7.1993717e-16            3            1            3 1.2236175e-16 
    1125    1236.7786        7 7.2196254e-16            3            1            3 1.2230053e-16 
    1130    1242.2824        7 7.2399523e-16            3            1            3 1.2223934e-16 
    1135    1247.8805        7 7.2603526e-16            3            1            3 1.2217819e-16 
    1140    1253.5274        7 7.2808267e-16            3            1            3 1.2211706e-16 
    1145    1259.1488        7 7.3013747e-16            3            1            3 1.2205597e-16 
    1150    1264.6439        7 7.3219969e-16            3            1            3 1.219949e-16 
    1155    1270.1141        7 7.3426936e-16            3            1            3 1.2193387e-16 
    1160    1275.5613        7 7.3634651e-16            3            1            3 1.2187286e-16 
    1165    1280.9806        7 7.3843115e-16            3            1            3 1.2181189e-16 
    1170    1286.4158        7 7.4052332e-16            3            1            3 1.2175095e-16 
    1175    1291.9756        7 7.4262304e-16            3            1            3 1.2169004e-16 
    1180    1297.5582        7 7.4473034e-16            3            1            3 1.2162915e-16 
    1185    1303.1346        7 7.4684525e-16            3            1            3 1.215683e-16 
    1190    1308.9433        7 7.4896779e-16            3            1            3 1.2150748e-16 
    1195     1314.646        7 7.5109798e-16            3            1            3 1.2144669e-16 
    1200    1320.5373        7 7.5323586e-16            3            1            3 1.2138593e-16 
    1205    1326.2492        7 7.5538145e-16            3            1            3 1.213252e-16 
    1210    1331.8018        7 7.5753477e-16            3            1            3 1.212645e-16 
    1215    1337.3768        7 7.5969586e-16            3            1            3 1.2120384e-16 
    1220    1342.9494        7 7.6186475e-16            3            1            3 1.211432e-16 
    1225    1348.5964        7 7.6404145e-16            3            1            3 1.2108259e-16 
    1230    1354.2825        7  7.66226e-16            3            1            3 1.2102201e-16 
    1235    1360.0332        7 7.6841842e-16            3            1            3 1.2096147e-16 
    1240    1366.2273        7 7.7061874e-16            3            1            3 1.2090095e-16 
    1245    1372.4449        7 7.7282699e-16            3            1            3 1.2084046e-16 
    1250     1378.678        7 7.750432e-16            3            1            3 1.2078001e-16 
    1255    1384.8238        7 7.7726739e-16            3            1            3 1.2071958e-16 
    1260    1390.6925        7 7.7949959e-16            3            1            3 1.2065918e-16 
    1265    1396.6765        7 7.8173983e-16            3            1            3 1.2059882e-16 
    1270    1402.6802        7 7.8398814e-16            3            1            3 1.2053848e-16 
    1275    1408.5611        8 7.8624454e-16            4            1            3 1.2047818e-16 
    1280    1414.5434        8 7.8850907e-16            4            1            3 1.204179e-16 
    1285    1420.4388        8 7.9078175e-16            4            1            3 1.2035766e-16 
    1290    1426.5546        8 7.9306261e-16            4            1            3 1.2029744e-16 
    1295    1432.8594        8 7.9535167e-16            4            1            3 1.2023726e-16 
    1300    1439.0035        8 7.9764898e-16            4            1            3 1.201771e-16 
    1305    1445.1875        8 7.9995455e-16            4            1            3 1.2011698e-16 
    1310    1450.9876        8 8.0226841e-16            4            1            3 1.2005688e-16 
    1315    1456.8978        8 8.045906e-16            4            1            3 1.1999682e-16 
    1320    1462.7887        8 8.0692114e-16            4            1            3 1.1993678e-16 
    1325    1468.6875        8 8.0926006e-16            4            1            3 1.1987678e-16 
    1330    1474.6389        8 8.1160739e-16            4            1            3 1.1981681e-16 
    1335    1480.5313        8 8.1396316e-16            4            1            3 1.1975686e-16 
    1340     1486.468        8 8.163274e-16            4            1            3 1.1969695e-16 
    1345    1492.4444        8 8.1870014e-16            4            1            3 1.1963706e-16 
    1350    1498.4199        8 8.2108141e-16            4            1            3 1.1957721e-16 
    1355    1504.3804        8 8.2347124e-16            4            1            3 1.1951738e-16 
    1360    1510.3817        8 8.2586965e-16            4            1            3 1.1945759e-16 
    1365    1516.3229        8 8.2827668e-16            4            1            3 1.1939782e-16 
    1370    1522.3383        8 8.3069236e-16            4            1            3 1.1933809e-16 
    1375    1528.4178        8 8.3311672e-16            4            1            3 1.1927839e-16 
    1380    1534.5272        8 8.3554978e-16            4            1            3 1.1921871e-16 
    1385    1540.5919        8 8.3799159e-16            4            1            3 1.1915907e-16 
    1390    1546.7243        8 8.4044216e-16            4            1            3 1.1909945e-16 
    1395    1552.9067        8 8.4290153e-16            4            1            3 1.1903986e-16 
    1400    1559.1474        8 8.4536973e-16            4            1            3 1.1898031e-16 
    1405    1565.4159        8 8.4784679e-16            4            1            3 1.1892078e-16 
    1410    1571.6935        8 8.5033275e-16            4            1            3 1.1886129e-16 
    1415     1577.864        8 8.5282762e-16            4            1            3 1.1880182e-16 
    1420    1584.0815        8 8.5533145e-16            4            1            3 1.1874238e-16 
    1425    1590.5711        8 8.5784427e-16            4            1            3 1.1868298e-16 
    1430    1597.1754        9 8.603661e-16            4            1            4 1.186236e-16 
    1435    1603.5715        9 8.6289697e-16            4            1            4 1.1856425e-16 
    1440    1609.8671        9 8.6543693e-16            4            1            4 1.1850494e-16 
    1445    1616.0788        9 8.6798599e-16            4            1            4 1.1844565e-16 
    1450    1622.2389        9 8.705442e-16            4            1            4 1.1838639e-16 
    1455    1628.4902        9 8.7311159e-16            4            1            4 1.1832716e-16 
    1460    1634.8547        9 8.7568818e-16            4            1            4 1.1826796e-16 
    1465    1641.1962        9  8.78274e-16            4            1            4 1.1820879e-16 
    1470    1647.6574        9 8.808691e-16            4            1            4 1.1814965e-16 
    1475    1654.0395        9 8.834735e-16            4            1            4 1.1809054e-16 
    1480    1660.3007        9 8.8608723e-16            4            1            4 1.1803146e-16 
    1485    1666.6982        9 8.8871033e-16            4            1            4 1.1797241e-16 
    1490    1673.1236        9 8.9134284e-16            4            1            4 1.1791339e-16 
    1495    1679.5191        9 8.9398477e-16            4            1            4 1.178544e-16 
    1500    1686.0529        9 8.9663617e-16            4            1            4 1.1779544e-16 
    1505     1692.481        9 8.9929707e-16            4            1            4 1.177365e-16 
    1510     1698.872        9 9.019675e-16            4            1            4 1.176776e-16 
    1515    1705.3984        9 9.0464749e-16            4            1            4 1.1761872e-16 
    1520    1711.8672        9 9.0733709e-16            4            1            4 1.1755988e-16 
    1525     1718.458        9 9.1003631e-16            4            1            4 1.1750107e-16 
    1530    1725.0192        9 9.127452e-16            4            1            4 1.1744228e-16 
    1535    1731.4949        9 9.1546379e-16            4            1            4 1.1738352e-16 
    1540     1738.055        9 9.1819211e-16            4            1            4 1.173248e-16 
    1545    1744.5409        9 9.209302e-16            4            1            4 1.172661e-16 
    1550    1751.1383        9 9.2367808e-16            4            1            4 1.1720743e-16 
    1555    1757.7524        9 9.2643581e-16            4            1            4 1.1714879e-16 
    1560    1764.3048        9 9.292034e-16            4            1            4 1.1709018e-16 
    1565    1770.9043        9 9.3198089e-16            4            1            4 1.170316e-16 
    1570    1777.5547        9 9.3476832e-16            4            1            4 1.1697305e-16 
    1575    1784.2646        9 9.3756573e-16            4            1            4 1.1691453e-16 
    1580    1790.9363        9 9.4037314e-16            4            1            4 1.1685604e-16 
    1585    1797.6028        9 9.4319059e-16            4            1            4 1.1679757e-16 
    1590    1804.3272        9 9.4601812e-16            4            1            4 1.1673914e-16 
    1595    1811.0338        9 9.4885577e-16            4            1            4 1.1668074e-16 
    1600    1817.8589        9 9.5170356e-16            4            1            4 1.1662236e-16 
    1605    1824.5767        9 9.5456153e-16            4            1            4 1.1656402e-16 
    1610    1831.4263        9 9.5742972e-16            4            1            4 1.165057e-16 
    1615    1838.2204        9 9.6030816e-16            4            1            4 1.1644741e-16 
    1620    1845.0544        9 9.631969e-16            4            1            4 1.1638915e-16 
    1625     1852.071        9 9.6609595e-16            4            1            4 1.1633092e-16 
    1630    1859.2114        9 9.6900537e-16            4            1            4 1.1627272e-16 
    1635    1866.1891        9 9.7192519e-16            4            1            4 1.1621455e-16 
    1640    1873.0734        9 9.7485544e-16            4            1            4 1.1615641e-16 
    1645     1880.149        9 9.7779616e-16            4            1            4 1.160983e-16 
    1650    1887.2665        9 9.8074739e-16            4            1            4 1.1604021e-16 
    1655    1894.0755        9 9.8370916e-16            4            1            4 1.1598216e-16 
    1660    1900.9192        9 9.8668151e-16            4            1            4 1.1592413e-16 
    1665    1907.7731        9 9.8966447e-16            4            1            4 1.1586614e-16 
    1670    1914.7732        9 9.9265809e-16            4            1            4 1.1580817e-16 
    1675    1921.7146        9 9.956624e-16            4            1            4 1.1575023e-16 
    1680    1928.7678        9 9.9867744e-16            4            1            4 1.1569232e-16 
    1685    1935.8013        9 1.0017032e-15            4            1            4 1.1563444e-16 
    1690    1942.7869        9 1.0047398e-15            4            1            4 1.1557659e-16 
    1695    1949.7876        9 1.0077873e-15            4            1            4 1.1551876e-16 
    1700    1956.9503        9 1.0108456e-15            4            1            4 1.1546097e-16 
    1705    1964.1254        9 1.0139149e-15            4            1            4 1.1540321e-16 
    1710    1971.2842        9 1.0169951e-15            4            1            4 1.1534547e-16 
    1715    1978.4001        9 1.0200862e-15            4            1            4 1.1528776e-16 
    1720    1985.4675        9 1.0231885e-15            4            1            4 1.1523008e-16 
    1725    1992.5648        9 1.0263017e-15            4            1            4 1.1517244e-16 
    1730    1999.7297        9 1.0294261e-15            4            1            4 1.1511481e-16 
    1735    2006.8757        9 1.0325617e-15            4            1            4 1.1505722e-16 
    1740    2013.9972        9 1.0357084e-15            4            1            4 1.1499966e-16 
    1745    2021.0831        9 1.0388664e-15            4            1            4 1.1494213e-16 
    1750    2028.1844        9 1.0420356e-15            4            1            4 1.1488462e-16 
    1755    2035.2576        9 1.0452161e-15            4            1            4 1.1482714e-16 
    1760     2042.434        9 1.0484079e-15            4            1            4 1.147697e-16 
    1765    2049.6227        9 1.0516112e-15            4            1            4 1.1471228e-16 
    1770    2056.8033        9 1.0548258e-15            4            1            4 1.1465489e-16 
    1775    2063.9646        9 1.058052e-15            4            1            4 1.1459753e-16 
    1780    2071.3147        9 1.0612896e-15            4            1            4 1.1454019e-16 
    1785    2078.5641        9 1.0645388e-15            4            1            4 1.1448289e-16 
    1790    2085.8007        9 1.0677995e-15            4            1            4 1.1442561e-16 
    1795    2093.1185        9 1.0710719e-15            4            1            4 1.1436837e-16 
    1800    2100.4926        9 1.0743559e-15            4            1            4 1.1431115e-16 
    1805     2107.965        9 1.0776516e-15            4            1            4 1.1425396e-16 
    1810    2115.4919        9 1.0809591e-15            4            1            4 1.141968e-16 
    1815    2122.9793        9 1.0842784e-15            4            1            4 1.1413966e-16 
    1820    2130.5176        9 1.0876094e-15            4            1            4 1.1408256e-16 
    1825    2138.1547        9 1.0909524e-15            4            1            4 1.1402549e-16 
    1830    2146.0862        9 1.0943072e-15            4            1            4 1.1396844e-16 
    1835    2153.9373       10 1.0976741e-15            4            1            5 1.1391142e-16 
    1840    2161.6347       10 1.1010529e-15            4            1            5 1.1385443e-16 
    1845    2169.2068       10 1.1044437e-15            4            1            5 1.1379747e-16 
    1850     2176.855       10 1.1078466e-15            4            1            5 1.1374054e-16 
    1855    2184.4064       10 1.1112616e-15            4            1            5 1.1368363e-16 
    1860    2192.0524       10 1.1146888e-15            4            1            5 1.1362676e-16 
    1865    2199.8851       10 1.1181282e-15            4            1            5 1.1356991e-16 
    1870    2207.9012       10 1.1215798e-15            4            1            5 1.1351309e-16 
    1875    2215.7243       10 1.1250437e-15            4            1            5 1.134563e-16 
    1880    2223.3153       10  1.12852e-15            4            1            5 1.1339954e-16 
    1885     2231.012       10 1.1320086e-15            4            1            5 1.1334281e-16 
    1890    2238.7691       10 1.1355096e-15            4            1            5 1.132861e-16 
    1895     2246.901       10 1.1390231e-15            4            1            5 1.1322943e-16 
    1900    2254.8594       10 1.1425491e-15            4            1            5 1.1317278e-16 
    1905    2262.8121       11 1.1460877e-15            5            1            5 1.1311616e-16 
    1910      2270.66       11 1.1496388e-15            5            1            5 1.1305957e-16 
    1915    2278.5838       11 1.1532026e-15            5            1            5  1.13003e-16 
    1920    2286.4782       11 1.156779e-15            5            1            5 1.1294647e-16 
    1925    2294.3725       11 1.1603682e-15            5            1            5 1.1288996e-16 
    1930    2302.2587       11 1.1639701e-15            5            1            5 1.1283348e-16 
    1935    2310.1536       11 1.1675849e-15            5            1            5 1.1277703e-16 
    1940    2318.1517       11 1.1712125e-15            5            1            5 1.1272061e-16 
    1945    2326.1437       11 1.174853e-15            5            1            5 1.1266422e-16 
    1950    2334.2327       11 1.1785064e-15            5            1            5 1.1260785e-16 
    1955    2342.1461       11 1.1821728e-15            5            1            5 1.1255151e-16 
    1960    2350.0895       11 1.1858523e-15            5            1            5 1.124952e-16 
    1965     2358.106       11 1.1895449e-15            5            1            5 1.1243892e-16 
    1970    2366.2337       11 1.1932505e-15            5            1            5 1.1238267e-16 
    1975     2374.467       11 1.1969694e-15            5            1            5 1.1232645e-16 
    1980    2382.8552       11 1.2007015e-15            5            1            5 1.1227025e-16 
    1985    2391.5681       11 1.2044468e-15            5            1            5 1.1221408e-16 
    1990    2399.9823       11 1.2082054e-15            5            1            5 1.1215794e-16 
    1995    2408.5341       11 1.2119775e-15            5            1            5 1.1210183e-16 
    2000    2416.8248       11 1.2157629e-15            5            1            5 1.1204574e-16 
    2005    2425.1752       11 1.2195617e-15            5            1            5 1.1198969e-16 
    2010    2433.3283       11 1.2233741e-15            5            1            5 1.1193366e-16 
    2015    2441.5842       11   1.2272e-15            5            1            5 1.1187766e-16 
    2020    2450.0546       12 1.2310395e-15            6            1            5 1.1182169e-16 
    2025    2458.4109       12 1.2348926e-15            6            1            5 1.1176575e-16 
    2030    2466.8218       12 1.2387594e-15            6            1            5 1.1170983e-16 
    2035    2475.2089       12  1.24264e-15            6            1            5 1.1165394e-16 
    2040    2483.7281       12 1.2465343e-15            6            1            5 1.1159808e-16 
    2045    2492.2687       12 1.2504425e-15            6            1            5 1.1154225e-16 
    2050    2501.1485       13 1.2543645e-15            7            1            5 1.1148645e-16 
    2055    2509.6325       13 1.2583005e-15            7            1            5 1.1143067e-16 
    2060    2518.1114       13 1.2622504e-15            7            1            5 1.1137492e-16 
    2065    2526.6969       13 1.2662144e-15            7            1            5 1.113192e-16 
    2070    2535.3083       13 1.2701924e-15            7            1            5 1.1126351e-16 
    2075    2544.0925       13 1.2741846e-15            7            1            5 1.1120784e-16 
    2080    2552.8208       13 1.278191e-15            7            1            5 1.1115221e-16 
    2085    2561.5781       13 1.2822115e-15            7            1            5 1.110966e-16 
    2090    2570.2633       13 1.2862463e-15            7            1            5 1.1104102e-16 
    2095    2579.0074       13 1.2902955e-15            7            1            5 1.1098546e-16 
    2100    2587.6323       13 1.294359e-15            7            1            5 1.1092994e-16 
    2105    2596.1766       13 1.298437e-15            7            1            5 1.1087444e-16 
    2110    2604.8385       13 1.3025294e-15            7            1            5 1.1081897e-16 
    2115     2613.412       13 1.3066363e-15            7            1            5 1.1076353e-16 
    2120    2622.0659       13 1.3107578e-15            7            1            5 1.1070812e-16 
    2125    2630.7837       13 1.3148939e-15            7            1            5 1.1065273e-16 
    2130    2639.4782       14 1.3190447e-15            7            1            6 1.1059737e-16 
    2135    2648.2647       14 1.3232103e-15            7            1            6 1.1054204e-16 
    2140    2656.9089       14 1.3273906e-15            7            1            6 1.1048674e-16 
    2145    2665.6884       14 1.3315857e-15            7            1            6 1.1043146e-16 
    2150    2674.4654       14 1.3357957e-15            7            1            6 1.1037621e-16 
    2155    2683.2468       14 1.3400207e-15            7            1            6 1.1032099e-16 
    2160    2692.1201       14 1.3442606e-15            7            1            6 1.102658e-16 
    2165    2700.9804       14 1.3485156e-15            7            1            6 1.1021063e-16 
    2170    2709.8937       14 1.3527856e-15            7            1            6 1.101555e-16 
    2175    2718.8992       14 1.3570708e-15            7            1            6 1.1010039e-16 
    2180    2727.7969       14 1.3613712e-15            7            1            6 1.100453e-16 
    2185    2736.6578       14 1.3656868e-15            7            1            6 1.0999025e-16 
    2190    2745.5599       14 1.3700177e-15            7            1            6 1.0993522e-16 
    2195    2754.3921       14 1.374364e-15            7            1            6 1.0988022e-16 
    2200    2763.1395       14 1.3787257e-15            7            1            6 1.0982525e-16 
    2205    2771.9214       14 1.3831029e-15            7            1            6 1.097703e-16 
    2210    2780.7129       15 1.3874955e-15            7            1            7 1.0971539e-16 
    2215     2789.506       15 1.3919038e-15            7            1            7 1.096605e-16 
    2220    2798.3232       15 1.3963276e-15            7            1            7 1.0960564e-16 
    2225    2807.3789       15 1.4007672e-15            7            1            7 1.095508e-16 
    2230    2816.3665       15 1.4052224e-15            7            1            7 1.0949599e-16 
    2235    2825.3621       15 1.4096935e-15            7            1            7 1.0944121e-16 
    2240    2834.3853       15 1.4141804e-15            7            1            7 1.0938646e-16 
    2245     2843.469       15 1.4186832e-15            7            1            7 1.0933174e-16 
    2250    2852.6662       15 1.4232019e-15            7            1            7 1.0927704e-16 
    2255    2862.0555       15 1.4277367e-15            7            1            7 1.0922237e-16 
    2260    2871.5897       15 1.4322875e-15            7            1            7 1.0916773e-16 
    2265    2880.8572       15 1.4368544e-15            7            1            7 1.0911311e-16 
    2270    2890.2759       15 1.4414376e-15            7            1            7 1.0905852e-16 
    2275    2899.4304       15 1.4460369e-15            7            1            7 1.0900396e-16 
    2280     2908.733       15 1.4506525e-15            7            1            7 1.0894943e-16 
    2285    2917.7392       15 1.4552845e-15            7            1            7 1.0889492e-16 
    2290    2926.9236       15 1.4599329e-15            7            1            7 1.0884044e-16 
    2295    2936.1295       15 1.4645978e-15            7            1            7 1.0878599e-16 
    2300    2945.2598       15 1.4692791e-15            7            1            7 1.0873157e-16 
    2305    2954.3476       15 1.4739771e-15            7            1            7 1.0867717e-16 
    2310    2963.5082       15 1.4786917e-15            7            1            7 1.086228e-16 
    2315    2972.5842       15 1.4834229e-15            7            1            7 1.0856846e-16 
    2320    2981.7587       15 1.4881709e-15            7            1            7 1.0851414e-16 
    2325    2991.1045       15 1.4929358e-15            7            1            7 1.0845985e-16 
    2330    3000.4616       15 1.4977175e-15            7            1            7 1.0840559e-16 
    2335    3009.6123       15 1.5025161e-15            7            1            7 1.0835136e-16 
    2340    3018.8417       15 1.5073317e-15            7            1            7 1.0829715e-16 
    2345    3028.0657       15 1.5121643e-15            7            1            7 1.0824297e-16 
    2350    3037.3162       15 1.5170141e-15            7            1            7 1.0818882e-16 
    2355    3046.5613       15 1.521881e-15            7            1            7 1.0813469e-16 
    2360     3055.826       15 1.5267652e-15            7            1            7 1.0808059e-16 
    2365    3065.2038       15 1.5316666e-15            7            1            7 1.0802652e-16 
    2370    3074.5686       15 1.5365853e-15            7            1            7 1.0797248e-16 
    2375    3084.0299       15 1.5415215e-15            7            1            7 1.0791846e-16 
    2380    3093.5167       15 1.5464752e-15            7            1            7 1.0786447e-16 
    2385    3102.9033       15 1.5514463e-15            7            1            7 1.0781051e-16 
    2390    3112.4525       15 1.5564351e-15            7            1            7 1.0775657e-16 
    2395    3122.3404       15 1.5614415e-15            7            1            7 1.0770266e-16 
    2400     3131.929       15 1.5664656e-15            7            1            7 1.0764878e-16 
    2405    3141.3762       15 1.5715074e-15            7            1            7 1.0759492e-16 
    2410     3150.863       15 1.5765672e-15            7            1            7 1.075411e-16 
    2415    3160.4269       15 1.5816448e-15            7            1            7 1.0748729e-16 
    2420    3169.9808       15 1.5867403e-15            7            1            7 1.0743352e-16 
    2425    3179.5401       15 1.5918539e-15            7            1            7 1.0737977e-16 
    2430    3189.2241       15 1.5969856e-15            7            1            7 1.0732605e-16 
    2435    3198.8716       15 1.6021354e-15            7            1            7 1.0727236e-16 
    2440    3208.6384       15 1.6073034e-15            7            1            7 1.0721869e-16 
    2445    3218.4199       15 1.6124897e-15            7            1            7 1.0716505e-16 
    2450    3228.2151       15 1.6176944e-15            7            1            7 1.0711144e-16 
    2455    3237.9886       15 1.6229174e-15            7            1            7 1.0705785e-16 
    2460    3247.9018       15 1.6281589e-15            7            1            7 1.0700429e-16 
    2465    3258.0008       15 1.633419e-15            7            1            7 1.0695076e-16 
    2470    3268.4243       15 1.6386976e-15            7            1            7 1.0689725e-16 
    2475     3278.402       15 1.6439949e-15            7            1            7 1.0684378e-16 
    2480    3288.5194       16 1.6493109e-15            8            1            7 1.0679032e-16 
    2485    3298.6587       16 1.6546457e-15            8            1            7 1.067369e-16 
    2490    3308.7618       16 1.6599994e-15            8            1            7 1.066835e-16 
    2495    3318.9394       16 1.665372e-15            8            1            7 1.0663013e-16 
    2500    3329.0304       16 1.6707635e-15            8            1            7 1.0657678e-16 
    2505    3338.9865       16 1.6761742e-15            8            1            7 1.0652346e-16 
    2510    3349.1245       16 1.6816039e-15            8            1            7 1.0647017e-16 
    2515       3359.1       16 1.6870529e-15            8            1            7 1.0641691e-16 
    2520    3369.1512       16 1.6925211e-15            8            1            7 1.0636367e-16 
    2525    3379.3431       16 1.6980086e-15            8            1            7 1.0631046e-16 
    2530    3389.5379       16 1.7035155e-15            8            1            7 1.0625727e-16 
    2535    3399.6411       16 1.7090418e-15            8            1            7 1.0620411e-16 
    2540    3409.8072       16 1.7145877e-15            8            1            7 1.0615098e-16 
    2545    3419.9436       16 1.7201532e-15            8            1            7 1.0609788e-16 
    2550    3430.1649       16 1.7257383e-15            8            1            7 1.060448e-16 
    2555    3440.3918       16 1.7313432e-15            8            1            7 1.0599175e-16 
    2560    3450.6189       16 1.7369678e-15            8            1            7 1.0593872e-16 
    2565    3460.8661       16 1.7426124e-15            8            1            7 1.0588572e-16 
    2570    3471.1919       16 1.7482768e-15            8            1            7 1.0583275e-16 
    2575     3481.562       16 1.7539613e-15            8            1            7 1.057798e-16 
    2580    3491.9315       16 1.7596659e-15            8            1            7 1.0572688e-16 
    2585    3502.2944       16 1.7653906e-15            8            1            7 1.0567399e-16 
    2590    3512.9383       16 1.7711355e-15            8            1            7 1.0562112e-16 
    2595    3523.5412       16 1.7769007e-15            8            1            7 1.0556828e-16 
    2600    3534.1059       16 1.7826862e-15            8            1            7 1.0551547e-16 
    2605    3544.9111       16 1.7884922e-15            8            1            7 1.0546268e-16 
    2610    3555.6653       16 1.7943187e-15            8            1            7 1.0540992e-16 
    2615     3566.394       16 1.8001658e-15            8            1            7 1.0535719e-16 
    2620    3577.0991       16 1.8060335e-15            8            1            7 1.0530448e-16 
    2625    3587.7917       16 1.8119219e-15            8            1            7 1.052518e-16 
    2630    3598.3081       16 1.8178311e-15            8            1            7 1.0519915e-16 
    2635    3608.8429       16 1.8237612e-15            8            1            7 1.0514652e-16 
    2640     3619.424       16 1.8297122e-15            8            1            7 1.0509392e-16 
    2645    3630.0731       16 1.8356842e-15            8            1            7 1.0504134e-16 
    2650    3640.7616       16 1.8416773e-15            8            1            7 1.0498879e-16 
    2655    3651.5243       16 1.8476915e-15            8            1            7 1.0493627e-16 
    2660    3662.2559       16 1.853727e-15            8            1            7 1.0488377e-16 
    2665    3673.0038       16 1.8597838e-15            8            1            7 1.048313e-16 
    2670    3683.8018       16 1.8658619e-15            8            1            7 1.0477885e-16 
    2675    3694.6587       16 1.8719615e-15            8            1            7 1.0472644e-16 
    2680    3705.5456       16 1.8780827e-15            8            1            7 1.0467404e-16 
    2685    3716.4289       16 1.8842254e-15            8            1            7 1.0462168e-16 
    2690    3727.3294       16 1.8903898e-15            8            1            7 1.0456934e-16 
    2695    3738.2863       16 1.896576e-15            8            1            7 1.0451703e-16 
    2700    3749.2601       16 1.9027839e-15            8            1            7 1.0446474e-16 
    2705    3760.2672       16 1.9090138e-15            8            1            7 1.0441248e-16 
    2710    3771.3003       16 1.9152657e-15            8            1            7 1.0436024e-16 
    2715    3782.3029       16 1.9215396e-15            8            1            7 1.0430804e-16 
    2720    3793.3168       16 1.9278357e-15            8            1            7 1.0425585e-16 
    2725    3804.3992       17 1.9341539e-15            8            1            8 1.042037e-16 
    2730    3815.6199       17 1.9404945e-15            8            1            8 1.0415157e-16 
    2735    3826.8128       17 1.9468574e-15            8            1            8 1.0409946e-16 
    2740    3837.9645       17 1.9532428e-15            8            1            8 1.0404739e-16 
    2745    3849.2338       17 1.9596507e-15            8            1            8 1.0399534e-16 
    2750    3860.5974       17 1.9660812e-15            8            1            8 1.0394331e-16 
    2755    3871.8691       17 1.9725343e-15            8            1            8 1.0389131e-16 
    2760    3883.2959       17 1.9790103e-15            8            1            8 1.0383934e-16 
    2765    3894.6577       17 1.985509e-15            8            1            8 1.0378739e-16 
    2770    3906.0454       17 1.9920307e-15            8            1            8 1.0373547e-16 
    2775    3917.4575       17 1.9985754e-15            8            1            8 1.0368357e-16 
    2780    3928.9157       17 2.0051432e-15            8            1            8 1.036317e-16 
    2785    3940.3859       17 2.0117341e-15            8            1            8 1.0357986e-16 
    2790    3951.9008       17 2.0183483e-15            8            1            8 1.0352804e-16 
    2795    3963.6078       17 2.0249858e-15            8            1            8 1.0347625e-16 
    2800    3975.1829       17 2.0316467e-15            8            1            8 1.0342449e-16 
    2805    3986.7828       17 2.0383311e-15            8            1            8 1.0337275e-16 
    2810    3998.4031       17 2.045039e-15            8            1            8 1.0332103e-16 
    2815    4010.3283       17 2.0517706e-15            8            1            8 1.0326935e-16 
    2820    4022.3185       18 2.0585259e-15            9            1            8 1.0321768e-16 
    2825    4043.4739       19 2.0653051e-15            9            1            9 1.0316605e-16 
    2830    4054.6195       19 2.0721082e-15            9            1            9 1.0311444e-16 
    2835     4066.042       19 2.0789352e-15            9            1            9 1.0306285e-16 
    2840     4077.564       19 2.0857863e-15            9            1            9 1.0301129e-16 
    2845    4089.2007       19 2.0926616e-15            9            1            9 1.0295976e-16 
    2850    4100.9614       19 2.0995611e-15            9            1            9 1.0290826e-16 
    2855    4112.8154       19 2.1064849e-15            9            1            9 1.0285677e-16 
    2860    4124.8632       19 2.1134331e-15            9            1            9 1.0280532e-16 
    2865    4136.8404       19 2.1204058e-15            9            1            9 1.0275389e-16 
    2870    4148.7493       19 2.1274031e-15            9            1            9 1.0270249e-16 
    2875    4160.8354       19 2.134425e-15            9            1            9 1.0265111e-16 
    2880    4172.9214       20 2.1414717e-15            9            1           10 1.0259976e-16 
    2885    4185.0018       20 2.1485432e-15            9            1           10 1.0254843e-16 
    2890    4197.1195       20 2.1556396e-15            9            1           10 1.0249713e-16 
    2895    4209.2453       20 2.1627611e-15            9            1           10 1.0244586e-16 
    2900    4221.4662       20 2.1699076e-15            9            1           10 1.0239461e-16 
    2905    4233.8512       20 2.1770793e-15            9            1           10 1.0234338e-16 
    2910    4246.3924       20 2.1842763e-15            9            1           10 1.0229219e-16 
    2915     4258.935       20 2.1914986e-15            9            1           10 1.0224101e-16 
    2920    4271.3994       21 2.1987464e-15           10            1           10 1.0218987e-16 
    2925    4283.7434       21 2.2060197e-15           10            1           10 1.0213875e-16 
    2930     4296.021       21 2.2133187e-15           10            1           10 1.0208765e-16 
    2935    4316.7454       22 2.2206434e-15           11            1           10 1.0203658e-16 
    2940    4328.0853       22 2.2279938e-15           11            1           10 1.0198554e-16 
    2945    4340.0683       22 2.2353702e-15           11            1           10 1.0193452e-16 
    2950     4352.334       22 2.2427726e-15           11            1           10 1.0188353e-16 
    2955    4364.6014       22 2.250201e-15           11            1           10 1.0183256e-16 
    2960    4376.9722       22 2.2576556e-15           11            1           10 1.0178162e-16 
    2965    4389.4072       22 2.2651365e-15           11            1           10 1.017307e-16 
    2970    4401.9326       22 2.2726437e-15           11            1           10 1.0167981e-16 
    2975    4414.4263       22 2.2801773e-15           11            1           10 1.0162895e-16 
    2980    4427.0201       22 2.2877375e-15           11            1           10 1.0157811e-16 
    2985    4439.6957       22 2.2953243e-15           11            1           10 1.0152729e-16 
    2990    4452.5058       22 2.3029378e-15           11            1           10 1.014765e-16 
    2995    4465.1768       23 2.3105782e-15           11            1           11 1.0142574e-16 
    3000    4477.8155       24 2.3182454e-15           12            1           11  1.01375e-16 
    3005    4490.5269       24 2.3259397e-15           12            1           11 1.0132429e-16 
    3010    4503.3068       24 2.333661e-15           12            1           11 1.012736e-16 
    3015    4516.0435       24 2.3414095e-15           12            1           11 1.0122294e-16 
    3020    4528.7614       24 2.3491853e-15           12            1           11 1.0117231e-16 
    3025    4541.6566       24 2.3569885e-15           12            1           11 1.011217e-16 
    3030    4554.5496       24 2.3648192e-15           12            1           11 1.0107111e-16 
    3035    4567.4482       24 2.3726774e-15           12            1           11 1.0102055e-16 
    3040    4580.5176       24 2.3805633e-15           12            1           11 1.0097002e-16 
    3045    4593.5311       24 2.3884769e-15           12            1           11 1.0091951e-16 
    3050    4606.6054       25 2.3964184e-15           13            1           11 1.0086902e-16 
    3055    4619.7257       25 2.4043879e-15           13            1           11 1.0081856e-16 
    3060    4632.8678       25 2.4123854e-15           13            1           11 1.0076813e-16 
    3065    4646.1438       25 2.4204111e-15           13            1           11 1.0071772e-16 
    3070    4659.2385       25 2.4284651e-15           13            1           11 1.0066734e-16 
    3075    4672.3127       26 2.4365473e-15           14            1           11 1.0061698e-16 
    3080    4685.3555       26 2.4446581e-15           14            1           11 1.0056665e-16 
    3085    4698.5148       26 2.4527973e-15           14            1           11 1.0051634e-16 
    3090    4711.6553       26 2.4609653e-15           14            1           11 1.0046606e-16 
    3095    4724.8765       26 2.4691619e-15           14            1           11 1.0041581e-16 
    3100    4738.1081       26 2.4773875e-15           14            1           11 1.0036557e-16 
    3105     4751.419       26 2.4856419e-15           14            1           11 1.0031537e-16 
    3110     4764.691       26 2.4939255e-15           14            1           11 1.0026519e-16 
    3115     4778.088       26 2.5022381e-15           14            1           11 1.0021503e-16 
    3120    4791.5622       26 2.5105801e-15           14            1           11 1.001649e-16 
    3125    4805.0902       26 2.5189513e-15           14            1           11 1.001148e-16 
    3130    4818.4339       26 2.5273521e-15           14            1           11 1.0006472e-16 
    3135    4831.7708       26 2.5357824e-15           14            1           11 1.0001466e-16 
    3140    4845.1607       26 2.5442423e-15           14            1           11 9.996463e-17 
    3145    4858.6513       26 2.5527321e-15           14            1           11 9.9914625e-17 
    3150    4872.4927       27 2.5612517e-15           14            1           12 9.9864645e-17 
    3155    4886.0702       27 2.5698012e-15           14            1           12 9.981469e-17 
    3160    4899.6706       27 2.5783809e-15           14            1           12 9.9764761e-17 
    3165    4913.3226       27 2.5869908e-15           14            1           12 9.9714856e-17 
    3170    4927.0344       27 2.5956309e-15           14            1           12 9.9664976e-17 
    3175    4940.6562       27 2.6043014e-15           14            1           12 9.9615122e-17 
    3180    4954.3467       27 2.6130025e-15           14            1           12 9.9565292e-17 
    3185    4968.2475       27 2.6217341e-15           14            1           12 9.9515488e-17 
    3190    4982.0528       27 2.6304965e-15           14            1           12 9.9465708e-17 
    3195    4995.8989       27 2.6392897e-15           14            1           12 9.9415953e-17 
    3200    5009.8112       27 2.6481138e-15           14            1           12 9.9366224e-17 
    3205    5023.7393       27 2.6569689e-15           14            1           12 9.9316519e-17 
    3210    5037.7181       27 2.6658552e-15           14            1           12 9.9266839e-17 
    3215    5051.6456       27 2.6747728e-15           14            1           12 9.9217184e-17 
    3220    5065.5857       27 2.6837217e-15           14            1           12 9.9167555e-17 
    3225    5079.6169       27 2.6927021e-15           14            1           12 9.911795e-17 
    3230    5093.8237       28 2.7017141e-15           15            1           12 9.9068369e-17 
    3235    5108.1051       28 2.7107578e-15           15            1           12 9.9018814e-17 
    3240    5122.2039       28 2.7198333e-15           15            1           12 9.8969284e-17 
    3245    5136.3318       28 2.7289407e-15           15            1           12 9.8919778e-17 
    3250    5150.5575       28 2.7380801e-15           15            1           12 9.8870298e-17 
    3255     5164.759       28 2.7472517e-15           15            1           12 9.8820842e-17 
    3260    5179.0244       28 2.7564555e-15           15            1           12 9.8771411e-17 
    3265    5193.4305       28 2.7656917e-15           15            1           12 9.8722005e-17 
    3270    5207.8155       28 2.7749604e-15           15            1           12 9.8672623e-17 
    3275    5222.2298       28 2.7842617e-15           15            1           12 9.8623267e-17 
    3280      5236.68       28 2.7935957e-15           15            1           12 9.8573935e-17 
    3285    5251.1845       28 2.8029625e-15           15            1           12 9.8524628e-17 
    3290    5265.6907       28 2.8123622e-15           15            1           12 9.8475346e-17 
    3295    5280.2271       28 2.821795e-15           15            1           12 9.8426088e-17 
    3300    5294.8895       28 2.8312609e-15           15            1           12 9.8376855e-17 
    3305    5309.5404       28 2.8407601e-15           15            1           12 9.8327647e-17 
    3310    5334.5694       30 2.8502928e-15           15            1           14 9.8278464e-17 
    3315    5347.2385       30 2.8598589e-15           15            1           14 9.8229305e-17 
    3320     5361.547       30 2.8694587e-15           15            1           14 9.8180171e-17 
    3325    5376.0252       30 2.8790923e-15           15            1           14 9.8131062e-17 
    3330    5390.6898       30 2.8887597e-15           15            1           14 9.8081977e-17 
    3335    5405.4776       30 2.8984611e-15           15            1           14 9.8032917e-17 
    3340    5420.2843       30 2.9081966e-15           15            1           14 9.7983882e-17 
    3345    5435.1476       30 2.9179663e-15           15            1           14 9.7934871e-17 
    3350    5450.0876       30 2.9277704e-15           15            1           14 9.7885885e-17 
    3355    5465.1658       30 2.9376089e-15           15            1           14 9.7836923e-17 
    3360    5480.3373       30 2.947482e-15           15            1           14 9.7787986e-17 
    3365    5495.5493       30 2.9573899e-15           15            1           14 9.7739074e-17 
    3370    5510.6674       30 2.9673325e-15           15            1           14 9.7690186e-17 
    3375    5525.7437       30 2.9773101e-15           15            1           14 9.7641323e-17 
    3380    5540.9683       30 2.9873227e-15           15            1           14 9.7592484e-17 
    3385    5556.1248       30 2.9973706e-15           15            1           14 9.754367e-17 
    3390    5571.5287       30 3.0074538e-15           15            1           14 9.749488e-17 
    3395    5587.0639       30 3.0175724e-15           15            1           14 9.7446115e-17 
    3400    5602.4687       30 3.0277265e-15           15            1           14 9.7397374e-17 
    3405    5617.9758       30 3.0379164e-15           15            1           14 9.7348658e-17 
    3410    5633.4388       30 3.048142e-15           15            1           14 9.7299967e-17 
    3415    5648.9359       30 3.0584036e-15           15            1           14 9.7251299e-17 
    3420    5664.4878       30 3.0687013e-15           15            1           14 9.7202657e-17 
    3425    5680.0887       30 3.0790351e-15           15            1           14 9.7154038e-17 
    3430    5695.7383       30 3.0894053e-15           15            1           14 9.7105444e-17 
    3435    5711.5553       30 3.0998119e-15           15            1           14 9.7056875e-17 
    3440    5727.7693       30 3.110255e-15           15            1           14 9.700833e-17 
    3445      5744.13       30 3.1207349e-15           15            1           14 9.6959809e-17 
    3450    5759.9204       30 3.1312516e-15           15            1           14 9.6911313e-17 
    3455    5775.9387       30 3.1418052e-15           15            1           14 9.6862841e-17 
    3460    5791.9369       30 3.1523959e-15           15            1           14 9.6814393e-17 
    3465    5808.0474       30 3.1630238e-15           15            1           14 9.676597e-17 
    3470    5824.4041       30 3.1736891e-15           15            1           14 9.6717571e-17 
    3475     5840.681       30 3.1843918e-15           15            1           14 9.6669196e-17 
    3480    5856.8857       30 3.1951322e-15           15            1           14 9.6620846e-17 
    3485    5873.1032       30 3.2059103e-15           15            1           14 9.657252e-17 
    3490    5889.2002       30 3.2167262e-15           15            1           14 9.6524218e-17 
    3495    5905.3709       30 3.2275801e-15           15            1           14 9.6475941e-17 
    3500    5921.5587       30 3.2384722e-15           15            1           14 9.6427688e-17 
    3505    5937.7983       30 3.2494025e-15           15            1           14 9.6379459e-17 
    3510    5954.2384       30 3.2603712e-15           15            1           14 9.6331254e-17 
    3515    5970.6264       30 3.2713785e-15           15            1           14 9.6283074e-17 
    3520    5987.0324       30 3.2824244e-15           15            1           14 9.6234918e-17 
    3525    6003.4725       31 3.2935091e-15           15            1           15 9.6186786e-17 
    3530     6020.137       31 3.3046328e-15           15            1           15 9.6138678e-17 
    3535    6036.7399       31 3.3157955e-15           15            1           15 9.6090594e-17 
    3540    6053.5408       31 3.3269975e-15           15            1           15 9.6042535e-17 
    3545    6070.4465       31 3.3382388e-15           15            1           15  9.59945e-17 
    3550     6087.045       31 3.3495195e-15           15            1           15 9.5946488e-17 
    3555    6103.6729       31 3.3608399e-15           15            1           15 9.5898502e-17 
    3560    6120.3575       31 3.3722001e-15           15            1           15 9.5850539e-17 
    3565    6137.1455       31 3.3836001e-15           15            1           15  9.58026e-17 
    3570    6154.0356       31 3.3950402e-15           15            1           15 9.5754685e-17 
    3575    6170.9017       31 3.4065205e-15           15            1           15 9.5706795e-17 
    3580    6187.9764       31 3.418041e-15           15            1           15 9.5658929e-17 
    3585    6205.1442       31 3.4296021e-15           15            1           15 9.5611086e-17 
    3590    6222.1029       31 3.4412037e-15           15            1           15 9.5563268e-17 
    3595    6239.1486       31 3.4528461e-15           15            1           15 9.5515474e-17 
    3600    6256.3897       32 3.4645294e-15           15            1           16 9.5467704e-17 
    3605    6273.8248       32 3.4762537e-15           15            1           16 9.5419957e-17 
    3610    6290.9236       32 3.4880191e-15           15            1           16 9.5372235e-17 
    3615    6308.0028       32 3.4998259e-15           15            1           16 9.5324537e-17 
    3620    6325.1703       32 3.5116741e-15           15            1           16 9.5276863e-17 
    3625    6342.5208       32 3.523564e-15           15            1           16 9.5229213e-17 
    3630    6359.7997       33 3.5354956e-15           15            1           17 9.5181587e-17 
    3635     6377.094       33 3.5474691e-15           15            1           17 9.5133985e-17 
    3640    6394.4466       33 3.5594846e-15           15            1           17 9.5086406e-17 
    3645    6411.8763       33 3.5715423e-15           15            1           17 9.5038852e-17 
    3650    6429.2726       33 3.5836424e-15           15            1           17 9.4991322e-17 
    3655    6446.7596       34 3.5957849e-15           16            1           17 9.4943815e-17 
    3660    6464.6091       34 3.6079701e-15           16            1           17 9.4896333e-17 
    3665    6482.2183       34 3.620198e-15           16            1           17 9.4848874e-17 
    3670    6499.8452       34 3.6324689e-15           16            1           17 9.4801439e-17 
    3675    6517.5496       34 3.6447829e-15           16            1           17 9.4754028e-17 
    3680    6535.2788       34  3.65714e-15           16            1           17 9.4706641e-17 
    3685    6553.0179       34 3.6695406e-15           16            1           17 9.4659278e-17 
    3690    6570.8354       34 3.6819847e-15           16            1           17 9.4611939e-17 
    3695     6588.942       34 3.6944725e-15           16            1           17 9.4564624e-17 
    3700    6606.9382       34 3.7070041e-15           16            1           17 9.4517332e-17 
    3705    6624.9449       34 3.7195798e-15           16            1           17 9.4470064e-17 
    3710    6643.1661       34 3.7321995e-15           16            1           17 9.442282e-17 
    3715    6661.5792       34 3.7448636e-15           16            1           17  9.43756e-17 
    3720    6679.7155       34 3.7575721e-15           16            1           17 9.4328403e-17 
    3725    6697.8464       35 3.7703252e-15           17            1           17 9.428123e-17 
    3730    6716.1215       35 3.7831231e-15           17            1           17 9.4234082e-17 
    3735    6734.4444       35 3.7959659e-15           17            1           17 9.4186956e-17 
    3740     6752.846       35 3.8088538e-15           17            1           17 9.4139855e-17 
    3745     6771.314       36 3.821787e-15           18            1           17 9.4092777e-17 
    3750    6789.7917       37 3.8347655e-15           19            1           17 9.4045723e-17 
    3755     6808.235       37 3.8477896e-15           19            1           17 9.3998693e-17 
    3760    6826.9532       37 3.8608593e-15           19            1           17 9.3951686e-17 
    3765    6845.4819       37 3.873975e-15           19            1           17 9.3904703e-17 
    3770    6864.0823       37 3.8871367e-15           19            1           17 9.3857744e-17 
    3775    6882.6768       37 3.9003446e-15           19            1           17 9.3810808e-17 
    3780     6901.471       37 3.9135988e-15           19            1           17 9.3763896e-17 
    3785    6920.2839       37 3.9268996e-15           19            1           17 9.3717008e-17 
    3790    6939.1288       37 3.940247e-15           19            1           17 9.3670143e-17 
    3795    6958.0619       37 3.9536413e-15           19            1           17 9.3623302e-17 
    3800    7004.6453       37 3.9670826e-15           19            1           17 9.3576484e-17 
    3805    7037.3315       37 3.980571e-15           19            1           17 9.352969e-17 
    3810    7054.5435       37 3.9941068e-15           19            1           17 9.348292e-17 
    3815    7072.5644       38 4.0076902e-15           20            1           17 9.3436173e-17 
    3820     7090.945       38 4.0213211e-15           20            1           17 9.338945e-17 
    3825    7109.4441       39 4.0349999e-15           21            1           17 9.334275e-17 
    3830    7128.1096       39 4.0487268e-15           21            1           17 9.3296074e-17 
    3835    7146.9726       39 4.0625017e-15           21            1           17 9.3249421e-17 
    3840    7165.8254       39 4.076325e-15           21            1           17 9.3202792e-17 
    3845    7184.7606       39 4.0901969e-15           21            1           17 9.3156187e-17 
    3850    7203.9561       40 4.1041174e-15           22            1           17 9.3109605e-17 
    3855    7223.0777       40 4.1180867e-15           22            1           17 9.3063046e-17 
    3860    7242.3252       40 4.132105e-15           22            1           17 9.3016511e-17 
    3865    7261.5916       40 4.1461726e-15           22            1           17 9.2969999e-17 
    3870    7280.9971       40 4.1602895e-15           22            1           17 9.2923511e-17 
    3875    7300.6426       40 4.1744559e-15           22            1           17 9.2877046e-17 
    3880    7320.0964       40 4.188672e-15           22            1           17 9.2830605e-17 
    3885    7339.5532       40 4.202938e-15           22            1           17 9.2784187e-17 
    3890    7359.5856       40 4.2172541e-15           22            1           17 9.2737792e-17 
    3895    7379.2522       41 4.2316204e-15           22            1           18 9.2691421e-17 
    3900    7398.9108       41 4.2460371e-15           22            1           18 9.2645074e-17 
    3905    7427.7809       42 4.2605043e-15           23            1           18 9.2598749e-17 
    3910    7465.6078       42 4.2750224e-15           23            1           18 9.2552448e-17 
    3915    7527.7422       42 4.2895914e-15           23            1           18 9.2506171e-17 
    3920    7588.4344       42 4.3042114e-15           23            1           18 9.2459916e-17 
    3925    7648.4098       42 4.3188828e-15           23            1           18 9.2413686e-17 
    3930    7663.7885       42 4.3336056e-15           23            1           18 9.2367478e-17 
    3935    7681.4637       42 4.3483801e-15           23            1           18 9.2321294e-17 
    3940    7699.7116       42 4.3632064e-15           23            1           18 9.2275133e-17 
    3945    7718.1798       42 4.3780847e-15           23            1           18 9.2228995e-17 
    3950    7737.0389       42 4.3930152e-15           23            1           18 9.2182881e-17 
    3955    7755.9471       42 4.407998e-15           23            1           18 9.213679e-17 
    3960    7775.0504       42 4.4230335e-15           23            1           18 9.2090722e-17 
    3965    7794.3243       42 4.4381216e-15           23            1           18 9.2044677e-17 
    3970    7813.6872       42 4.4532627e-15           23            1           18 9.1998656e-17 
    3975    7852.9554       42 4.4684569e-15           23            1           18 9.1952658e-17 
    3980    7915.4365       42 4.4837044e-15           23            1           18 9.1906683e-17 
    3985    7976.2665       42 4.4990054e-15           23            1           18 9.1860731e-17 
    3990    8036.6482       43 4.5143601e-15           23            1           19 9.1814803e-17 
    3995    8096.5303       43 4.5297686e-15           23            1           19 9.1768897e-17 
    4000    8156.3431       43 4.5452311e-15           23            1           19 9.1723015e-17 
    4005    8206.5396       43 4.5607