NUFEB Simulation 

       40 atoms 
       5 atom types 

   0.000000e-04   1e-04  xlo xhi 
   0.000000e-04   0.4e-04  ylo yhi 
   0.000000e-04   0.3e-04  zlo zhi 

 Atoms 

     1 1 1.0e-6 150 0.5e-5 0.5e-5 1e-6 1.0e-6 
     2 2 1.0e-6 150 1.5e-5 0.5e-5 1e-6 1.0e-6 
     3 3 1.0e-6 150 2.5e-5 0.5e-5 1e-6 1.0e-6 
     4 5 1.0e-6 150 3.5e-5 0.5e-5 1e-6 1.0e-6 
     5 1 1.0e-6 150 4.5e-5 0.5e-5 1e-6 1.0e-6  
     6 2 1.0e-6 150 5.5e-5 0.5e-5 1e-6 1.0e-6 
     7 3 1.0e-6 150 6.5e-5 0.5e-5 1e-6 1.0e-6 
     8 5 1.0e-6 150 7.5e-5 0.5e-5 1e-6 1.0e-6 
     9 1 1.0e-6 150 8.5e-5 0.5e-5 1e-6 1.0e-6 
     10 2 1.0e-6 150 9.5e-5 0.5e-5 1e-6 1.0e-6
     11 3 1.0e-6 150 0.5e-5 1.5e-5 1e-6 1.0e-6 
     12 5 1.0e-6 150 1.5e-5 1.5e-5 1e-6 1.0e-6 
     13 1 1.0e-6 150 2.5e-5 1.5e-5 1e-6 1.0e-6 
     14 2 1.0e-6 150 3.5e-5 1.5e-5 1e-6 1.0e-6 
     15 3 1.0e-6 150 4.5e-5 1.5e-5 1e-6 1.0e-6 
     16 5 1.0e-6 150 5.5e-5 1.5e-5 1e-6 1.0e-6 
     17 1 1.0e-6 150 6.5e-5 1.5e-5 1e-6 1.0e-6 
     18 2 1.0e-6 150 7.5e-5 1.5e-5 1e-6 1.0e-6 
     19 3 1.0e-6 150 8.5e-5 1.5e-5 1e-6 1.0e-6 
     20 5 1.0e-6 150 9.5e-5 1.5e-5 1e-6 1.0e-6 
     21 1 1.0e-6 150 0.5e-5 2.5e-5 1e-6 1.0e-6 
     22 2 1.0e-6 150 1.5e-5 2.5e-5 1e-6 1.0e-6 
     23 3 1.0e-6 150 2.5e-5 2.5e-5 1e-6 1.0e-6 
     24 5 1.0e-6 150 3.5e-5 2.5e-5 1e-6 1.0e-6 
     25 1 1.0e-6 150 4.5e-5 2.5e-5 1e-6 1.0e-6 
     26 2 1.0e-6 150 5.5e-5 2.5e-5 1e-6 1.0e-6 
     27 3 1.0e-6 150 6.5e-5 2.5e-5 1e-6 1.0e-6 
     28 5 1.0e-6 150 7.5e-5 2.5e-5 1e-6 1.0e-6 
     29 1 1.0e-6 150 8.5e-5 2.5e-5 1e-6 1.0e-6 
     30 2 1.0e-6 150 9.5e-5 2.5e-5 1e-6 1.0e-6 
     31 3 1.0e-6 150 0.5e-5 3.5e-5 1e-6 1.0e-6 
     32 5 1.0e-6 150 1.5e-5 3.5e-5 1e-6 1.0e-6 
     33 1 1.0e-6 150 2.5e-5 3.5e-5 1e-6 1.0e-6 
     34 2 1.0e-6 150 3.5e-5 3.5e-5 1e-6 1.0e-6 
     35 3 1.0e-6 150 4.5e-5 3.5e-5 1e-6 1.0e-6 
     36 5 1.0e-6 150 5.5e-5 3.5e-5 1e-6 1.0e-6 
     37 1 1.0e-6 150 6.5e-5 3.5e-5 1e-6 1.0e-6 
     38 2 1.0e-6 150 7.5e-5 3.5e-5 1e-6 1.0e-6 
     39 3 1.0e-6 150 8.5e-5 3.5e-5 1e-6 1.0e-6 
     40 5 1.0e-6 150 9.5e-5 3.5e-5 1e-6 1.0e-6 

