ITEM: TIMESTEP
0
ITEM: NUMBER OF ATOMS
10280
ITEM: BOX BOUNDS pp pp ff
0.0000000000000000e+00 1.6000000000000001e-03
0.0000000000000000e+00 3.0000000000000001e-05
0.0000000000000000e+00 3.8000000000000002e-04
ITEM: ATOMS id type diameter x y z 
1 1 1.211e-06 6.221e-06 6.221e-06 6.221e-06 
2 1 1.211e-06 1.2442e-05 6.221e-06 6.221e-06 
3 1 1.211e-06 1.8663e-05 6.221e-06 6.221e-06 
4 1 1.211e-06 2.4884e-05 6.221e-06 6.221e-06 
5 1 1.211e-06 3.1105e-05 6.221e-06 6.221e-06 
6 1 1.211e-06 3.7326e-05 6.221e-06 6.221e-06 
7 1 1.211e-06 4.3547e-05 6.221e-06 6.221e-06 
8 1 1.211e-06 4.9768e-05 6.221e-06 6.221e-06 
9 1 1.211e-06 5.5989e-05 6.221e-06 6.221e-06 
10 1 1.211e-06 6.221e-05 6.221e-06 6.221e-06 
11 1 1.211e-06 6.8431e-05 6.221e-06 6.221e-06 
12 1 1.211e-06 7.4652e-05 6.221e-06 6.221e-06 
13 1 1.211e-06 8.0873e-05 6.221e-06 6.221e-06 
14 1 1.211e-06 8.7094e-05 6.221e-06 6.221e-06 
15 1 1.211e-06 9.3315e-05 6.221e-06 6.221e-06 
16 1 1.211e-06 9.9536e-05 6.221e-06 6.221e-06 
17 1 1.211e-06 0.000105757 6.221e-06 6.221e-06 
18 1 1.211e-06 0.000111978 6.221e-06 6.221e-06 
19 1 1.211e-06 0.000118199 6.221e-06 6.221e-06 
20 1 1.211e-06 0.00012442 6.221e-06 6.221e-06 
21 1 1.211e-06 0.000130641 6.221e-06 6.221e-06 
22 1 1.211e-06 0.000136862 6.221e-06 6.221e-06 
23 1 1.211e-06 0.000143083 6.221e-06 6.221e-06 
24 1 1.211e-06 0.000149304 6.221e-06 6.221e-06 
25 1 1.211e-06 0.000155525 6.221e-06 6.221e-06 
26 1 1.211e-06 0.000161746 6.221e-06 6.221e-06 
27 1 1.211e-06 0.000167967 6.221e-06 6.221e-06 
28 1 1.211e-06 0.000174188 6.221e-06 6.221e-06 
29 1 1.211e-06 0.000180409 6.221e-06 6.221e-06 
30 1 1.211e-06 0.00018663 6.221e-06 6.221e-06 
31 1 1.211e-06 0.000192851 6.221e-06 6.221e-06 
32 1 1.211e-06 0.000199072 6.221e-06 6.221e-06 
33 1 1.211e-06 0.000205293 6.221e-06 6.221e-06 
34 1 1.211e-06 0.000211514 6.221e-06 6.221e-06 
35 1 1.211e-06 0.000217735 6.221e-06 6.221e-06 
36 1 1.211e-06 0.000223956 6.221e-06 6.221e-06 
37 1 1.211e-06 0.000230177 6.221e-06 6.221e-06 
38 1 1.211e-06 0.000236398 6.221e-06 6.221e-06 
39 1 1.211e-06 0.000242619 6.221e-06 6.221e-06 
40 1 1.211e-06 0.00024884 6.221e-06 6.221e-06 
41 1 1.211e-06 0.000255061 6.221e-06 6.221e-06 
42 1 1.211e-06 0.000261282 6.221e-06 6.221e-06 
43 1 1.211e-06 0.000267503 6.221e-06 6.221e-06 
44 1 1.211e-06 0.000273724 6.221e-06 6.221e-06 
45 1 1.211e-06 0.000279945 6.221e-06 6.221e-06 
46 1 1.211e-06 0.000286166 6.221e-06 6.221e-06 
47 1 1.211e-06 0.000292387 6.221e-06 6.221e-06 
48 1 1.211e-06 0.000298608 6.221e-06 6.221e-06 
49 1 1.211e-06 0.000304829 6.221e-06 6.221e-06 
50 1 1.211e-06 0.00031105 6.221e-06 6.221e-06 
51 1 1.211e-06 0.000317271 6.221e-06 6.221e-06 
52 1 1.211e-06 0.000323492 6.221e-06 6.221e-06 
53 1 1.211e-06 0.000329713 6.221e-06 6.221e-06 
54 1 1.211e-06 0.000335934 6.221e-06 6.221e-06 
55 1 1.211e-06 0.000342155 6.221e-06 6.221e-06 
56 1 1.211e-06 0.000348376 6.221e-06 6.221e-06 
57 1 1.211e-06 0.000354597 6.221e-06 6.221e-06 
58 1 1.211e-06 0.000360818 6.221e-06 6.221e-06 
59 1 1.211e-06 0.000367039 6.221e-06 6.221e-06 
60 1 1.211e-06 0.00037326 6.221e-06 6.221e-06 
61 1 1.211e-06 0.000379481 6.221e-06 6.221e-06 
62 1 1.211e-06 0.000385702 6.221e-06 6.221e-06 
63 1 1.211e-06 0.000391923 6.221e-06 6.221e-06 
64 1 1.211e-06 0.000398144 6.221e-06 6.221e-06 
65 1 1.211e-06 0.000404365 6.221e-06 6.221e-06 
66 1 1.211e-06 0.000410586 6.221e-06 6.221e-06 
67 1 1.211e-06 0.000416807 6.221e-06 6.221e-06 
68 1 1.211e-06 0.000423028 6.221e-06 6.221e-06 
69 1 1.211e-06 0.000429249 6.221e-06 6.221e-06 
70 1 1.211e-06 0.00043547 6.221e-06 6.221e-06 
71 1 1.211e-06 0.000441691 6.221e-06 6.221e-06 
72 1 1.211e-06 0.000447912 6.221e-06 6.221e-06 
73 1 1.211e-06 0.000454133 6.221e-06 6.221e-06 
74 1 1.211e-06 0.000460354 6.221e-06 6.221e-06 
75 1 1.211e-06 0.000466575 6.221e-06 6.221e-06 
76 1 1.211e-06 0.000472796 6.221e-06 6.221e-06 
77 1 1.211e-06 0.000479017 6.221e-06 6.221e-06 
78 1 1.211e-06 0.000485238 6.221e-06 6.221e-06 
79 1 1.211e-06 0.000491459 6.221e-06 6.221e-06 
80 1 1.211e-06 0.00049768 6.221e-06 6.221e-06 
81 1 1.211e-06 0.000503901 6.221e-06 6.221e-06 
82 1 1.211e-06 0.000510122 6.221e-06 6.221e-06 
83 1 1.211e-06 0.000516343 6.221e-06 6.221e-06 
84 1 1.211e-06 0.000522564 6.221e-06 6.221e-06 
85 1 1.211e-06 0.000528785 6.221e-06 6.221e-06 
86 1 1.211e-06 0.000535006 6.221e-06 6.221e-06 
87 1 1.211e-06 0.000541227 6.221e-06 6.221e-06 
88 1 1.211e-06 0.000547448 6.221e-06 6.221e-06 
89 1 1.211e-06 0.000553669 6.221e-06 6.221e-06 
90 1 1.211e-06 0.00055989 6.221e-06 6.221e-06 
91 1 1.211e-06 0.000566111 6.221e-06 6.221e-06 
92 1 1.211e-06 0.000572332 6.221e-06 6.221e-06 
93 1 1.211e-06 0.000578553 6.221e-06 6.221e-06 
94 1 1.211e-06 0.000584774 6.221e-06 6.221e-06 
95 1 1.211e-06 0.000590995 6.221e-06 6.221e-06 
96 1 1.211e-06 0.000597216 6.221e-06 6.221e-06 
97 1 1.211e-06 0.000603437 6.221e-06 6.221e-06 
98 1 1.211e-06 0.000609658 6.221e-06 6.221e-06 
99 1 1.211e-06 0.000615879 6.221e-06 6.221e-06 
100 1 1.211e-06 0.0006221 6.221e-06 6.221e-06 
101 1 1.211e-06 0.000628321 6.221e-06 6.221e-06 
102 1 1.211e-06 0.000634542 6.221e-06 6.221e-06 
103 1 1.211e-06 0.000640763 6.221e-06 6.221e-06 
104 1 1.211e-06 0.000646984 6.221e-06 6.221e-06 
105 1 1.211e-06 0.000653205 6.221e-06 6.221e-06 
106 1 1.211e-06 0.000659426 6.221e-06 6.221e-06 
107 1 1.211e-06 0.000665647 6.221e-06 6.221e-06 
108 1 1.211e-06 0.000671868 6.221e-06 6.221e-06 
109 1 1.211e-06 0.000678089 6.221e-06 6.221e-06 
110 1 1.211e-06 0.00068431 6.221e-06 6.221e-06 
111 1 1.211e-06 0.000690531 6.221e-06 6.221e-06 
112 1 1.211e-06 0.000696752 6.221e-06 6.221e-06 
113 1 1.211e-06 0.000702973 6.221e-06 6.221e-06 
114 1 1.211e-06 0.000709194 6.221e-06 6.221e-06 
115 1 1.211e-06 0.000715415 6.221e-06 6.221e-06 
116 1 1.211e-06 0.000721636 6.221e-06 6.221e-06 
117 1 1.211e-06 0.000727857 6.221e-06 6.221e-06 
118 1 1.211e-06 0.000734078 6.221e-06 6.221e-06 
119 1 1.211e-06 0.000740299 6.221e-06 6.221e-06 
120 1 1.211e-06 0.00074652 6.221e-06 6.221e-06 
121 1 1.211e-06 0.000752741 6.221e-06 6.221e-06 
122 1 1.211e-06 0.000758962 6.221e-06 6.221e-06 
123 1 1.211e-06 0.000765183 6.221e-06 6.221e-06 
124 1 1.211e-06 0.000771404 6.221e-06 6.221e-06 
125 1 1.211e-06 0.000777625 6.221e-06 6.221e-06 
126 1 1.211e-06 0.000783846 6.221e-06 6.221e-06 
127 1 1.211e-06 0.000790067 6.221e-06 6.221e-06 
128 1 1.211e-06 0.000796288 6.221e-06 6.221e-06 
129 1 1.211e-06 0.000802509 6.221e-06 6.221e-06 
130 1 1.211e-06 0.00080873 6.221e-06 6.221e-06 
131 1 1.211e-06 0.000814951 6.221e-06 6.221e-06 
132 1 1.211e-06 0.000821172 6.221e-06 6.221e-06 
133 1 1.211e-06 0.000827393 6.221e-06 6.221e-06 
134 1 1.211e-06 0.000833614 6.221e-06 6.221e-06 
135 1 1.211e-06 0.000839835 6.221e-06 6.221e-06 
136 1 1.211e-06 0.000846056 6.221e-06 6.221e-06 
137 1 1.211e-06 0.000852277 6.221e-06 6.221e-06 
138 1 1.211e-06 0.000858498 6.221e-06 6.221e-06 
139 1 1.211e-06 0.000864719 6.221e-06 6.221e-06 
140 1 1.211e-06 0.00087094 6.221e-06 6.221e-06 
141 1 1.211e-06 0.000877161 6.221e-06 6.221e-06 
142 1 1.211e-06 0.000883382 6.221e-06 6.221e-06 
143 1 1.211e-06 0.000889603 6.221e-06 6.221e-06 
144 1 1.211e-06 0.000895824 6.221e-06 6.221e-06 
145 1 1.211e-06 0.000902045 6.221e-06 6.221e-06 
146 1 1.211e-06 0.000908266 6.221e-06 6.221e-06 
147 1 1.211e-06 0.000914487 6.221e-06 6.221e-06 
148 1 1.211e-06 0.000920708 6.221e-06 6.221e-06 
149 1 1.211e-06 0.000926929 6.221e-06 6.221e-06 
150 1 1.211e-06 0.00093315 6.221e-06 6.221e-06 
151 1 1.211e-06 0.000939371 6.221e-06 6.221e-06 
152 1 1.211e-06 0.000945592 6.221e-06 6.221e-06 
153 1 1.211e-06 0.000951813 6.221e-06 6.221e-06 
154 1 1.211e-06 0.000958034 6.221e-06 6.221e-06 
155 1 1.211e-06 0.000964255 6.221e-06 6.221e-06 
156 1 1.211e-06 0.000970476 6.221e-06 6.221e-06 
157 1 1.211e-06 0.000976697 6.221e-06 6.221e-06 
158 1 1.211e-06 0.000982918 6.221e-06 6.221e-06 
159 1 1.211e-06 0.000989139 6.221e-06 6.221e-06 
160 1 1.211e-06 0.00099536 6.221e-06 6.221e-06 
161 1 1.211e-06 0.00100158 6.221e-06 6.221e-06 
162 1 1.211e-06 0.0010078 6.221e-06 6.221e-06 
163 1 1.211e-06 0.00101402 6.221e-06 6.221e-06 
164 1 1.211e-06 0.00102024 6.221e-06 6.221e-06 
165 1 1.211e-06 0.00102647 6.221e-06 6.221e-06 
166 1 1.211e-06 0.00103269 6.221e-06 6.221e-06 
167 1 1.211e-06 0.00103891 6.221e-06 6.221e-06 
168 1 1.211e-06 0.00104513 6.221e-06 6.221e-06 
169 1 1.211e-06 0.00105135 6.221e-06 6.221e-06 
170 1 1.211e-06 0.00105757 6.221e-06 6.221e-06 
171 1 1.211e-06 0.00106379 6.221e-06 6.221e-06 
172 1 1.211e-06 0.00107001 6.221e-06 6.221e-06 
173 1 1.211e-06 0.00107623 6.221e-06 6.221e-06 
174 1 1.211e-06 0.00108245 6.221e-06 6.221e-06 
175 1 1.211e-06 0.00108868 6.221e-06 6.221e-06 
176 1 1.211e-06 0.0010949 6.221e-06 6.221e-06 
177 1 1.211e-06 0.00110112 6.221e-06 6.221e-06 
178 1 1.211e-06 0.00110734 6.221e-06 6.221e-06 
179 1 1.211e-06 0.00111356 6.221e-06 6.221e-06 
180 1 1.211e-06 0.00111978 6.221e-06 6.221e-06 
181 1 1.211e-06 0.001126 6.221e-06 6.221e-06 
182 1 1.211e-06 0.00113222 6.221e-06 6.221e-06 
183 1 1.211e-06 0.00113844 6.221e-06 6.221e-06 
184 1 1.211e-06 0.00114466 6.221e-06 6.221e-06 
185 1 1.211e-06 0.00115089 6.221e-06 6.221e-06 
186 1 1.211e-06 0.00115711 6.221e-06 6.221e-06 
187 1 1.211e-06 0.00116333 6.221e-06 6.221e-06 
188 1 1.211e-06 0.00116955 6.221e-06 6.221e-06 
189 1 1.211e-06 0.00117577 6.221e-06 6.221e-06 
190 1 1.211e-06 0.00118199 6.221e-06 6.221e-06 
191 1 1.211e-06 0.00118821 6.221e-06 6.221e-06 
192 1 1.211e-06 0.00119443 6.221e-06 6.221e-06 
193 1 1.211e-06 0.00120065 6.221e-06 6.221e-06 
194 1 1.211e-06 0.00120687 6.221e-06 6.221e-06 
195 1 1.211e-06 0.00121309 6.221e-06 6.221e-06 
196 1 1.211e-06 0.00121932 6.221e-06 6.221e-06 
197 1 1.211e-06 0.00122554 6.221e-06 6.221e-06 
198 1 1.211e-06 0.00123176 6.221e-06 6.221e-06 
199 1 1.211e-06 0.00123798 6.221e-06 6.221e-06 
200 1 1.211e-06 0.0012442 6.221e-06 6.221e-06 
201 1 1.211e-06 0.00125042 6.221e-06 6.221e-06 
202 1 1.211e-06 0.00125664 6.221e-06 6.221e-06 
203 1 1.211e-06 0.00126286 6.221e-06 6.221e-06 
204 1 1.211e-06 0.00126908 6.221e-06 6.221e-06 
205 1 1.211e-06 0.00127531 6.221e-06 6.221e-06 
206 1 1.211e-06 0.00128153 6.221e-06 6.221e-06 
207 1 1.211e-06 0.00128775 6.221e-06 6.221e-06 
208 1 1.211e-06 0.00129397 6.221e-06 6.221e-06 
209 1 1.211e-06 0.00130019 6.221e-06 6.221e-06 
210 1 1.211e-06 0.00130641 6.221e-06 6.221e-06 
211 1 1.211e-06 0.00131263 6.221e-06 6.221e-06 
212 1 1.211e-06 0.00131885 6.221e-06 6.221e-06 
213 1 1.211e-06 0.00132507 6.221e-06 6.221e-06 
214 1 1.211e-06 0.00133129 6.221e-06 6.221e-06 
215 1 1.211e-06 0.00133752 6.221e-06 6.221e-06 
216 1 1.211e-06 0.00134374 6.221e-06 6.221e-06 
217 1 1.211e-06 0.00134996 6.221e-06 6.221e-06 
218 1 1.211e-06 0.00135618 6.221e-06 6.221e-06 
219 1 1.211e-06 0.0013624 6.221e-06 6.221e-06 
220 1 1.211e-06 0.00136862 6.221e-06 6.221e-06 
221 1 1.211e-06 0.00137484 6.221e-06 6.221e-06 
222 1 1.211e-06 0.00138106 6.221e-06 6.221e-06 
223 1 1.211e-06 0.00138728 6.221e-06 6.221e-06 
224 1 1.211e-06 0.0013935 6.221e-06 6.221e-06 
225 1 1.211e-06 0.00139973 6.221e-06 6.221e-06 
226 1 1.211e-06 0.00140595 6.221e-06 6.221e-06 
227 1 1.211e-06 0.00141217 6.221e-06 6.221e-06 
228 1 1.211e-06 0.00141839 6.221e-06 6.221e-06 
229 1 1.211e-06 0.00142461 6.221e-06 6.221e-06 
230 1 1.211e-06 0.00143083 6.221e-06 6.221e-06 
231 1 1.211e-06 0.00143705 6.221e-06 6.221e-06 
232 1 1.211e-06 0.00144327 6.221e-06 6.221e-06 
233 1 1.211e-06 0.00144949 6.221e-06 6.221e-06 
234 1 1.211e-06 0.00145571 6.221e-06 6.221e-06 
235 1 1.211e-06 0.00146194 6.221e-06 6.221e-06 
236 1 1.211e-06 0.00146816 6.221e-06 6.221e-06 
237 1 1.211e-06 0.00147438 6.221e-06 6.221e-06 
238 1 1.211e-06 0.0014806 6.221e-06 6.221e-06 
239 1 1.211e-06 0.00148682 6.221e-06 6.221e-06 
240 1 1.211e-06 0.00149304 6.221e-06 6.221e-06 
241 1 1.211e-06 0.00149926 6.221e-06 6.221e-06 
242 1 1.211e-06 0.00150548 6.221e-06 6.221e-06 
243 1 1.211e-06 0.0015117 6.221e-06 6.221e-06 
244 1 1.211e-06 0.00151792 6.221e-06 6.221e-06 
245 1 1.211e-06 0.00152414 6.221e-06 6.221e-06 
246 1 1.211e-06 0.00153037 6.221e-06 6.221e-06 
247 1 1.211e-06 0.00153659 6.221e-06 6.221e-06 
248 1 1.211e-06 0.00154281 6.221e-06 6.221e-06 
249 1 1.211e-06 0.00154903 6.221e-06 6.221e-06 
250 1 1.211e-06 0.00155525 6.221e-06 6.221e-06 
251 1 1.211e-06 0.00156147 6.221e-06 6.221e-06 
252 1 1.211e-06 0.00156769 6.221e-06 6.221e-06 
253 1 1.211e-06 0.00157391 6.221e-06 6.221e-06 
254 1 1.211e-06 0.00158013 6.221e-06 6.221e-06 
255 1 1.211e-06 0.00158636 6.221e-06 6.221e-06 
256 1 1.211e-06 0.00159258 6.221e-06 6.221e-06 
257 1 1.211e-06 0.0015988 6.221e-06 6.221e-06 
258 1 1.211e-06 6.221e-06 1.2442e-05 6.221e-06 
259 1 1.211e-06 1.2442e-05 1.2442e-05 6.221e-06 
260 1 1.211e-06 1.8663e-05 1.2442e-05 6.221e-06 
261 1 1.211e-06 2.4884e-05 1.2442e-05 6.221e-06 
262 1 1.211e-06 3.1105e-05 1.2442e-05 6.221e-06 
263 1 1.211e-06 3.7326e-05 1.2442e-05 6.221e-06 
264 1 1.211e-06 4.3547e-05 1.2442e-05 6.221e-06 
265 1 1.211e-06 4.9768e-05 1.2442e-05 6.221e-06 
266 1 1.211e-06 5.5989e-05 1.2442e-05 6.221e-06 
267 1 1.211e-06 6.221e-05 1.2442e-05 6.221e-06 
268 1 1.211e-06 6.8431e-05 1.2442e-05 6.221e-06 
269 1 1.211e-06 7.4652e-05 1.2442e-05 6.221e-06 
270 1 1.211e-06 8.0873e-05 1.2442e-05 6.221e-06 
271 1 1.211e-06 8.7094e-05 1.2442e-05 6.221e-06 
272 1 1.211e-06 9.3315e-05 1.2442e-05 6.221e-06 
273 1 1.211e-06 9.9536e-05 1.2442e-05 6.221e-06 
274 1 1.211e-06 0.000105757 1.2442e-05 6.221e-06 
275 1 1.211e-06 0.000111978 1.2442e-05 6.221e-06 
276 1 1.211e-06 0.000118199 1.2442e-05 6.221e-06 
277 1 1.211e-06 0.00012442 1.2442e-05 6.221e-06 
278 1 1.211e-06 0.000130641 1.2442e-05 6.221e-06 
279 1 1.211e-06 0.000136862 1.2442e-05 6.221e-06 
280 1 1.211e-06 0.000143083 1.2442e-05 6.221e-06 
281 1 1.211e-06 0.000149304 1.2442e-05 6.221e-06 
282 1 1.211e-06 0.000155525 1.2442e-05 6.221e-06 
283 1 1.211e-06 0.000161746 1.2442e-05 6.221e-06 
284 1 1.211e-06 0.000167967 1.2442e-05 6.221e-06 
285 1 1.211e-06 0.000174188 1.2442e-05 6.221e-06 
286 1 1.211e-06 0.000180409 1.2442e-05 6.221e-06 
287 1 1.211e-06 0.00018663 1.2442e-05 6.221e-06 
288 1 1.211e-06 0.000192851 1.2442e-05 6.221e-06 
289 1 1.211e-06 0.000199072 1.2442e-05 6.221e-06 
290 1 1.211e-06 0.000205293 1.2442e-05 6.221e-06 
291 1 1.211e-06 0.000211514 1.2442e-05 6.221e-06 
292 1 1.211e-06 0.000217735 1.2442e-05 6.221e-06 
293 1 1.211e-06 0.000223956 1.2442e-05 6.221e-06 
294 1 1.211e-06 0.000230177 1.2442e-05 6.221e-06 
295 1 1.211e-06 0.000236398 1.2442e-05 6.221e-06 
296 1 1.211e-06 0.000242619 1.2442e-05 6.221e-06 
297 1 1.211e-06 0.00024884 1.2442e-05 6.221e-06 
298 1 1.211e-06 0.000255061 1.2442e-05 6.221e-06 
299 1 1.211e-06 0.000261282 1.2442e-05 6.221e-06 
300 1 1.211e-06 0.000267503 1.2442e-05 6.221e-06 
301 1 1.211e-06 0.000273724 1.2442e-05 6.221e-06 
302 1 1.211e-06 0.000279945 1.2442e-05 6.221e-06 
303 1 1.211e-06 0.000286166 1.2442e-05 6.221e-06 
304 1 1.211e-06 0.000292387 1.2442e-05 6.221e-06 
305 1 1.211e-06 0.000298608 1.2442e-05 6.221e-06 
306 1 1.211e-06 0.000304829 1.2442e-05 6.221e-06 
307 1 1.211e-06 0.00031105 1.2442e-05 6.221e-06 
308 1 1.211e-06 0.000317271 1.2442e-05 6.221e-06 
309 1 1.211e-06 0.000323492 1.2442e-05 6.221e-06 
310 1 1.211e-06 0.000329713 1.2442e-05 6.221e-06 
311 1 1.211e-06 0.000335934 1.2442e-05 6.221e-06 
312 1 1.211e-06 0.000342155 1.2442e-05 6.221e-06 
313 1 1.211e-06 0.000348376 1.2442e-05 6.221e-06 
314 1 1.211e-06 0.000354597 1.2442e-05 6.221e-06 
315 1 1.211e-06 0.000360818 1.2442e-05 6.221e-06 
316 1 1.211e-06 0.000367039 1.2442e-05 6.221e-06 
317 1 1.211e-06 0.00037326 1.2442e-05 6.221e-06 
318 1 1.211e-06 0.000379481 1.2442e-05 6.221e-06 
319 1 1.211e-06 0.000385702 1.2442e-05 6.221e-06 
320 1 1.211e-06 0.000391923 1.2442e-05 6.221e-06 
321 1 1.211e-06 0.000398144 1.2442e-05 6.221e-06 
322 1 1.211e-06 0.000404365 1.2442e-05 6.221e-06 
323 1 1.211e-06 0.000410586 1.2442e-05 6.221e-06 
324 1 1.211e-06 0.000416807 1.2442e-05 6.221e-06 
325 1 1.211e-06 0.000423028 1.2442e-05 6.221e-06 
326 1 1.211e-06 0.000429249 1.2442e-05 6.221e-06 
327 1 1.211e-06 0.00043547 1.2442e-05 6.221e-06 
328 1 1.211e-06 0.000441691 1.2442e-05 6.221e-06 
329 1 1.211e-06 0.000447912 1.2442e-05 6.221e-06 
330 1 1.211e-06 0.000454133 1.2442e-05 6.221e-06 
331 1 1.211e-06 0.000460354 1.2442e-05 6.221e-06 
332 1 1.211e-06 0.000466575 1.2442e-05 6.221e-06 
333 1 1.211e-06 0.000472796 1.2442e-05 6.221e-06 
334 1 1.211e-06 0.000479017 1.2442e-05 6.221e-06 
335 1 1.211e-06 0.000485238 1.2442e-05 6.221e-06 
336 1 1.211e-06 0.000491459 1.2442e-05 6.221e-06 
337 1 1.211e-06 0.00049768 1.2442e-05 6.221e-06 
338 1 1.211e-06 0.000503901 1.2442e-05 6.221e-06 
339 1 1.211e-06 0.000510122 1.2442e-05 6.221e-06 
340 1 1.211e-06 0.000516343 1.2442e-05 6.221e-06 
341 1 1.211e-06 0.000522564 1.2442e-05 6.221e-06 
342 1 1.211e-06 0.000528785 1.2442e-05 6.221e-06 
343 1 1.211e-06 0.000535006 1.2442e-05 6.221e-06 
344 1 1.211e-06 0.000541227 1.2442e-05 6.221e-06 
345 1 1.211e-06 0.000547448 1.2442e-05 6.221e-06 
346 1 1.211e-06 0.000553669 1.2442e-05 6.221e-06 
347 1 1.211e-06 0.00055989 1.2442e-05 6.221e-06 
348 1 1.211e-06 0.000566111 1.2442e-05 6.221e-06 
349 1 1.211e-06 0.000572332 1.2442e-05 6.221e-06 
350 1 1.211e-06 0.000578553 1.2442e-05 6.221e-06 
351 1 1.211e-06 0.000584774 1.2442e-05 6.221e-06 
352 1 1.211e-06 0.000590995 1.2442e-05 6.221e-06 
353 1 1.211e-06 0.000597216 1.2442e-05 6.221e-06 
354 1 1.211e-06 0.000603437 1.2442e-05 6.221e-06 
355 1 1.211e-06 0.000609658 1.2442e-05 6.221e-06 
356 1 1.211e-06 0.000615879 1.2442e-05 6.221e-06 
357 1 1.211e-06 0.0006221 1.2442e-05 6.221e-06 
358 1 1.211e-06 0.000628321 1.2442e-05 6.221e-06 
359 1 1.211e-06 0.000634542 1.2442e-05 6.221e-06 
360 1 1.211e-06 0.000640763 1.2442e-05 6.221e-06 
361 1 1.211e-06 0.000646984 1.2442e-05 6.221e-06 
362 1 1.211e-06 0.000653205 1.2442e-05 6.221e-06 
363 1 1.211e-06 0.000659426 1.2442e-05 6.221e-06 
364 1 1.211e-06 0.000665647 1.2442e-05 6.221e-06 
365 1 1.211e-06 0.000671868 1.2442e-05 6.221e-06 
366 1 1.211e-06 0.000678089 1.2442e-05 6.221e-06 
367 1 1.211e-06 0.00068431 1.2442e-05 6.221e-06 
368 1 1.211e-06 0.000690531 1.2442e-05 6.221e-06 
369 1 1.211e-06 0.000696752 1.2442e-05 6.221e-06 
370 1 1.211e-06 0.000702973 1.2442e-05 6.221e-06 
371 1 1.211e-06 0.000709194 1.2442e-05 6.221e-06 
372 1 1.211e-06 0.000715415 1.2442e-05 6.221e-06 
373 1 1.211e-06 0.000721636 1.2442e-05 6.221e-06 
374 1 1.211e-06 0.000727857 1.2442e-05 6.221e-06 
375 1 1.211e-06 0.000734078 1.2442e-05 6.221e-06 
376 1 1.211e-06 0.000740299 1.2442e-05 6.221e-06 
377 1 1.211e-06 0.00074652 1.2442e-05 6.221e-06 
378 1 1.211e-06 0.000752741 1.2442e-05 6.221e-06 
379 1 1.211e-06 0.000758962 1.2442e-05 6.221e-06 
380 1 1.211e-06 0.000765183 1.2442e-05 6.221e-06 
381 1 1.211e-06 0.000771404 1.2442e-05 6.221e-06 
382 1 1.211e-06 0.000777625 1.2442e-05 6.221e-06 
383 1 1.211e-06 0.000783846 1.2442e-05 6.221e-06 
384 1 1.211e-06 0.000790067 1.2442e-05 6.221e-06 
385 1 1.211e-06 0.000796288 1.2442e-05 6.221e-06 
386 1 1.211e-06 0.000802509 1.2442e-05 6.221e-06 
387 1 1.211e-06 0.00080873 1.2442e-05 6.221e-06 
388 1 1.211e-06 0.000814951 1.2442e-05 6.221e-06 
389 1 1.211e-06 0.000821172 1.2442e-05 6.221e-06 
390 1 1.211e-06 0.000827393 1.2442e-05 6.221e-06 
391 1 1.211e-06 0.000833614 1.2442e-05 6.221e-06 
392 1 1.211e-06 0.000839835 1.2442e-05 6.221e-06 
393 1 1.211e-06 0.000846056 1.2442e-05 6.221e-06 
394 1 1.211e-06 0.000852277 1.2442e-05 6.221e-06 
395 1 1.211e-06 0.000858498 1.2442e-05 6.221e-06 
396 1 1.211e-06 0.000864719 1.2442e-05 6.221e-06 
397 1 1.211e-06 0.00087094 1.2442e-05 6.221e-06 
398 1 1.211e-06 0.000877161 1.2442e-05 6.221e-06 
399 1 1.211e-06 0.000883382 1.2442e-05 6.221e-06 
400 1 1.211e-06 0.000889603 1.2442e-05 6.221e-06 
401 1 1.211e-06 0.000895824 1.2442e-05 6.221e-06 
402 1 1.211e-06 0.000902045 1.2442e-05 6.221e-06 
403 1 1.211e-06 0.000908266 1.2442e-05 6.221e-06 
404 1 1.211e-06 0.000914487 1.2442e-05 6.221e-06 
405 1 1.211e-06 0.000920708 1.2442e-05 6.221e-06 
406 1 1.211e-06 0.000926929 1.2442e-05 6.221e-06 
407 1 1.211e-06 0.00093315 1.2442e-05 6.221e-06 
408 1 1.211e-06 0.000939371 1.2442e-05 6.221e-06 
409 1 1.211e-06 0.000945592 1.2442e-05 6.221e-06 
410 1 1.211e-06 0.000951813 1.2442e-05 6.221e-06 
411 1 1.211e-06 0.000958034 1.2442e-05 6.221e-06 
412 1 1.211e-06 0.000964255 1.2442e-05 6.221e-06 
413 1 1.211e-06 0.000970476 1.2442e-05 6.221e-06 
414 1 1.211e-06 0.000976697 1.2442e-05 6.221e-06 
415 1 1.211e-06 0.000982918 1.2442e-05 6.221e-06 
416 1 1.211e-06 0.000989139 1.2442e-05 6.221e-06 
417 1 1.211e-06 0.00099536 1.2442e-05 6.221e-06 
418 1 1.211e-06 0.00100158 1.2442e-05 6.221e-06 
419 1 1.211e-06 0.0010078 1.2442e-05 6.221e-06 
420 1 1.211e-06 0.00101402 1.2442e-05 6.221e-06 
421 1 1.211e-06 0.00102024 1.2442e-05 6.221e-06 
422 1 1.211e-06 0.00102647 1.2442e-05 6.221e-06 
423 1 1.211e-06 0.00103269 1.2442e-05 6.221e-06 
424 1 1.211e-06 0.00103891 1.2442e-05 6.221e-06 
425 1 1.211e-06 0.00104513 1.2442e-05 6.221e-06 
426 1 1.211e-06 0.00105135 1.2442e-05 6.221e-06 
427 1 1.211e-06 0.00105757 1.2442e-05 6.221e-06 
428 1 1.211e-06 0.00106379 1.2442e-05 6.221e-06 
429 1 1.211e-06 0.00107001 1.2442e-05 6.221e-06 
430 1 1.211e-06 0.00107623 1.2442e-05 6.221e-06 
431 1 1.211e-06 0.00108245 1.2442e-05 6.221e-06 
432 1 1.211e-06 0.00108868 1.2442e-05 6.221e-06 
433 1 1.211e-06 0.0010949 1.2442e-05 6.221e-06 
434 1 1.211e-06 0.00110112 1.2442e-05 6.221e-06 
435 1 1.211e-06 0.00110734 1.2442e-05 6.221e-06 
436 1 1.211e-06 0.00111356 1.2442e-05 6.221e-06 
437 1 1.211e-06 0.00111978 1.2442e-05 6.221e-06 
438 1 1.211e-06 0.001126 1.2442e-05 6.221e-06 
439 1 1.211e-06 0.00113222 1.2442e-05 6.221e-06 
440 1 1.211e-06 0.00113844 1.2442e-05 6.221e-06 
441 1 1.211e-06 0.00114466 1.2442e-05 6.221e-06 
442 1 1.211e-06 0.00115089 1.2442e-05 6.221e-06 
443 1 1.211e-06 0.00115711 1.2442e-05 6.221e-06 
444 1 1.211e-06 0.00116333 1.2442e-05 6.221e-06 
445 1 1.211e-06 0.00116955 1.2442e-05 6.221e-06 
446 1 1.211e-06 0.00117577 1.2442e-05 6.221e-06 
447 1 1.211e-06 0.00118199 1.2442e-05 6.221e-06 
448 1 1.211e-06 0.00118821 1.2442e-05 6.221e-06 
449 1 1.211e-06 0.00119443 1.2442e-05 6.221e-06 
450 1 1.211e-06 0.00120065 1.2442e-05 6.221e-06 
451 1 1.211e-06 0.00120687 1.2442e-05 6.221e-06 
452 1 1.211e-06 0.00121309 1.2442e-05 6.221e-06 
453 1 1.211e-06 0.00121932 1.2442e-05 6.221e-06 
454 1 1.211e-06 0.00122554 1.2442e-05 6.221e-06 
455 1 1.211e-06 0.00123176 1.2442e-05 6.221e-06 
456 1 1.211e-06 0.00123798 1.2442e-05 6.221e-06 
457 1 1.211e-06 0.0012442 1.2442e-05 6.221e-06 
458 1 1.211e-06 0.00125042 1.2442e-05 6.221e-06 
459 1 1.211e-06 0.00125664 1.2442e-05 6.221e-06 
460 1 1.211e-06 0.00126286 1.2442e-05 6.221e-06 
461 1 1.211e-06 0.00126908 1.2442e-05 6.221e-06 
462 1 1.211e-06 0.00127531 1.2442e-05 6.221e-06 
463 1 1.211e-06 0.00128153 1.2442e-05 6.221e-06 
464 1 1.211e-06 0.00128775 1.2442e-05 6.221e-06 
465 1 1.211e-06 0.00129397 1.2442e-05 6.221e-06 
466 1 1.211e-06 0.00130019 1.2442e-05 6.221e-06 
467 1 1.211e-06 0.00130641 1.2442e-05 6.221e-06 
468 1 1.211e-06 0.00131263 1.2442e-05 6.221e-06 
469 1 1.211e-06 0.00131885 1.2442e-05 6.221e-06 
470 1 1.211e-06 0.00132507 1.2442e-05 6.221e-06 
471 1 1.211e-06 0.00133129 1.2442e-05 6.221e-06 
472 1 1.211e-06 0.00133752 1.2442e-05 6.221e-06 
473 1 1.211e-06 0.00134374 1.2442e-05 6.221e-06 
474 1 1.211e-06 0.00134996 1.2442e-05 6.221e-06 
475 1 1.211e-06 0.00135618 1.2442e-05 6.221e-06 
476 1 1.211e-06 0.0013624 1.2442e-05 6.221e-06 
477 1 1.211e-06 0.00136862 1.2442e-05 6.221e-06 
478 1 1.211e-06 0.00137484 1.2442e-05 6.221e-06 
479 1 1.211e-06 0.00138106 1.2442e-05 6.221e-06 
480 1 1.211e-06 0.00138728 1.2442e-05 6.221e-06 
481 1 1.211e-06 0.0013935 1.2442e-05 6.221e-06 
482 1 1.211e-06 0.00139973 1.2442e-05 6.221e-06 
483 1 1.211e-06 0.00140595 1.2442e-05 6.221e-06 
484 1 1.211e-06 0.00141217 1.2442e-05 6.221e-06 
485 1 1.211e-06 0.00141839 1.2442e-05 6.221e-06 
486 1 1.211e-06 0.00142461 1.2442e-05 6.221e-06 
487 1 1.211e-06 0.00143083 1.2442e-05 6.221e-06 
488 1 1.211e-06 0.00143705 1.2442e-05 6.221e-06 
489 1 1.211e-06 0.00144327 1.2442e-05 6.221e-06 
490 1 1.211e-06 0.00144949 1.2442e-05 6.221e-06 
491 1 1.211e-06 0.00145571 1.2442e-05 6.221e-06 
492 1 1.211e-06 0.00146194 1.2442e-05 6.221e-06 
493 1 1.211e-06 0.00146816 1.2442e-05 6.221e-06 
494 1 1.211e-06 0.00147438 1.2442e-05 6.221e-06 
495 1 1.211e-06 0.0014806 1.2442e-05 6.221e-06 
496 1 1.211e-06 0.00148682 1.2442e-05 6.221e-06 
497 1 1.211e-06 0.00149304 1.2442e-05 6.221e-06 
498 1 1.211e-06 0.00149926 1.2442e-05 6.221e-06 
499 1 1.211e-06 0.00150548 1.2442e-05 6.221e-06 
500 1 1.211e-06 0.0015117 1.2442e-05 6.221e-06 
501 1 1.211e-06 0.00151792 1.2442e-05 6.221e-06 
502 1 1.211e-06 0.00152414 1.2442e-05 6.221e-06 
503 1 1.211e-06 0.00153037 1.2442e-05 6.221e-06 
504 1 1.211e-06 0.00153659 1.2442e-05 6.221e-06 
505 1 1.211e-06 0.00154281 1.2442e-05 6.221e-06 
506 1 1.211e-06 0.00154903 1.2442e-05 6.221e-06 
507 1 1.211e-06 0.00155525 1.2442e-05 6.221e-06 
508 1 1.211e-06 0.00156147 1.2442e-05 6.221e-06 
509 1 1.211e-06 0.00156769 1.2442e-05 6.221e-06 
510 1 1.211e-06 0.00157391 1.2442e-05 6.221e-06 
511 1 1.211e-06 0.00158013 1.2442e-05 6.221e-06 
512 1 1.211e-06 0.00158636 1.2442e-05 6.221e-06 
513 1 1.211e-06 0.00159258 1.2442e-05 6.221e-06 
514 1 1.211e-06 0.0015988 1.2442e-05 6.221e-06 
515 1 1.211e-06 6.221e-06 1.8663e-05 6.221e-06 
516 1 1.211e-06 1.2442e-05 1.8663e-05 6.221e-06 
517 1 1.211e-06 1.8663e-05 1.8663e-05 6.221e-06 
518 1 1.211e-06 2.4884e-05 1.8663e-05 6.221e-06 
519 1 1.211e-06 3.1105e-05 1.8663e-05 6.221e-06 
520 1 1.211e-06 3.7326e-05 1.8663e-05 6.221e-06 
521 1 1.211e-06 4.3547e-05 1.8663e-05 6.221e-06 
522 1 1.211e-06 4.9768e-05 1.8663e-05 6.221e-06 
523 1 1.211e-06 5.5989e-05 1.8663e-05 6.221e-06 
524 1 1.211e-06 6.221e-05 1.8663e-05 6.221e-06 
525 1 1.211e-06 6.8431e-05 1.8663e-05 6.221e-06 
526 1 1.211e-06 7.4652e-05 1.8663e-05 6.221e-06 
527 1 1.211e-06 8.0873e-05 1.8663e-05 6.221e-06 
528 1 1.211e-06 8.7094e-05 1.8663e-05 6.221e-06 
529 1 1.211e-06 9.3315e-05 1.8663e-05 6.221e-06 
530 1 1.211e-06 9.9536e-05 1.8663e-05 6.221e-06 
531 1 1.211e-06 0.000105757 1.8663e-05 6.221e-06 
532 1 1.211e-06 0.000111978 1.8663e-05 6.221e-06 
533 1 1.211e-06 0.000118199 1.8663e-05 6.221e-06 
534 1 1.211e-06 0.00012442 1.8663e-05 6.221e-06 
535 1 1.211e-06 0.000130641 1.8663e-05 6.221e-06 
536 1 1.211e-06 0.000136862 1.8663e-05 6.221e-06 
537 1 1.211e-06 0.000143083 1.8663e-05 6.221e-06 
538 1 1.211e-06 0.000149304 1.8663e-05 6.221e-06 
539 1 1.211e-06 0.000155525 1.8663e-05 6.221e-06 
540 1 1.211e-06 0.000161746 1.8663e-05 6.221e-06 
541 1 1.211e-06 0.000167967 1.8663e-05 6.221e-06 
542 1 1.211e-06 0.000174188 1.8663e-05 6.221e-06 
543 1 1.211e-06 0.000180409 1.8663e-05 6.221e-06 
544 1 1.211e-06 0.00018663 1.8663e-05 6.221e-06 
545 1 1.211e-06 0.000192851 1.8663e-05 6.221e-06 
546 1 1.211e-06 0.000199072 1.8663e-05 6.221e-06 
547 1 1.211e-06 0.000205293 1.8663e-05 6.221e-06 
548 1 1.211e-06 0.000211514 1.8663e-05 6.221e-06 
549 1 1.211e-06 0.000217735 1.8663e-05 6.221e-06 
550 1 1.211e-06 0.000223956 1.8663e-05 6.221e-06 
551 1 1.211e-06 0.000230177 1.8663e-05 6.221e-06 
552 1 1.211e-06 0.000236398 1.8663e-05 6.221e-06 
553 1 1.211e-06 0.000242619 1.8663e-05 6.221e-06 
554 1 1.211e-06 0.00024884 1.8663e-05 6.221e-06 
555 1 1.211e-06 0.000255061 1.8663e-05 6.221e-06 
556 1 1.211e-06 0.000261282 1.8663e-05 6.221e-06 
557 1 1.211e-06 0.000267503 1.8663e-05 6.221e-06 
558 1 1.211e-06 0.000273724 1.8663e-05 6.221e-06 
559 1 1.211e-06 0.000279945 1.8663e-05 6.221e-06 
560 1 1.211e-06 0.000286166 1.8663e-05 6.221e-06 
561 1 1.211e-06 0.000292387 1.8663e-05 6.221e-06 
562 1 1.211e-06 0.000298608 1.8663e-05 6.221e-06 
563 1 1.211e-06 0.000304829 1.8663e-05 6.221e-06 
564 1 1.211e-06 0.00031105 1.8663e-05 6.221e-06 
565 1 1.211e-06 0.000317271 1.8663e-05 6.221e-06 
566 1 1.211e-06 0.000323492 1.8663e-05 6.221e-06 
567 1 1.211e-06 0.000329713 1.8663e-05 6.221e-06 
568 1 1.211e-06 0.000335934 1.8663e-05 6.221e-06 
569 1 1.211e-06 0.000342155 1.8663e-05 6.221e-06 
570 1 1.211e-06 0.000348376 1.8663e-05 6.221e-06 
571 1 1.211e-06 0.000354597 1.8663e-05 6.221e-06 
572 1 1.211e-06 0.000360818 1.8663e-05 6.221e-06 
573 1 1.211e-06 0.000367039 1.8663e-05 6.221e-06 
574 1 1.211e-06 0.00037326 1.8663e-05 6.221e-06 
575 1 1.211e-06 0.000379481 1.8663e-05 6.221e-06 
576 1 1.211e-06 0.000385702 1.8663e-05 6.221e-06 
577 1 1.211e-06 0.000391923 1.8663e-05 6.221e-06 
578 1 1.211e-06 0.000398144 1.8663e-05 6.221e-06 
579 1 1.211e-06 0.000404365 1.8663e-05 6.221e-06 
580 1 1.211e-06 0.000410586 1.8663e-05 6.221e-06 
581 1 1.211e-06 0.000416807 1.8663e-05 6.221e-06 
582 1 1.211e-06 0.000423028 1.8663e-05 6.221e-06 
583 1 1.211e-06 0.000429249 1.8663e-05 6.221e-06 
584 1 1.211e-06 0.00043547 1.8663e-05 6.221e-06 
585 1 1.211e-06 0.000441691 1.8663e-05 6.221e-06 
586 1 1.211e-06 0.000447912 1.8663e-05 6.221e-06 
587 1 1.211e-06 0.000454133 1.8663e-05 6.221e-06 
588 1 1.211e-06 0.000460354 1.8663e-05 6.221e-06 
589 1 1.211e-06 0.000466575 1.8663e-05 6.221e-06 
590 1 1.211e-06 0.000472796 1.8663e-05 6.221e-06 
591 1 1.211e-06 0.000479017 1.8663e-05 6.221e-06 
592 1 1.211e-06 0.000485238 1.8663e-05 6.221e-06 
593 1 1.211e-06 0.000491459 1.8663e-05 6.221e-06 
594 1 1.211e-06 0.00049768 1.8663e-05 6.221e-06 
595 1 1.211e-06 0.000503901 1.8663e-05 6.221e-06 
596 1 1.211e-06 0.000510122 1.8663e-05 6.221e-06 
597 1 1.211e-06 0.000516343 1.8663e-05 6.221e-06 
598 1 1.211e-06 0.000522564 1.8663e-05 6.221e-06 
599 1 1.211e-06 0.000528785 1.8663e-05 6.221e-06 
600 1 1.211e-06 0.000535006 1.8663e-05 6.221e-06 
601 1 1.211e-06 0.000541227 1.8663e-05 6.221e-06 
602 1 1.211e-06 0.000547448 1.8663e-05 6.221e-06 
603 1 1.211e-06 0.000553669 1.8663e-05 6.221e-06 
604 1 1.211e-06 0.00055989 1.8663e-05 6.221e-06 
605 1 1.211e-06 0.000566111 1.8663e-05 6.221e-06 
606 1 1.211e-06 0.000572332 1.8663e-05 6.221e-06 
607 1 1.211e-06 0.000578553 1.8663e-05 6.221e-06 
608 1 1.211e-06 0.000584774 1.8663e-05 6.221e-06 