 NUFEB Simulation

     38 atoms 
     2 atom types 

  0.0e-4   1.00e-04  xlo xhi 
  0.0e-4   1.00e-04  ylo yhi 
  0.0e-4   1.00e-05  zlo zhi 

 Atoms 

     1 1 1.74e-06  370 2.05e-05 8.42e-05 4.98e-06 1.74e-06
     2 1 1.91e-06  370 5.42e-05 8.86e-05 5.31e-06 1.91e-06
     3 1 1.81e-06  370 1.56e-05 1.33e-05 6.73e-06 1.81e-06
     4 1 1.47e-06  370 2.14e-05 3.62e-06 2.38e-06 1.47e-06
     5 1 1.37e-06  370 1.20e-05 6.41e-06 7.90e-06 1.37e-06
     6 1 1.45e-06  370 7.40e-05 2.76e-05 4.91e-06 1.45e-06
     7 1 1.83e-06  370 7.44e-05 5.72e-05 5.29e-06 1.83e-06
     8 1 1.69e-06  370 1.38e-05 8.83e-05 5.29e-06 1.69e-06
     9 1 1.40e-06  370 1.22e-05 8.33e-05 6.95e-06 1.40e-06
     10 1 1.69e-06  370 9.50e-06 4.83e-05 4.68e-06 1.69e-06
     11 2 1.00e-06  236 8.02e-05 2.44e-05 4.88e-06 1.00e-06
     12 2 9.03e-07  236 4.37e-05 5.92e-06 1.12e-06 9.03e-07
     13 2 9.27e-07  236 9.85e-06 3.78e-05 4.12e-06 9.27e-07
     14 2 9.29e-07  236 1.24e-05 7.49e-05 4.67e-06 9.29e-07
     15 2 9.77e-07  236 4.35e-05 2.43e-05 7.64e-06 9.77e-07
     16 2 9.92e-07  236 1.26e-05 8.61e-05 5.85e-06 9.92e-07
     17 2 1.00e-06  236 1.54e-05 9.10e-05 6.94e-06 1.00e-06
     18 2 9.51e-07  236 7.55e-05 6.28e-05 7.53e-06 9.51e-07
     19 2 9.14e-07  236 7.70e-05 7.58e-05 5.98e-06 9.14e-07
     20 2 9.98e-07  236 7.20e-05 3.49e-05 7.20e-06 9.98e-07
     21 2 9.80e-07  236 2.31e-05 2.01e-05 6.56e-06 9.80e-07
     22 2 9.92e-07  236 1.50e-05 1.23e-05 5.64e-06 9.92e-07
     23 2 1.01e-06  236 2.50e-05 1.62e-05 5.80e-06 1.01e-06
     24 2 9.16e-07  236 4.98e-05 3.91e-05 4.46e-06 9.16e-07
     25 2 1.01e-06  236 5.82e-05 3.58e-05 3.64e-06 1.01e-06
     26 2 8.95e-07  236 9.30e-05 9.73e-05 1.41e-06 8.95e-07
     27 2 9.14e-07  236 7.76e-05 8.00e-05 6.98e-06 9.14e-07
     28 2 9.85e-07  236 7.00e-06 9.20e-05 5.25e-06 9.85e-07
     29 2 8.91e-07  236 5.55e-05 1.07e-05 8.41e-06 8.91e-07
     30 2 9.76e-07  236 2.56e-05 9.21e-05 2.80e-06 9.76e-07
     31 2 9.19e-07  236 6.51e-05 5.39e-05 3.98e-06 9.19e-07
     32 2 1.00e-06  236 1.24e-05 7.72e-05 8.32e-06 1.00e-06
     33 2 9.17e-07  236 9.49e-05 8.00e-05 5.14e-06 9.17e-07
     34 2 9.18e-07  236 9.43e-05 3.49e-05 7.01e-06 9.18e-07
     35 2 9.87e-07  236 6.46e-05 3.52e-05 2.44e-06 9.87e-07
     36 2 1.00e-06  236 3.54e-05 4.35e-05 5.20e-06 1.00e-06
     37 2 9.26e-07  236 4.68e-05 3.34e-05 2.19e-06 9.26e-07
     38 2 1.01e-06  236 7.96e-05 5.81e-05 1.12e-06 1.01e-06
