LAMMPS (5 Nov 2016)
# NUFEB simulation

atom_style	bio
atom_modify	map array sort 1000 5.0e-7
boundary	ff ff ff
newton		off
#processors  2 1 1

comm_modify	vel yes
read_data_bio atom.in
  orthogonal box = (0 0 0) to (0.0001 0.0001 0.0001)
  1 by 1 by 1 MPI processor grid
  reading atoms ...
  3 atoms
  10 nutrients

group AOB type 1
1 atoms in group AOB
group NOB type 2
1 atoms in group NOB
group COMM type 3
1 atoms in group COMM

neighbor	5.0e-7 bin
neigh_modify	delay 0 one 5000

#pair_style none
pair_style  gran/hooke/history 0.000200 NULL 0.000050 NULL 0.0 1

pair_coeff  * *
timestep 36

fix 1 all nve/limit 1e-8

#fix	 2 all gravity 1.47 vector 0 0 -1 # spherical 90.0 -180.0
#fix     3 all fdrag
fix 10 all viscous 0.1


fix xw all wall/gran hooke/history 2000 NULL 500.0 NULL 1.5 0 xplane  0.0   1.0e-04
fix yw all wall/gran hooke/history 2000 NULL 500.0 NULL 1.5 0 yplane  0.0   1.0e-04
fix zw all wall/gran hooke/history 2000 NULL 500.0 NULL 1.5 0 zplane  0.0   1.0e-04

variable kanc equal 50

fix xwa all walladh v_kanc xplane  0.0   1.0e-04
fix ywa all walladh v_kanc yplane  0.0   1.0e-04
fix zwa all walladh v_kanc zplane  0.0   1.0e-04

##############Ibm Variable Definitions##############

#Defining EPS density and ratio variables
variable EPSdens equal 30
variable EPSratio equal 1.25

variable ke equal 5e+10

#Defining kinetics variables
variable temp equal 298.15
variable gasTran equal 0.08205746
variable gvol equal 8e-14
variable rth equal 0.0083144
variable pressure equal 1
variable ph equal 7.0

#Defining diffusion variables
variable diffT equal 1e-7
variable tol equal 8e-11

##############Ibm functions##############

fix k1 all kinetics 25 25 25 v_temp v_rth v_gvol v_gasTran v_ph
fix g1 all diffusion exp v_diffT v_tol pp pp nd
#fix ki3 all kinetics/ph 1
fix ki2 all kinetics/thermo 1 fix open v_pressure
fix ki1 all kinetics/monod 1 v_EPSdens
fix d1 all divide 1 v_EPSdens 1 31231

#fix j1 all epsadh 1 v_ke 1
#fix e1 HET eps_extract 16 v_EPSratio v_EPSdens 1242242

##############Ibm compute##############

compute myMass all biomass
compute myNtypes all ntypes

##############Simulation outputs##############

#dump		id all custom 250 snapshot.bubblemd id type diameter x y z
dump            d0 all bio 500 biomass
thermo_style    custom step cpu atoms biomass c_myNtypes[*] c_myMass[2]
thermo		5
thermo_modify	lost ignore

run  5000
Neighbor list info ...
  2 neighbor list requests
  update every 1 steps, delay 0 steps, check yes
  max neighbors/atom: 5000, page size: 100000
  master list distance cutoff = 1.466e-06
  ghost atom cutoff = 1.466e-06
  binsize = 7.33e-07 -> bins = 137 137 137
Memory usage per processor = 18.9946 Mbytes
Step CPU Atoms biomass c_myNtypes[1] c_myNtypes[2] c_myNtypes[3] c_myMass[2] 
       0            0        3 4.1062866e-16            1            1            1 1.3687622e-16 
       5     2.135437        3 4.1151574e-16            1            1            1 1.3680774e-16 
      10     2.367815        3 4.1240619e-16            1            1            1 1.3673929e-16 
      15    2.6148748        3 4.1330002e-16            1            1            1 1.3667088e-16 
      20     2.862551        3 4.1419725e-16            1            1            1 1.3660251e-16 
      25    3.0909338        3 4.1509788e-16            1            1            1 1.3653417e-16 
      30    3.3359799        3 4.1600193e-16            1            1            1 1.3646586e-16 
      35    3.5831809        3 4.1690941e-16            1            1            1 1.3639758e-16 
      40    3.8191719        3 4.1782034e-16            1            1            1 1.3632934e-16 
      45    4.0762179        3 4.1873471e-16            1            1            1 1.3626114e-16 
      50     4.345412        3 4.1965255e-16            1            1            1 1.3619297e-16 
      55    4.6059928        3 4.2057387e-16            1            1            1 1.3612483e-16 
      60    4.8554058        3 4.2149868e-16            1            1            1 1.3605673e-16 
      65    5.1138978        3 4.2242699e-16            1            1            1 1.3598866e-16 
      70    5.3519828        3 4.2335882e-16            1            1            1 1.3592062e-16 
      75    5.5928049        3 4.2429417e-16            1            1            1 1.3585262e-16 
      80    5.8429539        3 4.2523306e-16            1            1            1 1.3578465e-16 
      85     6.100178        3 4.261755e-16            1            1            1 1.3571672e-16 
      90     6.349901        3 4.271215e-16            1            1            1 1.3564882e-16 
      95    6.5716219        3 4.2807107e-16            1            1            1 1.3558096e-16 
     100    6.8308818        3 4.2902424e-16            1            1            1 1.3551313e-16 
     105    7.1208148        3  4.29981e-16            1            1            1 1.3544533e-16 
     110     7.421798        3 4.3094137e-16            1            1            1 1.3537757e-16 
     115     7.716907        3 4.3190537e-16            1            1            1 1.3530984e-16 
     120    7.9997668        3 4.3287301e-16            1            1            1 1.3524214e-16 
     125     8.277724        3 4.338443e-16            1            1            1 1.3517448e-16 
     130    8.5474708        3 4.3481924e-16            1            1            1 1.3510685e-16 
     135    8.8110549        3 4.3579787e-16            1            1            1 1.3503926e-16 
     140    9.0686638        3 4.3678018e-16            1            1            1 1.349717e-16 
     145    9.3555169        3 4.3776619e-16            1            1            1 1.3490417e-16 
     150    9.6438968        4 4.3875591e-16            2            1            1 1.3483668e-16 
     155    9.9213789        5 4.3974936e-16            2            1            2 1.3476922e-16 
     160    10.212814        5 4.4074655e-16            2            1            2 1.3470179e-16 
     165     10.48187        5 4.4174749e-16            2            1            2 1.346344e-16 
     170    10.782819        5 4.4275219e-16            2            1            2 1.3456705e-16 
     175    11.087567        5 4.4376068e-16            2            1            2 1.3449972e-16 
     180    11.398482        5 4.4477295e-16            2            1            2 1.3443243e-16 
     185    11.723284        5 4.4578903e-16            2            1            2 1.3436517e-16 
     190    12.016179        5 4.4680892e-16            2            1            2 1.3429795e-16 
     195    12.282758        5 4.4783265e-16            2            1            2 1.3423076e-16 
     200     12.53301        5 4.4886021e-16            2            1            2 1.3416361e-16 
     205    12.803762        5 4.4989164e-16            2            1            2 1.3409649e-16 
     210    13.084963        5 4.5092693e-16            2            1            2 1.340294e-16 
     215    13.354629        5 4.5196611e-16            2            1            2 1.3396234e-16 
     220    13.642753        5 4.5300919e-16            2            1            2 1.3389532e-16 
     225    13.951972        5 4.5405617e-16            2            1            2 1.3382833e-16 
     230     14.29158        5 4.5510708e-16            2            1            2 1.3376138e-16 
     235    14.644763        5 4.5616193e-16            2            1            2 1.3369446e-16 
     240    14.995383        5 4.5722073e-16            2            1            2 1.3362757e-16 
     245    15.300901        5 4.5828349e-16            2            1            2 1.3356072e-16 
     250    15.592378        5 4.5935024e-16            2            1            2 1.334939e-16 
     255    15.871976        5 4.6042097e-16            2            1            2 1.3342711e-16 
     260    16.159324        5 4.6149571e-16            2            1            2 1.3336036e-16 
     265    16.408755        5 4.6257447e-16            2            1            2 1.3329364e-16 
     270     16.64381        5 4.6365727e-16            2            1            2 1.3322695e-16 
     275    16.883383        5 4.6474411e-16            2            1            2 1.3316029e-16 
     280    17.121472        5 4.6583502e-16            2            1            2 1.3309367e-16 
     285    17.364946        5   4.6693e-16            2            1            2 1.3302709e-16 
     290    17.610261        5 4.6802907e-16            2            1            2 1.3296053e-16 
     295    17.857582        5 4.6913224e-16            2            1            2 1.3289401e-16 
     300    18.133303        5 4.7023953e-16            2            1            2 1.3282753e-16 
     305     18.42237        5 4.7135096e-16            2            1            2 1.3276107e-16 
     310    18.711408        5 4.7246653e-16            2            1            2 1.3269465e-16 
     315    18.999183        5 4.7358627e-16            2            1            2 1.3262827e-16 
     320    19.352862        5 4.7471018e-16            2            1            2 1.3256191e-16 
     325     19.69949        5 4.7583828e-16            2            1            2 1.3249559e-16 
     330     20.05961        5 4.7697058e-16            2            1            2 1.324293e-16 
     335    20.418679        5 4.7810711e-16            2            1            2 1.3236305e-16 
     340    20.786446        5 4.7924787e-16            2            1            2 1.3229683e-16 
     345    21.161286        5 4.8039287e-16            2            1            2 1.3223064e-16 
     350    21.531464        5 4.8154214e-16            2            1            2 1.3216449e-16 
     355    21.909745        5 4.8269569e-16            2            1            2 1.3209836e-16 
     360    22.281367        5 4.8385353e-16            2            1            2 1.3203228e-16 
     365    22.661901        5 4.8501568e-16            2            1            2 1.3196622e-16 
     370    23.061156        5 4.8618215e-16            2            1            2 1.319002e-16 
     375    23.463142        5 4.8735296e-16            2            1            2 1.3183421e-16 
     380    23.843163        5 4.8852812e-16            2            1            2 1.3176825e-16 
     385    24.197265        5 4.8970765e-16            2            1            2 1.3170233e-16 
     390    24.551887        5 4.9089157e-16            2            1            2 1.3163644e-16 
     395    24.892111        5 4.9207988e-16            2            1            2 1.3157058e-16 
     400    25.214197        5 4.932726e-16            2            1            2 1.3150475e-16 
     405    25.579563        5 4.9446975e-16            2            1            2 1.3143896e-16 
     410    25.895334        5 4.9567135e-16            2            1            2 1.313732e-16 
     415    26.222008        5 4.968774e-16            2            1            2 1.3130748e-16 
     420    26.549775        5 4.9808793e-16            2            1            2 1.3124178e-16 
     425    26.869802        5 4.9930296e-16            2            1            2 1.3117612e-16 
     430    27.190105        5 5.0052248e-16            2            1            2 1.311105e-16 
     435    27.523316        5 5.0174653e-16            2            1            2 1.310449e-16 
     440    27.842538        5 5.0297511e-16            2            1            2 1.3097934e-16 
     445    28.179159        5 5.0420825e-16            2            1            2 1.3091381e-16 
     450    28.530001        5 5.0544596e-16            2            1            2 1.3084832e-16 
     455    28.881548        5 5.0668825e-16            2            1            2 1.3078285e-16 
     460    29.295074        5 5.0793514e-16            2            1            2 1.3071742e-16 
     465    29.625305        5 5.0918665e-16            2            1            2 1.3065202e-16 
     470     29.94517        5 5.1044279e-16            2            1            2 1.3058666e-16 
     475    30.277046        5 5.1170357e-16            2            1            2 1.3052133e-16 
     480      30.6068        5 5.1296903e-16            2            1            2 1.3045603e-16 
     485    30.940017        5 5.1423916e-16            2            1            2 1.3039076e-16 
     490    31.270726        5 5.1551399e-16            2            1            2 1.3032552e-16 
     495    31.603948        5 5.1679353e-16            2            1            2 1.3026032e-16 
     500    31.934218        5 5.180778e-16            2            1            2 1.3019515e-16 
     505    32.264992        5 5.1936682e-16            2            1            2 1.3013002e-16 
     510    32.592092        5 5.206606e-16            2            1            2 1.3006491e-16 
     515    32.926717        5 5.2195916e-16            2            1            2 1.2999984e-16 
     520    33.260545        5 5.2326252e-16            2            1            2 1.299348e-16 
     525    33.594223        5 5.2457068e-16            2            1            2 1.298698e-16 
     530    33.941584        5 5.2588368e-16            2            1            2 1.2980482e-16 
     535    34.262385        5 5.2720152e-16            2            1            2 1.2973988e-16 
     540    34.597492        5 5.2852422e-16            2            1            2 1.2967497e-16 
     545    34.993833        5 5.298518e-16            2            1            2 1.296101e-16 
     550    35.340173        5 5.3118428e-16            2            1            2 1.2954525e-16 
     555      35.7439        5 5.3252167e-16            2            1            2 1.2948044e-16 
     560    36.068024        5 5.3386399e-16            2            1            2 1.2941566e-16 
     565    36.455587        5 5.3521126e-16            2            1            2 1.2935091e-16 
     570    36.854951        5 5.3656349e-16            2            1            2 1.292862e-16 
     575    37.243854        5 5.3792071e-16            2            1            2 1.2922152e-16 
     580    37.648132        5 5.3928292e-16            2            1            2 1.2915687e-16 
     585     38.03024        5 5.4065015e-16            2            1            2 1.2909225e-16 
     590    38.396017        5 5.4202241e-16            2            1            2 1.2902767e-16 
     595    38.762256        5 5.4339972e-16            2            1            2 1.2896311e-16 
     600    39.101944        5 5.447821e-16            2            1            2 1.2889859e-16 
     605    39.447115        5 5.4616957e-16            2            1            2 1.2883411e-16 
     610    39.794932        5 5.4756214e-16            2            1            2 1.2876965e-16 
     615    40.163553        5 5.4895984e-16            2            1            2 1.2870523e-16 
     620    40.531899        5 5.5036267e-16            2            1            2 1.2864084e-16 
     625    40.892343        5 5.5177066e-16            2            1            2 1.2857648e-16 
     630    41.267459        5 5.5318382e-16            2            1            2 1.2851215e-16 
     635    41.626957        5 5.5460218e-16            2            1            2 1.2844786e-16 
     640    41.986822        5 5.5602574e-16            2            1            2 1.2838359e-16 
     645    42.349641        5 5.5745454e-16            2            1            2 1.2831936e-16 
     650    42.706978        5 5.5888859e-16            2            1            2 1.2825516e-16 
     655     43.06785        5 5.6032789e-16            2            1            2  1.28191e-16 
     660    43.453089        5 5.6177249e-16            2            1            2 1.2812686e-16 
     665    43.813398        5 5.6322238e-16            2            1            2 1.2806276e-16 
     670    44.182737        5 5.646776e-16            2            1            2 1.2799869e-16 
     675    44.540522        5 5.6613815e-16            2            1            2 1.2793465e-16 
     680    44.897731        5 5.6760406e-16            2            1            2 1.2787065e-16 
     685    45.269647        5 5.6907535e-16            2            1            2 1.2780668e-16 
     690    45.629528        5 5.7055203e-16            2            1            2 1.2774273e-16 
     695     45.98889        5 5.7203412e-16            2            1            2 1.2767882e-16 
     700    46.365262        5 5.7352165e-16            2            1            2 1.2761495e-16 
     705    46.732299        5 5.7501463e-16            2            1            2 1.275511e-16 
     710     47.10416        5 5.7651308e-16            2            1            2 1.2748729e-16 
     715    47.471971        5 5.7801701e-16            2            1            2 1.2742351e-16 
     720    47.856686        5 5.7952646e-16            2            1            2 1.2735976e-16 
     725    48.242236        5 5.8104143e-16            2            1            2 1.2729604e-16 
     730    48.643622        5 5.8256194e-16            2            1            2 1.2723235e-16 
     735    49.014769        5 5.8408803e-16            2            1            2 1.271687e-16 
     740    49.380277        5 5.856197e-16            2            1            2 1.2710507e-16 
     745    49.756216        5 5.8715697e-16            2            1            2 1.2704148e-16 
     750    50.185398        5 5.8869986e-16            2            1            2 1.2697792e-16 
     755    50.624699        5 5.902484e-16            2            1            2 1.269144e-16 
     760    51.073931        5 5.918026e-16            2            1            2 1.268509e-16 
     765    51.500772        5 5.9336249e-16            2            1            2 1.2678744e-16 
     770     51.92887        5 5.9492807e-16            2            1            2 1.2672401e-16 
     775    52.321526        5 5.9649938e-16            2            1            2 1.2666061e-16 
     780    52.713068        5 5.9807643e-16            2            1            2 1.2659724e-16 
     785    53.092299        5 5.9965924e-16            2            1            2 1.265339e-16 
     790    53.485904        5 6.0124783e-16            2            1            2 1.264706e-16 
     795    53.867165        5 6.0284223e-16            2            1            2 1.2640732e-16 
     800    54.341366        5 6.0444244e-16            2            1            2 1.2634408e-16 
     805    54.748391        5 6.060485e-16            2            1            2 1.2628087e-16 
     810    55.132817        5 6.0766042e-16            2            1            2 1.2621769e-16 
     815    55.553285        5 6.0927823e-16            2            1            2 1.2615455e-16 
     820    55.983144        5 6.1090194e-16            2            1            2 1.2609143e-16 
     825    56.399346        5 6.1253157e-16            2            1            2 1.2602835e-16 
     830    56.802379        5 6.1416714e-16            2            1            2 1.259653e-16 
     835    57.222123        5 6.1580868e-16            2            1            2 1.2590228e-16 
     840    57.653906        5 6.1745621e-16            2            1            2 1.2583929e-16 
     845    58.035173        5 6.1910974e-16            2            1            2 1.2577633e-16 
     850    58.431206        5 6.207693e-16            2            1            2 1.2571341e-16 
     855      58.8443        5 6.2243491e-16            2            1            2 1.2565051e-16 
     860    59.253706        5 6.2410659e-16            2            1            2 1.2558765e-16 
     865     59.67313        5 6.2578436e-16            2            1            2 1.2552482e-16 
     870    60.077814        5 6.2746824e-16            2            1            2 1.2546202e-16 
     875    60.476374        5 6.2915825e-16            2            1            2 1.2539925e-16 
     880    60.874599        5 6.3085442e-16            2            1            2 1.2533651e-16 
     885    61.266402        5 6.3255676e-16            2            1            2 1.252738e-16 
     890    61.678334        5 6.342653e-16            2            1            2 1.2521113e-16 
     895     62.07899        5 6.3598006e-16            2            1            2 1.2514849e-16 
     900    62.491481        5 6.3770105e-16            2            1            2 1.2508588e-16 
     905    62.892885        5 6.3942831e-16            2            1            2 1.250233e-16 
     910    63.302832        5 6.4116186e-16            2            1            2 1.2496075e-16 
     915     63.73151        5 6.429017e-16            2            1            2 1.2489823e-16 
     920    64.143077        5 6.4464788e-16            2            1            2 1.2483574e-16 
     925    64.552836        5 6.464004e-16            2            1            2 1.2477329e-16 
     930    64.954187        5 6.481593e-16            2            1            2 1.2471086e-16 
     935    65.346271        5 6.4992459e-16            2            1            2 1.2464847e-16 
     940    65.858884        5 6.5169629e-16            2            1            2 1.2458611e-16 
     945    66.347354        5 6.5347444e-16            2            1            2 1.2452378e-16 
     950    66.823551        5 6.5525904e-16            2            1            2 1.2446148e-16 
     955    67.281193        6 6.5705013e-16            2            1            3 1.2439921e-16 
     960    67.745143        6 6.5884772e-16            2            1            3 1.2433697e-16 
     965     68.19626        6 6.6065184e-16            2            1            3 1.2427477e-16 
     970    68.649681        6 6.6246251e-16            2            1            3 1.2421259e-16 
     975    69.056552        6 6.6427975e-16            2            1            3 1.2415045e-16 
     980    69.458952        6 6.6610359e-16            2            1            3 1.2408834e-16 
     985    69.859579        6 6.6793405e-16            2            1            3 1.2402626e-16 
     990    70.269183        7 6.6977115e-16            3            1            3 1.2396421e-16 
     995    70.680695        7 6.7161492e-16            3            1            3 1.2390219e-16 
    1000    71.112318        7 6.7346537e-16            3            1            3 1.238402e-16 
    1005     71.52936        7 6.7532254e-16            3            1            3 1.2377824e-16 
    1010    71.946531        7 6.7718644e-16            3            1            3 1.2371632e-16 
    1015     72.35756        7 6.790571e-16            3            1            3 1.2365442e-16 
    1020    72.762313        7 6.8093454e-16            3            1            3 1.2359256e-16 
    1025    73.179241        7 6.8281879e-16            3            1            3 1.2353072e-16 
    1030    73.602067        7 6.8470986e-16            3            1            3 1.2346892e-16 
    1035    74.021604        7 6.8660779e-16            3            1            3 1.2340715e-16 
    1040    74.449148        7 6.885126e-16            3            1            3 1.2334541e-16 
    1045    74.898783        7 6.9042431e-16            3            1            3 1.232837e-16 
    1050    75.336497        7 6.9234294e-16            3            1            3 1.2322202e-16 
    1055     75.75914        7 6.9426852e-16            3            1            3 1.2316037e-16 
    1060    76.196291        7 6.9620107e-16            3            1            3 1.2309876e-16 
    1065    76.623378        7 6.9814062e-16            3            1            3 1.2303717e-16 
    1070    77.051967        7 7.0008719e-16            3            1            3 1.2297562e-16 
    1075    77.470009        7 7.0204081e-16            3            1            3 1.2291409e-16 
    1080    77.898974        7 7.040015e-16            3            1            3 1.228526e-16 
    1085    78.332312        7 7.0596928e-16            3            1            3 1.2279113e-16 
    1090    78.761835        7 7.0794418e-16            3            1            3 1.227297e-16 
    1095    79.209281        7 7.0992623e-16            3            1            3 1.226683e-16 
    1100    79.666725        7 7.1191545e-16            3            1            3 1.2260693e-16 
    1105    80.159423        7 7.1391186e-16            3            1            3 1.2254559e-16 
    1110    80.621689        7 7.1591549e-16            3            1            3 1.2248428e-16 
    1115    81.056413        7 7.1792636e-16            3            1            3  1.22423e-16 
    1120    81.489053        7 7.199445e-16            3            1            3 1.2236175e-16 
    1125    81.913178        7 7.2196994e-16            3            1            3 1.2230054e-16 
    1130    82.352036        7 7.240027e-16            3            1            3 1.2223935e-16 
    1135    82.783811        7 7.260428e-16            3            1            3 1.221782e-16 
    1140      83.2226        7 7.2809028e-16            3            1            3 1.2211707e-16 
    1145    83.662131        7 7.3014515e-16            3            1            3 1.2205597e-16 
    1150    84.103686        7 7.3220744e-16            3            1            3 1.2199491e-16 
    1155    84.535886        7 7.3427718e-16            3            1            3 1.2193388e-16 
    1160    84.972603        7 7.363544e-16            3            1            3 1.2187287e-16 
    1165    85.409341        7 7.3843912e-16            3            1            3 1.218119e-16 
    1170    85.854721        7 7.4053136e-16            3            1            3 1.2175096e-16 
    1175    86.301019        7 7.4263116e-16            3            1            3 1.2169005e-16 
    1180    86.737392        7 7.4473853e-16            3            1            3 1.2162917e-16 
    1185    87.170121        7 7.4685351e-16            3            1            3 1.2156832e-16 
    1190    87.603123        7 7.4897612e-16            3            1            3 1.215075e-16 
    1195    88.053392        7 7.5110639e-16            3            1            3 1.2144671e-16 
    1200    88.490293        7 7.5324435e-16            3            1            3 1.2138595e-16 
    1205    88.939016        7 7.5539001e-16            3            1            3 1.2132522e-16 
    1210    89.392107        7 7.5754342e-16            3            1            3 1.2126452e-16 
    1215    89.857454        7 7.5970459e-16            3            1            3 1.2120385e-16 
    1220    90.298997        7 7.6187355e-16            3            1            3 1.2114321e-16 
    1225    90.755933        7 7.6405033e-16            3            1            3 1.2108261e-16 
    1230    91.204527        7 7.6623496e-16            3            1            3 1.2102203e-16 
    1235    91.670661        7 7.6842746e-16            3            1            3 1.2096148e-16 
    1240    92.128601        7 7.7062786e-16            3            1            3 1.2090097e-16 
    1245    92.590865        7 7.728362e-16            3            1            3 1.2084048e-16 
    1250    93.065612        7 7.7505249e-16            3            1            3 1.2078003e-16 
    1255    93.596391        7 7.7727676e-16            3            1            3 1.207196e-16 
    1260    94.082083        7 7.7950904e-16            3            1            3 1.2065921e-16 
    1265    94.549834        7 7.8174937e-16            3            1            3 1.2059884e-16 
    1270    95.044197        7 7.8399776e-16            3            1            3 1.2053851e-16 
    1275    95.544038        8 7.8625425e-16            4            1            3 1.204782e-16 
    1280    96.011907        8 7.8851886e-16            4            1            3 1.2041793e-16 
    1285    96.479456        8 7.9079163e-16            4            1            3 1.2035768e-16 
    1290    96.951843        8 7.9307257e-16            4            1            3 1.2029747e-16 
    1295    97.417129        8 7.9536173e-16            4            1            3 1.2023729e-16 
    1300    97.916726        8 7.9765912e-16            4            1            3 1.2017713e-16 
    1305      98.4127        8 7.9996478e-16            4            1            3 1.2011701e-16 
    1310    98.913857        8 8.0227873e-16            4            1            3 1.2005692e-16 
    1315    99.345959        8 8.0460101e-16            4            1            3 1.1999685e-16 
    1320     99.72289        8 8.0693164e-16            4            1            3 1.1993682e-16 
    1325    100.08467        8 8.0927065e-16            4            1            3 1.1987682e-16 
    1330    100.48688        8 8.1161808e-16            4            1            3 1.1981684e-16 
    1335    100.91675        8 8.1397394e-16            4            1            3 1.197569e-16 
    1340    101.32751        8 8.1633828e-16            4            1            3 1.1969699e-16 
    1345    101.70671        8 8.1871111e-16            4            1            3 1.1963711e-16 
    1350    102.08546        8 8.2109247e-16            4            1            3 1.1957725e-16 
    1355     102.5112        8 8.2348239e-16            4            1            3 1.1951743e-16 
    1360    102.97857        8 8.258809e-16            4            1            3 1.1945764e-16 
    1365     103.4248        8 8.2828803e-16            4            1            3 1.1939787e-16 
    1370     103.9123        8 8.3070381e-16            4            1            3 1.1933814e-16 
    1375    104.38261        8 8.3312827e-16            4            1            3 1.1927844e-16 
    1380    104.92243        8 8.3556143e-16            4            1            3 1.1921876e-16 
    1385    105.45246        8 8.3800333e-16            4            1            3 1.1915912e-16 
    1390    105.95768        8 8.4045401e-16            4            1            3 1.1909951e-16 
    1395    106.48271        8 8.4291348e-16            4            1            3 1.1903993e-16 
    1400    107.00587        8 8.4538178e-16            4            1            3 1.1898037e-16 
    1405    107.51062        8 8.4785895e-16            4            1            3 1.1892085e-16 
    1410    108.00654        8  8.50345e-16            4            1            3 1.1886135e-16 
    1415    108.49266        8 8.5283999e-16            4            1            3 1.1880189e-16 
    1420    109.06375        8 8.5534392e-16            4            1            3 1.1874246e-16 
    1425    109.60394        8 8.5785684e-16            4            1            3 1.1868305e-16 
    1430    110.08014        9 8.6037878e-16            4            1            4 1.1862368e-16 
    1435    110.58102        9 8.6290976e-16            4            1            4 1.1856433e-16 
    1440    111.03973        9 8.6544983e-16            4            1            4 1.1850502e-16 
    1445    111.48867        9  8.67999e-16            4            1            4 1.1844573e-16 
    1450    111.90921        9 8.7055732e-16            4            1            4 1.1838648e-16 
    1455    112.36075        9 8.7312481e-16            4            1            4 1.1832725e-16 
    1460    112.83301        9 8.7570151e-16            4            1            4 1.1826806e-16 
    1465    113.37567        9 8.7828745e-16            4            1            4 1.1820889e-16 
    1470    113.83565        9 8.8088266e-16            4            1            4 1.1814975e-16 
    1475    114.30916        9 8.8348718e-16            4            1            4 1.1809065e-16 
    1480    114.74967        9 8.8610103e-16            4            1            4 1.1803157e-16 
    1485     115.2234        9 8.8872425e-16            4            1            4 1.1797252e-16 
    1490    115.74177        9 8.9135686e-16            4            1            4 1.179135e-16 
    1495    116.26427        9 8.9399892e-16            4            1            4 1.1785452e-16 
    1500    116.79324        9 8.9665043e-16            4            1            4 1.1779556e-16 
    1505    117.33245        9 8.9931145e-16            4            1            4 1.1773663e-16 
    1510     117.8239        9  9.01982e-16            4            1            4 1.1767773e-16 
    1515    118.23319        9 9.0466212e-16            4            1            4 1.1761886e-16 
    1520    118.69852        9 9.0735183e-16            4            1            4 1.1756002e-16 
    1525    119.14708        9 9.1005118e-16            4            1            4 1.1750121e-16 
    1530    119.62471        9 9.127602e-16            4            1            4 1.1744243e-16 
    1535    120.03897        9 9.1547891e-16            4            1            4 1.1738368e-16 
    1540    120.45464        9 9.1820736e-16            4            1            4 1.1732496e-16 
    1545    120.91644        9 9.2094557e-16            4            1            4 1.1726626e-16 
    1550    121.42105        9 9.2369359e-16            4            1            4 1.172076e-16 
    1555    121.86982        9 9.2645144e-16            4            1            4 1.1714897e-16 
    1560    122.37541        9 9.2921916e-16            4            1            4 1.1709036e-16 
    1565    122.84169        9 9.3199679e-16            4            1            4 1.1703179e-16 
    1570    123.34117        9 9.3478435e-16            4            1            4 1.1697324e-16 
    1575    123.84429        9 9.3758189e-16            4            1            4 1.1691473e-16 
    1580    124.30629        9 9.4038943e-16            4            1            4 1.1685624e-16 
    1585    124.84504        9 9.4320702e-16            4            1            4 1.1679779e-16 
    1590    125.44762        9 9.4603469e-16            4            1            4 1.1673936e-16 
    1595    125.95719        9 9.4887247e-16            4            1            4 1.1668096e-16 
    1600    126.40944        9 9.517204e-16            4            1            4 1.166226e-16 
    1605    126.89224        9 9.5457851e-16            4            1            4 1.1656426e-16 
    1610    127.34639        9 9.5744684e-16            4            1            4 1.1650595e-16 
    1615    127.85017        9 9.6032542e-16            4            1            4 1.1644767e-16 
    1620    128.32417        9 9.632143e-16            4            1            4 1.1638942e-16 
    1625    128.84724        9 9.661135e-16            4            1            4 1.163312e-16 
    1630    129.35657        9 9.6902307e-16            4            1            4  1.16273e-16 
    1635    129.82839        9 9.7194303e-16            4            1            4 1.1621484e-16 
    1640    130.31117        9 9.7487343e-16            4            1            4 1.1615671e-16 
    1645    130.80684        9 9.778143e-16            4            1            4 1.1609861e-16 
    1650    131.29936        9 9.8076568e-16            4            1            4 1.1604053e-16 
    1655    131.78615        9 9.837276e-16            4            1            4 1.1598249e-16 
    1660    132.27822        9 9.867001e-16            4            1            4 1.1592447e-16 
    1665    132.77636        9 9.8968322e-16            4            1            4 1.1586648e-16 
    1670    133.26044        9 9.9267699e-16            4            1            4 1.1580853e-16 
    1675    133.74451        9 9.9568146e-16            4            1            4 1.157506e-16 
    1680    134.26865        9 9.9869665e-16            4            1            4 1.156927e-16 
    1685    134.75178        9 1.0017226e-15            4            1            4 1.1563483e-16 
    1690    135.23061        9 1.0047594e-15            4            1            4 1.1557699e-16 
    1695    135.70266        9 1.007807e-15            4            1            4 1.1551918e-16 
    1700    136.15377        9 1.0108655e-15            4            1            4 1.154614e-16 
    1705    136.70509        9 1.0139349e-15            4            1            4 1.1540365e-16 
    1710    137.18178        9 1.0170152e-15            4            1            4 1.1534593e-16 
    1715    137.64865        9 1.0201066e-15            4            1            4 1.1528823e-16 
    1720    138.10872        9 1.023209e-15            4            1            4 1.1523057e-16 
    1725    138.56957        9 1.0263224e-15            4            1            4 1.1517293e-16 
    1730    139.03887        9 1.029447e-15            4            1            4 1.1511533e-16 
    1735    139.47334        9 1.0325827e-15            4            1            4 1.1505775e-16 
    1740    139.93156        9 1.0357296e-15            4            1            4 1.150002e-16 
    1745    140.40243        9 1.0388877e-15            4            1            4 1.1494269e-16 
    1750    140.87877        9 1.0420571e-15            4            1            4 1.148852e-16 
    1755    141.34471        9 1.0452378e-15            4            1            4 1.1482774e-16 
    1760    141.84865        9 1.0484299e-15            4            1            4 1.1477031e-16 
    1765    142.32406        9 1.0516333e-15            4            1            4 1.1471291e-16 
    1770    142.78179        9 1.0548481e-15            4            1            4 1.1465554e-16 
    1775    143.25853        9 1.0580744e-15            4            1            4 1.1459819e-16 
    1780    143.73182        9 1.0613122e-15            4            1            4 1.1454088e-16 
    1785      144.204        9 1.0645616e-15            4            1            4 1.144836e-16 
    1790    144.67354        9 1.0678225e-15            4            1            4 1.1442634e-16 
    1795    145.14799        9 1.0710951e-15            4            1            4 1.1436912e-16 
    1800    145.65318        9 1.0743793e-15            4            1            4 1.1431192e-16 
    1805    146.11734        9 1.0776752e-15            4            1            4 1.1425475e-16 
    1810    146.58374        9 1.0809829e-15            4            1            4 1.1419761e-16 
    1815     147.0758        9 1.0843024e-15            4            1            4 1.141405e-16 
    1820    147.54084        9 1.0876336e-15            4            1            4 1.1408343e-16 
    1825    148.05613        9 1.0909768e-15            4            1            4 1.1402637e-16 
    1830    148.53044        9 1.0943319e-15            4            1            4 1.1396935e-16 
    1835    149.02445       10 1.0976989e-15            4            1            5 1.1391236e-16 
    1840    149.52696       10 1.1010779e-15            4            1            5 1.138554e-16 
    1845    149.99936       10 1.1044689e-15            4            1            5 1.1379847e-16 
    1850    150.48367       10 1.107872e-15            4            1            5 1.1374156e-16 
    1855    150.95875       10 1.1112873e-15            4            1            5 1.1368469e-16 
    1860     151.4601       10 1.1147147e-15            4            1            5 1.1362784e-16 
    1865    151.94403       10 1.1181543e-15            4            1            5 1.1357102e-16 
    1870    152.45519       10 1.1216061e-15            4            1            5 1.1351424e-16 
    1875    152.94075       10 1.1250703e-15            4            1            5 1.1345748e-16 
    1880    153.46806       10 1.1285467e-15            4            1            5 1.1340075e-16 
    1885    153.98423       10 1.1320356e-15            4            1            5 1.1334405e-16 
    1890    154.48441       10 1.1355368e-15            4            1            5 1.1328738e-16 
    1895    155.01334       10 1.1390506e-15            4            1            5 1.1323074e-16 
    1900    155.54847       10 1.1425768e-15            4            1            5 1.1317413e-16 
    1905    156.07069       11 1.1461156e-15            5            1            5 1.1311754e-16 
    1910    156.55946       11 1.1496669e-15            5            1            5 1.1306099e-16 
    1915    157.09367       11 1.1532309e-15            5            1            5 1.1300447e-16 
    1920    157.61668       11 1.1568076e-15            5            1            5 1.1294797e-16 
    1925     158.1017       11 1.160397e-15            5            1            5 1.1289151e-16 
    1930    158.61329       11 1.1639992e-15            5            1            5 1.1283507e-16 
    1935    159.14698       11 1.1676142e-15            5            1            5 1.1277867e-16 
    1940    159.64224       11 1.1712421e-15            5            1            5 1.1272229e-16 
    1945    160.15048       11 1.1748828e-15            5            1            5 1.1266594e-16 
    1950    160.67712       11 1.1785365e-15            5            1            5 1.1260962e-16 
    1955    161.22677       11 1.1822032e-15            5            1            5 1.1255333e-16 
    1960       161.71       11 1.1858829e-15            5            1            5 1.1249707e-16 
    1965    162.22333       11 1.1895758e-15            5            1            5 1.1244084e-16 
    1970    162.76621       11 1.1932817e-15            5            1            5 1.1238464e-16 
    1975    163.28435       11 1.1970008e-15            5            1            5 1.1232847e-16 
    1980    163.78445       11 1.2007332e-15            5            1            5 1.1227233e-16 
    1985    164.25158       11 1.2044788e-15            5            1            5 1.1221622e-16 
    1990    164.75538       11 1.2082377e-15            5            1            5 1.1216014e-16 
    1995    165.24351       11  1.21201e-15            5            1            5 1.1210408e-16 
    2000    165.71785       11 1.2157957e-15            5            1            5 1.1204806e-16 
    2005    166.17191       11 1.2195948e-15            5            1            5 1.1199206e-16 
    2010    166.65183       11 1.2234075e-15            5            1            5 1.119361e-16 
    2015    167.13266       11 1.2272337e-15            5            1            5 1.1188017e-16 
    2020    167.61144       12 1.2310734e-15            6            1            5 1.1182426e-16 
    2025    168.09655       12 1.2349269e-15            6            1            5 1.1176838e-16 
    2030    168.56039       12 1.238794e-15            6            1            5 1.1171254e-16 
    2035    169.08461       12 1.2426748e-15            6            1            5 1.1165672e-16 
    2040    169.56793       12 1.2465695e-15            6            1            5 1.1160094e-16 
    2045    170.05332       12 1.250478e-15            6            1            5 1.1154518e-16 
    2050     170.5505       13 1.2544003e-15            7            1            5 1.1148945e-16 
    2055    171.04885       13 1.2583366e-15            7            1            5 1.1143376e-16 
    2060    171.52033       13 1.2622869e-15            7            1            5 1.1137809e-16 
    2065     172.0133       13 1.2662512e-15            7            1            5 1.1132245e-16 
    2070    172.51886       13 1.2702296e-15            7            1            5 1.1126684e-16 
    2075    173.01679       13 1.2742221e-15            7            1            5 1.1121127e-16 
    2080    173.53644       13 1.2782287e-15            7            1            5 1.1115572e-16 
    2085    174.02932       13 1.2822496e-15            7            1            5 1.111002e-16 
    2090    174.51971       13 1.2862848e-15            7            1            5 1.1104471e-16 
    2095    175.04062       13 1.2903343e-15            7            1            5 1.1098926e-16 
    2100    175.54865       13 1.2943982e-15            7            1            5 1.1093383e-16 
    2105    176.06886       13 1.2984765e-15            7            1            5 1.1087843e-16 
    2110    176.55498       13 1.3025692e-15            7            1            5 1.1082306e-16 
    2115     177.0835       13 1.3066765e-15            7            1            5 1.1076773e-16 
    2120    177.59463       13 1.3107984e-15            7            1            5 1.1071242e-16 
    2125    178.13244       13 1.3149349e-15            7            1            5 1.1065714e-16 
    2130    178.63938       14 1.3190861e-15            7            1            6 1.106019e-16 
    2135    179.13818       14 1.323252e-15            7            1            6 1.1054668e-16 
    2140    179.62411       14 1.3274327e-15            7            1            6 1.104915e-16 
    2145    180.13568       14 1.3316282e-15            7            1            6 1.1043634e-16 
    2150     180.6482       14 1.3358386e-15            7            1            6 1.1038122e-16 
    2155    181.16299       14 1.340064e-15            7            1            6 1.1032613e-16 
    2160    181.67169       14 1.3443043e-15            7            1            6 1.1027106e-16 
    2165     182.1641       14 1.3485597e-15            7            1            6 1.1021603e-16 
    2170     182.7079       14 1.3528301e-15            7            1            6 1.1016103e-16 
    2175    183.26828       14 1.3571157e-15            7            1            6 1.1010606e-16 
    2180    183.80002       14 1.3614165e-15            7            1            6 1.1005112e-16 
    2185    184.34623       14 1.3657326e-15            7            1            6 1.0999621e-16 
    2190    184.88838       14 1.370064e-15            7            1            6 1.0994133e-16 
    2195    185.40969       14 1.3744107e-15            7            1            6 1.0988648e-16 
    2200    185.92454       14 1.3787728e-15            7            1            6 1.0983167e-16 
    2205    186.41481       14 1.3831504e-15            7            1            6 1.0977688e-16 
    2210    186.97519       15 1.3875435e-15            7            1            7 1.0972213e-16 
    2215    187.48889       15 1.3919522e-15            7            1            7 1.0966741e-16 
    2220    188.01628       15 1.3963766e-15            7            1            7 1.0961272e-16 
    2225    188.56302       15 1.4008166e-15            7            1            7 1.0955806e-16 
    2230    189.14042       15 1.4052723e-15            7            1            7 1.0950343e-16 
    2235     189.6886       15 1.4097439e-15            7            1            7 1.0944883e-16 
    2240    190.22353       15 1.4142312e-15            7            1            7 1.0939427e-16 
    2245    190.78051       15 1.4187345e-15            7            1            7 1.0933973e-16 
    2250    191.35207       15 1.4232538e-15            7            1            7 1.0928523e-16 
    2255    191.95326       15 1.4277891e-15            7            1            7 1.0923076e-16 
    2260    192.51652       15 1.4323404e-15            7            1            7 1.0917633e-16 
    2265    193.06525       15 1.4369078e-15            7            1            7 1.0912192e-16 
    2270     193.6085       15 1.4414915e-15            7            1            7 1.0906755e-16 
    2275    194.15958       15 1.4460914e-15            7            1            7 1.0901321e-16 
    2280    194.71957       15 1.4507076e-15            7            1            7 1.089589e-16 
    2285    195.29047       15 1.4553401e-15            7            1            7 1.0890462e-16 
    2290    195.84568       15 1.459989e-15            7            1            7 1.0885038e-16 
    2295    196.40207       15 1.4646545e-15            7            1            7 1.0879616e-16 
    2300    196.94349       15 1.4693364e-15            7            1            7 1.0874199e-16 
    2305    197.51457       15 1.4740349e-15            7            1            7 1.0868784e-16 
    2310    198.09218       15 1.4787501e-15            7            1            7 1.0863373e-16 
    2315    198.63359       15 1.483482e-15            7            1            7 1.0857965e-16 
    2320    199.20985       15 1.4882306e-15            7            1            7 1.085256e-16 
    2325    199.78372       15 1.492996e-15            7            1            7 1.0847159e-16 
    2330    200.33428       15 1.4977783e-15            7            1            7 1.084176e-16 
    2335    200.89676       15 1.5025776e-15            7            1            7 1.0836366e-16 
    2340    201.47296       15 1.5073938e-15            7            1            7 1.0830974e-16 
    2345    202.04984       15 1.5122271e-15            7            1            7 1.0825586e-16 
    2350     202.6038       15 1.5170775e-15            7            1            7 1.0820202e-16 
    2355    203.17953       15 1.5219451e-15            7            1            7 1.0814821e-16 
    2360    203.75327       15 1.5268299e-15            7            1            7 1.0809443e-16 
    2365    204.32169       15 1.531732e-15            7            1            7 1.0804068e-16 
    2370    204.91702       15 1.5366515e-15            7            1            7 1.0798697e-16 
    2375    205.52924       15 1.5415884e-15            7            1            7 1.079333e-16 
    2380    206.12091       15 1.5465427e-15            7            1            7 1.0787966e-16 
    2385    206.68603       15 1.5515146e-15            7            1            7 1.0782605e-16 
    2390    207.28764       15 1.5565041e-15            7            1            7 1.0777248e-16 
    2395    207.92816       15 1.5615112e-15            7            1            7 1.0771894e-16 
    2400    208.53708       15 1.5665361e-15            7            1            7 1.0766544e-16 
    2405    209.10853       15 1.5715787e-15            7            1            7 1.0761198e-16 
    2410    209.70319       15 1.5766392e-15            7            1            7 1.0755855e-16 
    2415    210.25914       15 1.5817176e-15            7            1            7 1.0750515e-16 
    2420    210.83501       15 1.586814e-15            7            1            7 1.0745179e-16 
    2425    211.39373       15 1.5919284e-15            7            1            7 1.0739847e-16 
    2430    211.98698       15 1.5970608e-15            7            1            7 1.0734518e-16 
    2435    212.59604       15 1.6022115e-15            7            1            7 1.0729193e-16 
    2440     213.1711       15 1.6073804e-15            7            1            7 1.0723872e-16 
    2445    213.77364       15 1.6125675e-15            7            1            7 1.0718554e-16 
    2450    214.37524       15 1.617773e-15            7            1            7 1.071324e-16 
    2455    214.95125       15 1.622997e-15            7            1            7 1.0707929e-16 
    2460    215.56182       15 1.6282394e-15            7            1            7 1.0702623e-16 
    2465    216.15352       15 1.6335003e-15            7            1            7 1.069732e-16 
    2470    216.75526       15 1.6387799e-15            7            1            7 1.0692021e-16 
    2475    217.38828       15 1.6440781e-15            7            1            7 1.0686725e-16 
    2480    217.99643       16 1.649395e-15            8            1            7 1.0681434e-16 
    2485    218.58123       16 1.6547308e-15            8            1            7 1.0676146e-16 
    2490    219.17466       16 1.6600855e-15            8            1            7 1.0670862e-16 
    2495      219.769       16 1.665459e-15            8            1            7 1.0665582e-16 
    2500     220.3686       16 1.6708516e-15            8            1            7 1.0660306e-16 
    2505    221.00749       16 1.6762633e-15            8            1            7 1.0655033e-16 
    2510    221.62152       16 1.681694e-15            8            1            7 1.0649765e-16 
    2515     222.2409       16 1.687144e-15            8            1            7 1.0644501e-16 
    2520    222.84183       16 1.6926133e-15            8            1            7 1.063924e-16 
    2525    223.48645       16 1.6981019e-15            8            1            7 1.0633984e-16 
    2530    224.11945       16 1.7036099e-15            8            1            7 1.0628731e-16 
    2535    224.74312       16 1.7091374e-15            8            1            7 1.0623483e-16 
    2540    225.37444       16 1.7146844e-15            8            1            7 1.0618239e-16 
    2545    225.95665       16 1.720251e-15            8            1            7 1.0612999e-16 
    2550    226.58278       16 1.7258373e-15            8            1            7 1.0607763e-16 
    2555    227.18935       16 1.7314434e-15            8            1            7 1.0602531e-16 
    2560     227.7908       16 1.7370692e-15            8            1            7 1.0597303e-16 
    2565     228.4283       16 1.742715e-15            8            1            7 1.059208e-16 
    2570    229.07275       16 1.7483807e-15            8            1            7 1.0586861e-16 
    2575    229.68651       16 1.7540664e-15            8            1            7 1.0581646e-16 
    2580    230.32157       16 1.7597723e-15            8            1            7 1.0576435e-16 
    2585     230.9569       16 1.7654983e-15            8            1            7 1.0571229e-16 
    2590     231.5867       16 1.7712445e-15            8            1            7 1.0566027e-16 
    2595    232.21158       16 1.777011e-15            8            1            7 1.056083e-16 
    2600    232.84656       16 1.782798e-15            8            1            7 1.0555637e-16 
    2605    233.46465       16 1.7886053e-15            8            1            7 1.0550448e-16 
    2610    234.11896       16 1.7944332e-15            8            1            7 1.0545264e-16 
    2615    234.78142       16 1.8002817e-15            8            1            7 1.0540084e-16 
    2620    235.46998       16 1.8061509e-15            8            1            7 1.0534909e-16 
    2625     236.1123       16 1.8120408e-15            8            1            7 1.0529739e-16 
    2630    236.77084       16 1.8179515e-15            8            1            7 1.0524573e-16 
    2635    237.46135       16 1.8238831e-15            8            1            7 1.0519412e-16 
    2640    238.13672       16 1.8298356e-15            8            1            7 1.0514256e-16 
    2645      238.812       16 1.8358092e-15            8            1            7 1.0509104e-16 
    2650    239.48466       16 1.8418039e-15            8            1            7 1.0503957e-16 
    2655    240.15963       16 1.8478197e-15            8            1            7 1.0498816e-16 
    2660    240.80641       16 1.8538568e-15            8            1            7 1.0493678e-16 
    2665    241.50247       16 1.8599153e-15            8            1            7 1.0488546e-16 
    2670       242.14       16 1.8659951e-15            8            1            7 1.0483419e-16 
    2675    242.79934       16 1.8720965e-15            8            1            7 1.0478297e-16 
    2680    243.45132       16 1.8782193e-15            8            1            7 1.047318e-16 
    2685     244.1155       16 1.8843638e-15            8            1            7 1.0468068e-16 
    2690      244.832       16  1.89053e-15            8            1            7 1.0462961e-16 
    2695    245.51637       16 1.896718e-15            8            1            7 1.0457859e-16 
    2700    246.20018       16 1.9029279e-15            8            1            7 1.0452763e-16 
    2705    246.88742       16 1.9091597e-15            8            1            7 1.0447671e-16 
    2710    247.55003       16 1.9154134e-15            8            1            7 1.0442586e-16 
    2715    248.27574       16 1.9216893e-15            8            1            7 1.0437505e-16 
    2720    248.95309       16 1.9279874e-15            8            1            7 1.043243e-16 
    2725    249.64741       17 1.9343077e-15            8            1            8 1.042736e-16 
    2730    250.32905       17 1.9406503e-15            8            1            8 1.0422296e-16 
    2735    251.03285       17 1.9470153e-15            8            1            8 1.0417238e-16 
    2740    251.74101       17 1.9534028e-15            8            1            8 1.0412185e-16 
    2745    252.46079       17 1.9598128e-15            8            1            8 1.0407138e-16 
    2750    253.13572       17 1.9662455e-15            8            1            8 1.0402096e-16 
    2755    253.84292       17 1.9727009e-15            8            1            8 1.0397061e-16 
    2760     254.5315       17 1.9791791e-15            8            1            8 1.0392031e-16 
    2765    255.21788       17 1.9856802e-15            8            1            8 1.0387007e-16 
    2770    255.88066       17 1.9922042e-15            8            1            8 1.0381989e-16 
    2775    256.60332       17 1.9987512e-15            8            1            8 1.0376977e-16 
    2780     257.3019       17 2.0053214e-15            8            1            8 1.0371972e-16 
    2785    257.99119       17 2.0119148e-15            8            1            8 1.0366972e-16 
    2790    258.70266       17 2.0185315e-15            8            1            8 1.0361979e-16 
    2795    259.41343       17 2.0251715e-15            8            1            8 1.0356992e-16 
    2800    260.12448       17 2.031835e-15            8            1            8 1.0352011e-16 
    2805    260.80953       17 2.038522e-15            8            1            8 1.0347037e-16 
    2810    261.54734       17 2.0452326e-15            8            1            8 1.0342069e-16 
    2815    262.26318       17 2.0519669e-15            8            1            8 1.0337108e-16 
    2820    262.98967       18 2.0587249e-15            9            1            8 1.0332153e-16 
    2825    263.69359       19 2.0655069e-15            9            1            9 1.0327206e-16 
    2830    264.42944       19 2.0723128e-15            9            1            9 1.0322265e-16 
    2835    265.14629       19 2.0791427e-15            9            1            9 1.0317331e-16 
    2840    265.90638       19 2.0859967e-15            9            1            9 1.0312403e-16 
    2845    266.63037       19 2.0928749e-15            9            1            9 1.0307483e-16 
    2850    267.33643       19 2.0997775e-15            9            1            9 1.030257e-16 
    2855    268.12959       19 2.1067043e-15            9            1            9 1.0297664e-16 
    2860    268.86752       19 2.1136557e-15            9            1            9 1.0292766e-16 
    2865     269.5913       19 2.1206315e-15            9            1            9 1.0287875e-16 
    2870    270.35394       19 2.127632e-15            9            1            9 1.0282991e-16 
    2875    271.07248       19 2.1346573e-15            9            1            9 1.0278114e-16 
    2880     271.7898       20 2.1417073e-15            9            1           10 1.0273246e-16 
    2885    272.49771       20 2.1487822e-15            9            1           10 1.0268385e-16 
    2890    273.22694       20 2.1558821e-15            9            1           10 1.0263532e-16 
    2895    273.97514       20 2.163007e-15            9            1           10 1.0258686e-16 
    2900    274.70857       20 2.1701571e-15            9            1           10 1.0253849e-16 
    2905    275.44772       20 2.1773324e-15            9            1           10 1.024902e-16 
    2910     276.2099       20 2.1845331e-15            9            1           10 1.0244199e-16 
    2915    276.94507       20 2.1917592e-15            9            1           10 1.0239386e-16 
    2920    277.66953       21 2.1990108e-15           10            1           10 1.0234581e-16 
    2925    278.46855       21 2.2062879e-15           10            1           10 1.0229785e-16 
    2930    279.21184       21 2.2135908e-15           10            1           10 1.0224998e-16 
    2935    279.34614       22 2.2209195e-15           11            1           10 1.0220217e-16 
    2940    279.47309       22 2.2282739e-15           11            1           10 1.0215438e-16 
    2945    279.61527       22 2.2356543e-15           11            1           10 1.0210661e-16 
    2950    279.74531       22 2.2430606e-15           11            1           10 1.0205887e-16 
    2955    279.87414       22 2.250493e-15           11            1           10 1.0201116e-16 
    2960    280.01354       22 2.2579516e-15           11            1           10 1.0196346e-16 
    2965    280.14771       22 2.2654364e-15           11            1           10 1.0191579e-16 
    2970    280.29104       22 2.2729476e-15           11            1           10 1.0186815e-16 
    2975    280.42463       22 2.2804853e-15           11            1           10 1.0182053e-16 
    2980    280.56037       22 2.2880494e-15           11            1           10 1.0177293e-16 
    2985    280.69074       22 2.2956402e-15           11            1           10 1.0172536e-16 
    2990     280.8282       22 2.3032578e-15           11            1           10 1.0167781e-16 
    2995    280.96799       23 2.3109021e-15           11            1           11 1.0163029e-16 
    3000    281.11581       24 2.3185734e-15           12            1           11 1.0158279e-16 
    3005    281.25551       24 2.3262716e-15           12            1           11 1.0153531e-16 
    3010    281.40601       24 2.333997e-15           12            1           11 1.0148786e-16 
    3015    281.54139       24 2.3417496e-15           12            1           11 1.0144043e-16 
    3020    281.67514       24 2.3495294e-15           12            1           11 1.0139302e-16 
    3025    281.80635       24 2.3573366e-15           12            1           11 1.0134564e-16 
    3030    281.93219       24 2.3651713e-15           12            1           11 1.0129828e-16 
    3035     282.0705       24 2.3730336e-15           12            1           11 1.0125095e-16 
    3040     282.2086       24 2.3809236e-15           12            1           11 1.0120364e-16 
    3045    282.50381       24 2.3888413e-15           12            1           11 1.0115636e-16 
    3050    283.38237       25 2.3967869e-15           13            1           11 1.0110914e-16 
    3055    284.22255       25 2.4047606e-15           13            1           11 1.0106202e-16 
    3060    285.03251       25 2.4127624e-15           13            1           11  1.01015e-16 
    3065    285.82395       25 2.4207924e-15           13            1           11 1.0096807e-16 
    3070     286.6436       25 2.4288507e-15           13            1           11 1.0092125e-16 
    3075    287.46324       26 2.4369375e-15           14            1           11 1.0087452e-16 
    3080    288.28009       26 2.4450528e-15           14            1           11 1.008279e-16 
    3085    289.07728       26 2.4531968e-15           14            1           11 1.0078138e-16 
    3090    289.95789       26 2.4613695e-15           14            1           11 1.0073496e-16 
    3095    290.81974       26 2.469571e-15           14            1           11 1.0068865e-16 
    3100     291.6799       26 2.4778014e-15           14            1           11 1.0064245e-16 
    3105    292.48321       26 2.4860609e-15           14            1           11 1.0059636e-16 
    3110    293.26986       26 2.4943495e-15           14            1           11 1.0055037e-16 
    3115    294.12684       26 2.5026674e-15           14            1           11 1.005045e-16 
    3120    294.95005       26 2.5110146e-15           14            1           11 1.0045874e-16 
    3125    295.78044       26 2.5193913e-15           14            1           11 1.004131e-16 
    3130     296.6492       26 2.5277975e-15           14            1           11 1.0036757e-16 
    3135    297.53758       26 2.5362334e-15           14            1           11 1.0032215e-16 
    3140    298.41237       26 2.544699e-15           14            1           11 1.0027686e-16 
    3145    299.25676       26 2.5531945e-15           14            1           11 1.0023168e-16 
    3150    300.10274       27  2.56172e-15           14            1           12 1.0018663e-16 
    3155    300.94111       27 2.5702756e-15           14            1           12 1.001417e-16 
    3160    301.78032       27 2.5788613e-15           14            1           12 1.000969e-16 
    3165     302.6107       27 2.5874774e-15           14            1           12 1.0005222e-16 
    3170     303.4495       27 2.5961238e-15           14            1           12 1.0000767e-16 
    3175    304.28671       27 2.6048008e-15           14            1           12 9.9963252e-17 
    3180    305.15701       27 2.6135083e-15           14            1           12 9.9918965e-17 
    3185    306.01685       27 2.6222466e-15           14            1           12 9.9874811e-17 
    3190    306.87634       27 2.6310157e-15           14            1           12 9.9830793e-17 
    3195    307.76253       27 2.6398158e-15           14            1           12 9.9786912e-17 
    3200    308.55587       27 2.6486469e-15           14            1           12 9.9743171e-17 
    3205    309.41528       27 2.6575092e-15           14            1           12 9.9699571e-17 
    3210    310.30109       27 2.6664028e-15           14            1           12 9.9656113e-17 
    3215    311.11897       27 2.6753277e-15           14            1           12 9.9612801e-17 
    3220    312.01093       27 2.6842841e-15           14            1           12 9.9569636e-17 
    3225    312.84583       27 2.6932722e-15           14            1           12 9.9526619e-17 
    3230    313.70408       28 2.7022919e-15           15            1           12 9.9483754e-17 
    3235    314.61675       28 2.7113435e-15           15            1           12 9.9441042e-17 
    3240    315.48141       28 2.720427e-15           15            1           12 9.9398486e-17 
    3245      316.357       28 2.7295426e-15           15            1           12 9.9356087e-17 
    3250    317.25778       28 2.7386904e-15           15            1           12 9.9313848e-17 
    3255      318.123       28 2.7478704e-15           15            1           12 9.927177e-17 
    3260    318.97413       28 2.7570828e-15           15            1           12 9.9229858e-17 
    3265    319.89641       28 2.7663278e-15           15            1           12 9.9188111e-17 
    3270    320.77276       28 2.7756054e-15           15            1           12 9.9146534e-17 
    3275    321.67152       28 2.7849157e-15           15            1           12 9.9105128e-17 
    3280    322.52028       28 2.7942589e-15           15            1           12 9.9063895e-17 
    3285    323.37487       28 2.8036351e-15           15            1           12 9.9022839e-17 
    3290    324.27074       28 2.8130443e-15           15            1           12 9.8981962e-17 
    3295    325.15818       28 2.8224868e-15           15            1           12 9.8941266e-17 
    3300    326.12437       28 2.8319626e-15           15            1           12 9.8900754e-17 
    3305    327.00635       28 2.8414719e-15           15            1           12 9.8860428e-17 
    3310    327.96268       30 2.8510147e-15           15            1           14 9.8820292e-17 
    3315    328.84524       30 2.8605912e-15           15            1           14 9.8780348e-17 
    3320    329.74691       30 2.8702016e-15           15            1           14 9.8740598e-17 
    3325    330.65881       30 2.8798459e-15           15            1           14 9.8701046e-17 
    3330    331.57402       30 2.8895242e-15           15            1           14 9.8661694e-17 
    3335    332.48831       30 2.8992367e-15           15            1           14 9.8622546e-17 
    3340    333.45282       30 2.9089835e-15           15            1           14 9.8583603e-17 
    3345    334.34124       30 2.9187646e-15           15            1           14 9.854487e-17 
    3350    335.26309       30 2.9285804e-15           15            1           14 9.8506349e-17 
    3355    336.22509       30 2.9384308e-15           15            1           14 9.8468043e-17 
    3360    337.15812       30 2.948316e-15           15            1           14 9.8429956e-17 
    3365    338.07182       30 2.9582361e-15           15            1           14 9.839209e-17 
    3370    339.00573       30 2.9681912e-15           15            1           14 9.8354449e-17 
    3375    339.96757       30 2.9781815e-15           15            1           14 9.8317037e-17 
    3380    340.91797       30 2.988207e-15           15            1           14 9.8279855e-17 
    3385    341.85722       30 2.998268e-15           15            1           14 9.8242909e-17 
    3390    342.85315       30 3.0083645e-15           15            1           14  9.82062e-17 
    3395    343.78747       30 3.0184967e-15           15            1           14 9.8169734e-17 
    3400    344.70877       30 3.0286646e-15           15            1           14 9.8133512e-17 
    3405    345.67389       30 3.0388685e-15           15            1           14 9.809754e-17 
    3410    346.63055       30 3.0491085e-15           15            1           14 9.806182e-17 
    3415     347.6349       30 3.0593846e-15           15            1           14 9.8026356e-17 
    3420    348.61358       30 3.069697e-15           15            1           14 9.7991152e-17 
    3425    349.54978       30 3.0800458e-15           15            1           14 9.7956212e-17 
    3430    350.49416       30 3.0904312e-15           15            1           14 9.792154e-17 
    3435    351.48365       30 3.1008533e-15           15            1           14 9.7887139e-17 
    3440    352.40516       30 3.1113122e-15           15            1           14 9.7853014e-17 
    3445    353.34045       30 3.1218081e-15           15            1           14 9.7819169e-17 
    3450    354.32378       30 3.1323411e-15           15            1           14 9.7785607e-17 
    3455    355.25814       30 3.1429113e-15           15            1           14 9.7752334e-17 
    3460     356.1959       30 3.1535189e-15           15            1           14 9.7719352e-17 
    3465    357.12412       30 3.1641639e-15           15            1           14 9.7686667e-17 
    3470    358.10135       30 3.1748466e-15           15            1           14 9.7654283e-17 
    3475    359.07166       30 3.185567e-15           15            1           14 9.7622205e-17 
    3480    359.99994       30 3.1963254e-15           15            1           14 9.7590436e-17 
    3485    361.01482       30 3.2071217e-15           15            1           14 9.7558982e-17 
    3490    361.98368       30 3.2179563e-15           15            1           14 9.7527847e-17 
    3495     362.9402       30 3.2288291e-15           15            1           14 9.7497036e-17 
    3500    363.87277       30 3.2397404e-15           15            1           14 9.7466553e-17 
    3505    364.86919       30 3.2506903e-15           15            1           14 9.7436404e-17 
    3510    365.87527       30 3.2616788e-15           15            1           14 9.7406593e-17 
    3515    366.88982       30 3.2727063e-15           15            1           14 9.7377126e-17 
    3520    367.87421       30 3.2837727e-15           15            1           14 9.7348007e-17 
    3525    368.90515       31 3.2948783e-15           15            1           15 9.7319242e-17 
    3530     369.9354       31 3.3060232e-15           15            1           15 9.7290836e-17 
    3535    370.94011       31 3.3172075e-15           15            1           15 9.7262794e-17 
    3540    371.94465       31 3.3284313e-15           15            1           15 9.7235122e-17 
    3545    372.93935       31 3.3396949e-15           15            1           15 9.7207825e-17 
    3550      373.962       31 3.3509983e-15           15            1           15 9.7180908e-17 
    3555    374.97626       31 3.3623417e-15           15            1           15 9.7154378e-17 
    3560    375.94538       31 3.3737252e-15           15            1           15 9.7128239e-17 
    3565    377.00045       31 3.385149e-15           15            1           15 9.7102499e-17 
    3570      377.991       31 3.3966133e-15           15            1           15 9.7077162e-17 
    3575    379.01743       31 3.4081181e-15           15            1           15 9.7052203e-17 
    3580    379.49541       31 3.4196636e-15           15            1           15 9.7027628e-17 
    3585    379.64336       31 3.4312496e-15           15            1           15 9.700313e-17 
    3590    379.77937       31 3.4428762e-15           15            1           15 9.6978647e-17 
    3595     379.9132       31 3.4545436e-15           15            1           15 9.6954177e-17 
    3600    380.03707       32 3.4662518e-15           15            1           16 9.692972e-17 
    3605    380.16463       32 3.4780011e-15           15            1           16 9.6905277e-17 
    3610    380.29209       32 3.4897916e-15           15            1           16 9.6880848e-17 
    3615    380.42204       32 3.5016234e-15           15            1           16 9.6856432e-17 
    3620    380.55093       32 3.5134966e-15           15            1           16 9.6832029e-17 
    3625    380.67995       32 3.5254115e-15           15            1           16 9.680764e-17 
    3630    380.82475       33 3.5373681e-15           15            1           17 9.6783265e-17 
    3635    380.95964       33 3.5493666e-15           15            1           17 9.6758903e-17 
    3640    381.11005       33 3.5614071e-15           15            1           17 9.6734554e-17 
    3645    381.25176       33 3.5734899e-15           15            1           17 9.6710219e-17 
    3650    381.39029       33 3.585615e-15           15            1           17 9.6685898e-17 
    3655    382.22403       34 3.5977827e-15           16            1           17 9.6661703e-17 
    3660    383.01142       34 3.6099933e-15           16            1           17 9.6637826e-17 
    3665    383.86338       34 3.622247e-15           16            1           17 9.6614276e-17 
    3670    384.72727       34 3.634544e-15           16            1           17 9.6591054e-17 
    3675      385.594       34 3.6468843e-15           16            1           17 9.6568167e-17 
    3680    386.45708       34 3.6592683e-15           16            1           17 9.6545619e-17 
    3685     387.2709       34 3.6716959e-15           16            1           17 9.6523412e-17 
    3690      388.132       34 3.6841674e-15           16            1           17 9.6501553e-17 
    3695     388.9632       34 3.6966829e-15           16            1           17 9.6480046e-17 
    3700    389.75417       34 3.7092427e-15           16            1           17 9.6458894e-17 
    3705    390.81386       34 3.7218468e-15           16            1           17 9.6438148e-17 
    3710    391.96778       34 3.7344955e-15           16            1           17 9.6417924e-17 
    3715    393.20769       34 3.7471891e-15           16            1           17 9.6398234e-17 
    3720    394.40663       34 3.7599277e-15           16            1           17 9.6379085e-17 
    3725    395.61396       35 3.7727114e-15           17            1           17 9.6360484e-17 
    3730    396.66646       35 3.7855404e-15           17            1           17 9.6342437e-17 
    3735    397.73426       35 3.7984149e-15           17            1           17 9.6324952e-17 
    3740    398.91235       35 3.811335e-15           17            1           17 9.6308036e-17 
    3745    400.06772       36 3.8243009e-15           18            1           17 9.6291696e-17 
    3750    401.18748       37 3.8373128e-15           19            1           17 9.627594e-17 
    3755    402.38587       37 3.8503709e-15           19            1           17 9.6260775e-17 
    3760     403.5969       37 3.8634752e-15           19            1           17 9.6246211e-17 
    3765    404.73801       37 3.876626e-15           19            1           17 9.6232253e-17 
    3770    405.85101       37 3.8898234e-15           19            1           17 9.6218911e-17 
    3775    407.05116       37 3.9030676e-15           19            1           17 9.6206194e-17 
    3780     408.2983       37 3.9163588e-15           19            1           17 9.6194109e-17 
    3785    409.48137       37 3.9296972e-15           19            1           17 9.6182664e-17 
    3790    410.70468       37 3.9430829e-15           19            1           17 9.617187e-17 
    3795    411.84133       37 3.956516e-15           19            1           17 9.6161734e-17 
    3800    413.14844       37 3.9699968e-15           19            1           17 9.6152267e-17 
    3805    414.35022       37 3.9835255e-15           19            1           17 9.6143476e-17 
    3810    415.54151       37 3.9971022e-15           19            1           17 9.6135372e-17 
    3815    416.71874       38 4.010727e-15           20            1           17 9.6127963e-17 
    3820    417.95533       38 4.0244003e-15           20            1           17 9.612126e-17 
    3825    419.16516       39 4.038122e-15           21            1           17 9.6115272e-17 
    3830    420.31978       39 4.0518925e-15           21            1           17 9.611001e-17 
    3835    421.53058       39 4.0657119e-15           21            1           17 9.6105484e-17 
    3840    422.73122       39 4.0795803e-15           21            1           17 9.6101703e-17 
    3845    423.88823       39 4.093498e-15           21            1           17 9.6098679e-17 
    3850    425.14943       40 4.1074651e-15           22            1           17 9.6096422e-17 
    3855    426.36178       40 4.1214819e-15           22            1           17 9.6094942e-17 
    3860    427.55417       40 4.1355484e-15           22            1           17 9.6094252e-17 
    3865    428.81403       40 4.1496648e-15           22            1           17 9.6094199e-17 
    3870    430.05095       40 4.1638305e-15           22            1           17 9.6094199e-17 
    3875    431.26538       40 4.1780458e-15           22            1           17 9.6094199e-17 
    3880    432.41981       40 4.1923108e-15           22            1           17 9.6094199e-17 
    3885    433.58412       40 4.2066256e-15           22            1           17 9.6094199e-17 
    3890    434.81248       40 4.2209905e-15           22            1           17 9.6094199e-17 
    3895    436.02627       41 4.2354056e-15           22            1           18 9.6094199e-17 
    3900     437.2827       41 4.2498711e-15           22            1           18 9.6094199e-17 
    3905    438.10208       42 4.2643872e-15           23            1           18 9.6094199e-17 
[...]
    4045    466.40622       44 4.692047e-15           23            1           20 9.6036433e-17 
    4050    467.62204       44 4.7081036e-15           23            1           20 9.6030911e-17 
    4055    468.97094       44 4.7242202e-15           23            1           20 9.6029127e-17 
    4060    470.45267       44 4.7403949e-15           23            1           20 9.6029127e-17 
    4065    471.86808       44 4.7566261e-15           23            1           20 9.6029127e-17 
    4070    473.23376       44 4.7729143e-15           23            1           20 9.6029382e-17 
    4075    474.52682       44 4.7892595e-15           23            1           20 9.6029633e-17 
    4080    475.93739       44 4.8056618e-15           23            1           20 9.6029882e-17 
    4085    477.30111       45 4.8221214e-15           24            1           20 9.6030132e-17 
    4090    478.63091       45 4.8386389e-15           24            1           20 9.6030639e-17 
    4095    479.95754       45 4.8552138e-15           24            1           20 9.6030899e-17 
    4100    481.41553       45 4.8718467e-15           24            1           20 9.6031142e-17 
    4105    482.78396       45 4.888538e-15           24            1           20 9.603164e-17 
    4110    484.18112       46 4.9052873e-15           24            1           21 9.6031898e-17 
    4115    485.49787       46 4.9220955e-15           24            1           21 9.6032385e-17 
    4120    486.85539       46 4.9389622e-15           24            1           21 9.6032647e-17 
    4125    488.13576       46 4.9558881e-15           24            1           21 9.6033149e-17 
    4130    489.52491       47 4.9728732e-15           24            1           22 9.6033643e-17 
    4135    490.91911       49 4.9899174e-15           24            1           24 9.6033891e-17 
    4140     501.2506       50 5.0070118e-15           25            1           24 9.6024782e-17 
    4145    502.61171       50 5.0241332e-15           25            1           24 9.5982848e-17 
    4150    503.90171       51 5.0413242e-15           26            1           24 9.5950648e-17 
    4155    505.33491       51 5.0585846e-15           26            1           24 9.5927567e-17 
    4160    506.62131       51 5.075914e-15           26            1           24 9.5913046e-17 
    4165    508.00259       51 5.0933121e-15           26            1           24 9.5906578e-17 
    4170    509.39218       51 5.1107771e-15           26            1           24 9.590614e-17 
    4175    510.78588       51 5.1283037e-15           26            1           24 9.5906388e-17 
    4180    512.17299       53 5.1458922e-15           28            1           24 9.5907117e-17 
    4185    513.54172       53 5.1635419e-15           28            1           24 9.5907604e-17 
    4190    514.95714       53 5.1812536e-15           28            1           24 9.5908344e-17 
    4195    516.31764       53 5.1990269e-15           28            1           24 9.5908844e-17 
    4200    517.65327       53 5.2168626e-15           28            1           24 9.5909607e-17 
    4205    519.01213       53 5.2347605e-15           28            1           24 9.5910126e-17 
    4210    520.41978       53 5.2527211e-15           28            1           24 9.5910919e-17 
    4215    521.71749       53 5.2707444e-15           28            1           24 9.5911457e-17 
    4220    522.91838       54 5.2888309e-15           28            1           25 9.5912277e-17 
    4225     524.1343       55 5.3069803e-15           29            1           25 9.5912833e-17 
    4230     525.3867       55 5.3251936e-15           29            1           25 9.5913682e-17 
    4235    526.55538       55 5.3434704e-15           29            1           25 9.591447e-17 
    4240     527.7536       55 5.3618109e-15           29            1           25 9.5915026e-17 
    4245    529.01664       55 5.3802157e-15           29            1           25 9.5915823e-17 
    4250     530.3455       55 5.3986849e-15           29            1           25 9.5916637e-17 
    4255    531.62615       55 5.4172187e-15           29            1           25 9.5917436e-17 
    4260    532.90617       55 5.4358173e-15           29            1           25 9.591824e-17 
    4265    534.22237       55 5.4544809e-15           29            1           25 9.5919057e-17 
    4270    535.56018       55 5.4732097e-15           29            1           25 9.591985e-17 
    4275    536.84757       55 5.4920042e-15           29            1           25 9.5920931e-17 
    4280    538.14997       55 5.5108643e-15           29            1           25 9.592174e-17 
    4285    539.43138       55 5.5297902e-15           29            1           25 9.5922518e-17 
    4290    540.76421       55 5.5487825e-15           29            1           25 9.5923596e-17 
    4295    542.14137       55 5.5678411e-15           29            1           25 9.5924438e-17 
    4300    543.38523       55 5.5869662e-15           29            1           25 9.5925252e-17 
    4305    544.76814       55 5.6061585e-15           29            1           25 9.5926384e-17 
    4310    546.14317       55 5.6254176e-15           29            1           25 9.5927199e-17 
    4315    547.41717       56 5.6447444e-15           29            1           26 9.5928332e-17 
    4320    548.66196       56 5.6641386e-15           29            1           26 9.5929386e-17 
    4325    550.05423       56 5.6836004e-15           29            1           26 9.5930201e-17 
    4330    551.42754       56 5.7031305e-15           29            1           26 9.5931335e-17 
    4335    552.83268       57 5.7227289e-15           30            1           26 9.593245e-17 
    4340    554.29717       57 5.7423958e-15           30            1           26 9.5933532e-17 
    4345     555.7958       57 5.7621314e-15           30            1           26 9.5934624e-17 
    4350    557.29736       57 5.7819361e-15           30            1           26 9.5935733e-17 
    4355    558.66995       57 5.8018099e-15           30            1           26 9.593681e-17 
    4360     560.0844       57 5.8217535e-15           30            1           26 9.5938105e-17 
    4365    561.54859       57 5.8417666e-15           30            1           26 9.593923e-17 
    4370    562.90008       57 5.8618498e-15           30            1           26 9.594048e-17 
    4375    564.28818       57 5.8820032e-15           30            1           26 9.5941709e-17 
    4380    565.63176       57 5.902227e-15           30            1           26 9.5942954e-17 
    4385    566.99018       57 5.9225216e-15           30            1           26 9.5944216e-17 
    4390    568.32637       57 5.9428871e-15           30            1           26 9.5945497e-17 
    4395    569.66012       57 5.9633238e-15           30            1           26 9.5946797e-17 
    4400    571.04025       57 5.9838321e-15           30            1           26 9.5948116e-17 
    4405    572.38352       57 6.004412e-15           30            1           26 9.5949454e-17 
    4410    573.78315       57 6.0250639e-15           30            1           26 9.5950812e-17 
    4415    575.26004       57 6.045788e-15           30            1           26 9.5952189e-17 
    4420    576.62854       59 6.0665846e-15           31            1           27 9.5953586e-17 
    4425     578.0428       59 6.0874539e-15           31            1           27 9.5955004e-17 
    4430     579.4079       59 6.1083961e-15           31            1           27 9.5956442e-17 
    4435    580.68258       59 6.1294116e-15           31            1           27  9.59579e-17 
    4440    582.07333       59 6.1505006e-15           31            1           27 9.595938e-17 
    4445    583.51524       59 6.1716634e-15           31            1           27 9.5960881e-17 
    4450    584.85539       59 6.1929001e-15           31            1           27 9.5962403e-17 
    4455    586.20304       59 6.2142111e-15           31            1           27 9.5963947e-17 
    4460    587.52742       59 6.2355967e-15           31            1           27 9.5965513e-17 
    4465    588.87575       61 6.257057e-15           32            1           28 9.5967101e-17 
    4470    590.23138       61 6.2785924e-15           32            1           28 9.5968712e-17 
    4475      591.555       61 6.300203e-15           32            1           28 9.5970346e-17 
    4480    592.94593       61 6.3218893e-15           32            1           28 9.5972003e-17 
    4485    594.33145       61 6.3436514e-15           32            1           28 9.5973683e-17 
    4490    595.70234       61 6.3654895e-15           32            1           28 9.5975387e-17 
    4495    597.09588       61 6.3874041e-15           32            1           28 9.5977115e-17 
    4500    598.45692       61 6.4093953e-15           32            1           28 9.5978867e-17 
    4505    599.85149       61 6.4314633e-15           32            1           28 9.5980643e-17 
    4510    601.21196       61 6.4536086e-15           32            1           28 9.5982445e-17 
    4515    602.63013       61 6.4758313e-15           32            1           28 9.5984271e-17 
    4520    604.05342       61 6.4981317e-15           32            1           28 9.5986123e-17 
    4525    605.42518       61 6.5205101e-15           32            1           28 9.5988001e-17 
    4530    606.83241       61 6.5429668e-15           32            1           28 9.5989904e-17 
    4535    608.24075       61 6.5655019e-15           32            1           28 9.5991834e-17 
    4540    609.65338       61 6.5881159e-15           32            1           28 9.5993791e-17 
    4545    611.05367       61 6.610809e-15           32            1           28 9.5995775e-17 
    4550    612.52874       62 6.6335814e-15           32            1           29 9.5997786e-17 
    4555    614.41682       63 6.6564335e-15           32            1           30 9.5999829e-17 
    4560    615.39274       64 6.6793655e-15           33            1           30 9.6001904e-17 
    4565    616.79965       65 6.7023776e-15           34            1           30 9.6003999e-17 
    4570    618.30923       65 6.7254703e-15           34            1           30 9.6006123e-17 
    4575    619.84222       66 6.7486436e-15           34            1           31 9.6008276e-17 
    4580    621.40842       66 6.7718981e-15           34            1           31 9.6010458e-17 
    4585    622.96205       66 6.7952338e-15           34            1           31 9.601267e-17 
    4590    624.52664       66 6.8186512e-15           34            1           31 9.6014912e-17 
    4595    626.15645       66 6.8421504e-15           34            1           31 9.6017184e-17 
    4600     627.7577       66 6.8657319e-15           34            1           31 9.6019487e-17 
    4605    629.32686       66 6.8893957e-15           34            1           31 9.6021821e-17 
    4610     630.9048       66 6.9131424e-15           34            1           31 9.6024186e-17 
    4615    632.10752       67 6.9369721e-15           35            1           31 9.6026582e-17 
    4620    632.22186       67 6.9608852e-15           35            1           31 9.6028995e-17 
    4625    632.33515       67 6.9848819e-15           35            1           31 9.6031409e-17 
    4630    632.45136       67 7.0089625e-15           35            1           31 9.6033822e-17 
    4635    632.56488       67 7.0331272e-15           35            1           31 9.6036236e-17 
    4640    633.35874       67 7.0573765e-15           35            1           31 9.6038653e-17 
    4645    634.49815       67 7.0817106e-15           35            1           31 9.6041088e-17 
    4650    635.55265       67 7.1061297e-15           35            1           31 9.6043544e-17 
    4655    636.63182       67 7.1306343e-15           35            1           31 9.6046023e-17 
    4660    637.85416       67 7.1552246e-15           35            1           31 9.6048523e-17 
    4665    639.00801       67 7.1799008e-15           35            1           31 9.6051046e-17 
    4670    640.11795       67 7.2046633e-15           35            1           31 9.6053592e-17 
    4675    641.41746       68 7.2295124e-15           35            1           32 9.6056161e-17 
    4680     642.7447       69 7.2544485e-15           35            1           33 9.6058754e-17 
    4685    644.49179       69 7.2794717e-15           35            1           33 9.6061378e-17 
    4690    646.11285       69 7.3045824e-15           35            1           33 9.606404e-17 
    4695     647.6902       69 7.329781e-15           35            1           33 9.606674e-17 
    4700    649.27002       69 7.3550677e-15           35            1           33 9.6069478e-17 
    4705     650.8444       69 7.3804428e-15           35            1           33 9.6072254e-17 
    4710    652.45916       69 7.4059066e-15           35            1           33 9.607507e-17 
    4715    654.05265       69 7.4314596e-15           35            1           33 9.6077924e-17 
    4720    655.62674       70 7.4571018e-15           36            1           33 9.6080818e-17 
    4725     657.2562       70 7.4828338e-15           36            1           33 9.6083752e-17 
    4730     658.9185       70 7.5086557e-15           36            1           33 9.6086727e-17 
    4735    660.62403       70 7.534568e-15           36            1           33 9.6089741e-17 
    4740    662.26022       71 7.5605709e-15           36            1           34 9.6092797e-17 
    4745     663.8942       71 7.5866647e-15           36            1           34 9.6095894e-17 
    4750    665.56738       71 7.6128498e-15           36            1           34 9.6099033e-17 
    4755    667.20242       71 7.6391264e-15           36            1           34 9.6102214e-17 
    4760    668.86028       71 7.665495e-15           36            1           34 9.6105438e-17 
    4765    670.58276       71 7.6919557e-15           36            1           34 9.6108705e-17 
    4770     672.2312       72 7.7185091e-15           37            1           34 9.6112015e-17 
    4775    673.88482       72 7.7451552e-15           37            1           34 9.6115369e-17 
    4780    675.51646       72 7.7718946e-15           37            1           34 9.6118768e-17 
    4785    677.20589       73 7.7987275e-15           37            1           35 9.6122211e-17 
    4790    678.84954       74 7.8256543e-15           38            1           35 9.6125699e-17 
    4795    680.55205       74 7.8526752e-15           38            1           35 9.6129234e-17 
    4800    682.24999       74 7.8797906e-15           38            1           35 9.6132814e-17 
    4805    683.98163       74 7.9070008e-15           38            1           35 9.6136442e-17 
    4810    685.82585       74 7.9343063e-15           38            1           35 9.6140116e-17 
    4815    687.66957       74 7.9617072e-15           38            1           35 9.6143838e-17 
    4820    689.50681       74 7.9892039e-15           38            1           35 9.6147609e-17 
    4825    691.45511       74 8.0167968e-15           38            1           35 9.6151428e-17 
    4830    693.16336       75 8.0444863e-15           39            1           35 9.6155296e-17 
    4835    695.23063       75 8.0722725e-15           39            1           35 9.6159215e-17 
    4840    697.05575       75 8.100156e-15           39            1           35 9.6163183e-17 
    4845    698.93694       75 8.128137e-15           39            1           35 9.6167202e-17 
    4850    700.69158       75 8.1562158e-15           39            1           35 9.6171273e-17 
    4855    702.58645       75 8.1843929e-15           39            1           35 9.6175395e-17 
    4860    704.31007       75 8.2126684e-15           39            1           35 9.6179571e-17 
    4865    706.02919       75 8.2410429e-15           39            1           35 9.6183799e-17 
    4870    707.73739       75 8.2695167e-15           39            1           35 9.618808e-17 
    4875     709.4977       75  8.29809e-15           39            1           35 9.6192416e-17 
    4880    711.26872       77 8.3267632e-15           41            1           35 9.6196807e-17 
    4885    713.14119       78 8.3555368e-15           42            1           35 9.6201253e-17 
    4890    715.08791       78 8.384411e-15           42            1           35 9.6205755e-17 
    4895    716.91346       78 8.4133861e-15           42            1           35 9.6210313e-17 
    4900      718.709       79 8.4424627e-15           43            1           35 9.6214929e-17 
    4905    720.48398       79 8.4716409e-15           43            1           35 9.6219602e-17 
    4910    722.23862       81 8.5009211e-15           44            1           36 9.6224334e-17 
    4915    724.01933       82 8.5303038e-15           44            1           37 9.6229125e-17 
    4920    725.86563       82 8.5597893e-15           44            1           37 9.6233975e-17 
    4925    727.68251       83 8.5893779e-15           44            1           38 9.6238886e-17 
    4930    729.55733       83 8.6190699e-15           44            1           38 9.6243858e-17 
    4935    731.60533       83 8.6488659e-15           44            1           38 9.6248891e-17 
    4940    733.44826       84 8.678766e-15           44            1           39 9.6253986e-17 
    4945    735.31761       84 8.7087707e-15           44            1           39 9.6259145e-17 
    4950    737.20014       84 8.7388804e-15           44            1           39 9.6264367e-17 
    4955    739.08188       84 8.7690954e-15           44            1           39 9.6269653e-17 
    4960    741.00748       84 8.799416e-15           44            1           39 9.6275004e-17 
    4965    742.82561       84 8.8298428e-15           44            1           39 9.6280421e-17 
    4970     744.6436       84 8.8603759e-15           44            1           39 9.6285904e-17 
    4975    746.49033       86 8.8910159e-15           45            1           40 9.6291454e-17 
    4980    748.32942       87 8.921763e-15           46            1           40 9.6297072e-17 
    4985    750.15915       87 8.9526176e-15           46            1           40 9.6302758e-17 
    4990     752.0095       87 8.9835802e-15           46            1           40 9.6308513e-17 
    4995     753.8777       87 9.0146511e-15           46            1           40 9.6314339e-17 
    5000    755.74031       87 9.0458307e-15           46            1           40 9.6320235e-17 
Loop time of 755.74 on 1 procs for 5000 steps with 87 atoms

Performance: 20578496.960 tau/day, 6.616 timesteps/s
98.9% CPU use with 1 MPI tasks x no OpenMP threads

MPI task timing breakdown:
Section |  min time  |  avg time  |  max time  |%varavg| %total
---------------------------------------------------------------
Pair    | 0.053241   | 0.053241   | 0.053241   |   0.0 |  0.01
Neigh   | 11.789     | 11.789     | 11.789     |   0.0 |  1.56
Comm    | 0.075566   | 0.075566   | 0.075566   |   0.0 |  0.01
Output  | 0.052629   | 0.052629   | 0.052629   |   0.0 |  0.01
Modify  | 743.74     | 743.74     | 743.74     |   0.0 | 98.41
Other   |            | 0.0277     |            |       |  0.00

Nlocal:    87 ave 87 max 87 min
Histogram: 1 0 0 0 0 0 0 0 0 0
Nghost:    0 ave 0 max 0 min
Histogram: 1 0 0 0 0 0 0 0 0 0
Neighs:    366 ave 366 max 366 min
Histogram: 1 0 0 0 0 0 0 0 0 0

Total # of neighbors = 366
Ave neighs/atom = 4.2069
Neighbor list builds = 5000
Dangerous builds = 0


Total wall time: 0:12:40
