LAMMPS (5 Nov 2016)
# NUFEB simulation

atom_style	bio
atom_modify	map array sort 1000 5.0e-7
boundary	ff ff ff
newton		off
#processors  2 1 1

comm_modify	vel yes
read_data_bio atom.in
  orthogonal box = (0 0 0) to (0.0001 0.0001 0.0001)
  1 by 1 by 1 MPI processor grid
  reading atoms ...
  12 atoms
  10 nutrients

group AOB type 1
4 atoms in group AOB
group NOB type 2
4 atoms in group NOB
group COMM type 3
4 atoms in group COMM

neighbor	5.0e-7 bin
neigh_modify	delay 0 one 5000

#pair_style none
pair_style  gran/hooke/history 0.000200 NULL 0.000050 NULL 0.0 1

pair_coeff  * *
timestep 36

fix 1 all nve/limit 1e-8

#fix	 2 all gravity 1.47 vector 0 0 -1 # spherical 90.0 -180.0
#fix     3 all fdrag
fix 10 all viscous 0.1


fix xw all wall/gran hooke/history 2000 NULL 500.0 NULL 1.5 0 xplane  0.0   1.0e-04
fix yw all wall/gran hooke/history 2000 NULL 500.0 NULL 1.5 0 yplane  0.0   1.0e-04
fix zw all wall/gran hooke/history 2000 NULL 500.0 NULL 1.5 0 zplane  0.0   1.0e-04

variable kanc equal 50

fix xwa all walladh v_kanc xplane  0.0   1.0e-04
fix ywa all walladh v_kanc yplane  0.0   1.0e-04
fix zwa all walladh v_kanc zplane  0.0   1.0e-04

##############Ibm Variable Definitions##############

#Defining EPS density and ratio variables
variable EPSdens equal 30
variable EPSratio equal 1.25

variable ke equal 5e+10

#Defining kinetics variables
variable temp equal 298.15
variable gasTran equal 0.08205746
variable gvol equal 8e-14
variable rth equal 0.0083144
variable ph equal 7.0
variable kLaO2 equal 0.0
variable kLaCO2 equal 0.0

#Defining diffusion variables
variable diffT equal 1e-3
variable tol equal 1e-8

##############Ibm functions##############

fix k1 all kinetics 25 25 25 v_temp v_rth v_gvol v_gasTran v_ph
fix g1 all diffusion exp v_diffT v_tol pp pp nd
fix ki3 all kinetics/ph 1
fix ki2 all kinetics/thermo 1 unfix
fix ki1 all kinetics/monod 1 v_EPSdens
fix d1 all divide 1 v_EPSdens 1 3123

#fix j1 all epsadh 1 v_ke 1
#fix e1 HET eps_extract 16 v_EPSratio v_EPSdens 1242242

##############Simulation outputs##############

dump		id all custom 250 snapshot.bubblemd id type diameter x y z vx vy vz fx fy fz
dump            d0 all bio 500 Conc DGRAn DGRCat ph biomass
thermo_style    custom step cpu atoms biomass
thermo		10
thermo_modify	lost ignore

run  10000
Neighbor list info ...
  2 neighbor list requests
  update every 1 steps, delay 0 steps, check yes
  max neighbors/atom: 5000, page size: 100000
  master list distance cutoff = 1.466e-06
  ghost atom cutoff = 1.466e-06
  binsize = 7.33e-07 -> bins = 137 137 137
Memory usage per processor = 20.2459 Mbytes
Step CPU Atoms biomass 
       0            0       12 1.6425146e-15 
      10     6.112761       12 1.6506971e-15 
      20     7.035758       12 1.6587921e-15 
      30      7.96311       12 1.6669546e-15 
      40     8.898416       12 1.6751851e-15 
      50     9.801743       12 1.6834842e-15 
      60    10.704907       12 1.6918525e-15 
      70    11.610582       12 1.7002903e-15 
      80    12.515813       12 1.7087984e-15 
      90    13.419555       12 1.7173772e-15 
     100    14.342436       12 1.7260273e-15 
     110    15.244274       12 1.7347492e-15 
     120    16.145705       12 1.7435435e-15 
     130    17.052748       16 1.7524107e-15 
     140    17.952045       16 1.7613514e-15 
     150    18.848836       20 1.7703662e-15 
     160    19.756765       20 1.7794555e-15 
     170    20.654746       20 1.7886201e-15 
     180     21.56647       20 1.7978604e-15 
     190    22.475136       20 1.8071771e-15 
     200     23.36169       20 1.8165707e-15 
     210    24.248007       20 1.8260419e-15 
     220    25.131003       20 1.8355911e-15 
     230     26.01629       20 1.8452191e-15 
     240    26.900373       20 1.8549264e-15 
     250    27.786739       20 1.8647137e-15 
     260    28.680079       20 1.8745815e-15 
     270    29.608405       20 1.8845305e-15 
     280    30.493626       20 1.8945612e-15 
     290    31.385345       20 1.9046744e-15 
     300    32.271669       20 1.9148707e-15 
     310    33.156371       20 1.9251506e-15 
     320     34.04302       20 1.9355149e-15 
     330    34.928229       20 1.9459642e-15 
     340    35.812139       20 1.9564991e-15 
     350    36.698419       20 1.9671203e-15 
     360    37.584108       20 1.9778284e-15 
     370    38.471338       20 1.9886242e-15 
     380    39.359297       20 1.9995083e-15 
     390    40.247625       20 2.0104813e-15 
     400    41.167284       20 2.021544e-15 
     410    42.053475       20 2.0326971e-15 
     420    42.937599       20 2.0439412e-15 
     430    43.825067       20 2.0552771e-15 
     440    44.715701       20 2.0667054e-15 
     450    45.646056       20 2.0782268e-15 
     460    46.532501       20 2.0898421e-15 
     470    47.419465       20 2.101552e-15 
     480      48.3063       20 2.1133573e-15 
     490    49.189507       20 2.1252586e-15 
     500    50.302455       20 2.1372566e-15 
     510    51.188083       20 2.1493522e-15 
     520    52.071292       20 2.1615461e-15 
     530    52.956036       20 2.173839e-15 
     540    53.842709       20 2.1862317e-15 
     550     54.72697       20 2.198725e-15 
     560    55.612064       20 2.2113196e-15 
     570    56.496037       20 2.2240164e-15 
     580    57.385224       20 2.236816e-15 
     590    58.491634       20 2.2497219e-15 
     600    59.548517       20 2.2627328e-15 
     610    60.591336       20 2.2758493e-15 
     620    61.631391       20 2.2890721e-15 
     630    62.657435       20 2.3024021e-15 
     640    63.544296       20  2.31584e-15 
     650    64.431106       20 2.3293863e-15 
     660    65.315675       20 2.3430421e-15 
     670    66.200628       20 2.3568081e-15 
     680    67.086847       20 2.3706851e-15 
     690    67.972897       20 2.3846741e-15 
     700    68.856406       20 2.3987759e-15 
     710    69.739665       20 2.4129914e-15 
     720    70.624156       20 2.4273214e-15 
     730    71.511195       20 2.4417669e-15 
     740    72.397769       20 2.4563287e-15 
     750    73.281536       20 2.4710077e-15 
     760    74.166588       20 2.4858048e-15 
     770    75.051682       21 2.500721e-15 
     780    75.935313       22 2.5157571e-15 
     790    76.822138       22 2.530914e-15 
     800    77.707489       23 2.5461928e-15 
     810    78.593587       23 2.5615942e-15 
     820    79.480356       23 2.5771194e-15 
     830    80.367301       23 2.5927692e-15 
     840    81.252123       23 2.6085445e-15 
     850    82.139798       23 2.6244464e-15 
     860    83.029326       23 2.6404759e-15 
     870    83.916991       23 2.6566338e-15 
     880    84.800169       23 2.6729212e-15 
     890     85.68452       24 2.6893391e-15 
     900    86.569393       24 2.7058885e-15 
     910    87.455138       24 2.7225704e-15 
     920    88.339331       25 2.7393858e-15 
     930    89.232657       25 2.7563358e-15 
     940    90.118029       26 2.7734213e-15 
     950    91.002591       26 2.7906434e-15 
     960    91.888542       27 2.8080032e-15 
     970    92.773056       27 2.8255018e-15 
     980    93.658305       27 2.8431401e-15 
     990    94.570328       27 2.8609193e-15 
    1000    95.715048       27 2.8788405e-15 
    1010    96.599159       27 2.8969046e-15 
    1020    97.483092       27 2.915113e-15 
    1030    98.367725       27 2.9334665e-15 
    1040    99.269958       28 2.9519665e-15 
    1050    100.16115       28 2.9706139e-15 
    1060     101.0774       29 2.9894099e-15 
    1070    101.96132       29 3.0083557e-15 
    1080    102.84796       29 3.0274525e-15 
    1090    103.73472       29 3.0467013e-15 
    1100     104.6192       29 3.0661033e-15 
    1110    105.50441       29 3.0856597e-15 
    1120    106.39126       29 3.1053718e-15 
    1130    107.27796       29 3.1252406e-15 
    1140    108.16262       30 3.1452675e-15 
    1150    109.04767       30 3.1654536e-15 
    1160    109.93415       30 3.1858001e-15 
    1170    110.83318       30 3.2063083e-15 
    1180    111.72933       30 3.2269794e-15 
    1190    112.62682       30 3.2478147e-15 
    1200    113.52652       30 3.2688154e-15 
    1210    114.40996       30 3.2899828e-15 
    1220    115.29732       31 3.3113182e-15 
    1230    116.18421       32 3.3328229e-15 
    1240    117.06964       33 3.3544981e-15 
    1250    117.97243       34 3.3763443e-15 
    1260    118.91293       35 3.3983634e-15 
    1270    119.80541       35 3.4205571e-15 
    1280    120.69309       35 3.4429266e-15 
    1290    121.59305       35 3.4654733e-15 
    1300    122.50489       35 3.4881985e-15 
    1310    123.38969       35 3.5111037e-15 
    1320    124.27465       36 3.5341902e-15 
    1330    125.15882       36 3.5574593e-15 
    1340    126.04386       36 3.5809126e-15 
    1350    126.93016       36 3.6045515e-15 
    1360     127.8167       36 3.6283772e-15 
    1370    128.69972       36 3.6523914e-15 
    1380    129.57984       36 3.6765953e-15 
    1390    130.46296       36 3.7009906e-15 
    1400     131.3502       36 3.7255786e-15 
    1410     132.2354       36 3.7503609e-15 
    1420    133.12059       36 3.7753388e-15 
    1430    134.00397       36 3.8005141e-15 
    1440    134.88901       36 3.825888e-15 
    1450    135.77836       36 3.8514622e-15 
    1460    136.66283       37 3.8772383e-15 
    1470    137.54781       37 3.9032176e-15 
    1480    138.43221       37 3.929402e-15 
    1490    139.31666       38 3.9557928e-15 
    1500    140.42976       38 3.9823916e-15 
    1510    141.31554       38 4.0092002e-15 
    1520    142.20502       38  4.03622e-15 
    1530    143.09085       38 4.0634528e-15 
    1540    143.98097       38 4.0909001e-15 
    1550    144.86493       38 4.1185635e-15 
    1560    145.74996       38 4.1464449e-15 
    1570    146.63618       38 4.1745457e-15 
    1580    147.52407       38 4.2028678e-15 
    1590    148.41113       39 4.2314127e-15 
    1600    149.29709       39 4.2601823e-15 
    1610    150.18688       39 4.2891782e-15 
    1620    151.07195       39 4.3184022e-15 
    1630    151.96286       39 4.347856e-15 
    1640    152.84654       39 4.3775415e-15 
    1650    153.73127       40 4.4074602e-15 
    1660    154.61807       40 4.4376142e-15 
    1670    155.50256       42 4.4680051e-15 
    1680    156.38576       42 4.4986348e-15 
    1690    157.26969       43 4.5295051e-15 
    1700    158.15463       43 4.5606179e-15 
    1710    159.04161       43 4.591975e-15 
    1720    159.92759       44 4.6235783e-15 
    1730    160.85238       45 4.6554296e-15 
    1740    161.74081       45 4.687531e-15 
    1750    162.65652       45 4.7198843e-15 
    1760    163.54275       45 4.7524915e-15 
    1770      164.426       45 4.7853544e-15 
    1780    165.30982       45 4.8184751e-15 
    1790    166.20058       45 4.8518555e-15 
    1800    167.08566       46 4.8854976e-15 
    1810     167.9703       46 4.9194035e-15 
    1820    168.85479       46 4.9535751e-15 
    1830    169.73903       47 4.9880146e-15 
    1840    170.62417       47 5.0227238e-15 
    1850    171.50836       49 5.057705e-15 
    1860    172.39366       49 5.0929603e-15 
    1870    173.27808       49 5.1284916e-15 
    1880     174.1653       49 5.1643011e-15 
    1890    175.05307       50 5.200391e-15 
    1900    175.94141       51 5.2367635e-15 
    1910    176.82709       51 5.2734206e-15 
    1920    177.71008       51 5.3103646e-15 
    1930    178.58953       51 5.3475976e-15 
    1940    179.47564       51 5.3851219e-15 
    1950    180.36012       51 5.4229397e-15 
    1960    181.24446       51 5.4610533e-15 
    1970    182.13032       52 5.499465e-15 
    1980    183.01529       52 5.5381769e-15 
    1990    183.89913       53 5.5771915e-15 
    2000    185.02743       54 5.6165111e-15 
    2010     185.9132       54 5.6561379e-15 
    2020    186.79893       54 5.6960744e-15 
    2030    187.68831       56 5.7363228e-15 
    2040    188.58233       56 5.7768857e-15 
    2050    189.47044       56 5.8177654e-15 
    2060     190.3572       56 5.8589644e-15 
    2070    191.24336       56 5.900485e-15 
    2080     192.1316       56 5.9423299e-15 
    2090    193.01567       56 5.9845013e-15 
    2100    193.90182       56 6.0270019e-15 
    2110    194.78692       57 6.0698342e-15 
    2120    195.67684       58 6.1130008e-15 
    2130    196.72679       58 6.1565065e-15 
    2140    197.78297       58 6.2003521e-15 
    2150    198.72663       59 6.2445407e-15 
    2160    199.63807       59 6.2890738e-15 
    2170    200.53333       60 6.3339541e-15 
    2180    201.43094       60 6.3791842e-15 
    2190    202.34314       61 6.4247669e-15 
    2200    203.25866       61 6.4707048e-15 
    2210    204.15595       61 6.5170007e-15 
    2220     205.0514       61 6.5636573e-15 
    2230    205.95234       62 6.6106775e-15 
    2240     206.8554       64 6.6580639e-15 
    2250    207.76124       64 6.7058194e-15 
    2260    208.65759       64 6.7539468e-15 
    2270    209.57989       64 6.8024491e-15 
    2280    210.47825       65 6.8513289e-15 
    2290     211.3831       65 6.9005894e-15 
    2300    212.28195       65 6.9502333e-15 
    2310    213.17682       66 7.0002636e-15 
    2320    214.07604       66 7.0506833e-15 
    2330    214.97678       66 7.1014954e-15 
    2340    215.88957       68 7.1527029e-15 
    2350    216.79752       68 7.2043088e-15 
    2360    217.70319       69 7.2563161e-15 
    2370    218.61169       71 7.308728e-15 
    2380    219.51419       71 7.3615475e-15 
    2390    220.46184       72 7.4147778e-15 
    2400    221.36072       72 7.468422e-15 
    2410    222.26353       73 7.5224833e-15 
    2420    223.16175       73 7.5769649e-15 
    2430    224.08641       74  7.63187e-15 
    2440    225.01183       74 7.6872018e-15 
    2450     225.9131       74 7.7429637e-15 
    2460    226.81069       75 7.7991589e-15 
    2470    227.71306       75 7.8557907e-15 
    2480    228.63284       76 7.9128625e-15 
    2490    229.53407       76 7.9703776e-15 
    2500    230.68855       76 8.0283395e-15 
    2510    231.61685       78 8.0867515e-15 
    2520    232.52372       79 8.1456172e-15 
    2530    233.43644       79 8.2049399e-15 
    2540    234.34581       79 8.2647232e-15 
    2550     235.2501       81 8.3249707e-15 
    2560    236.18586       83 8.3856858e-15 
    2570    237.10621       83 8.4468722e-15 
    2580    238.01489       83 8.5085334e-15 
    2590     238.9562       85 8.5706731e-15 
    2600     239.8706       86 8.633295e-15 
    2610    240.77969       88 8.6964028e-15 
    2620    241.71195       88 8.7600001e-15 
    2630    242.62439       88 8.8240907e-15 
    2640    243.53508       88 8.8886784e-15 
    2650    244.44305       88 8.953767e-15 
    2660    245.35546       88 9.0193604e-15 
    2670     246.2645       88 9.0854623e-15 
    2680    247.17418       89 9.1520767e-15 
    2690    248.08738       89 9.2192076e-15 
    2700     248.9978       89 9.2868587e-15 
    2710    249.92287       90 9.3550367e-15 
    2720    250.82945       91 9.423745e-15 
    2730    251.73801       91 9.4929858e-15 
    2740    252.64909       91 9.5627631e-15 
    2750    253.55781       91 9.633081e-15 
    2760    254.48541       92 9.7039437e-15 
    2770    255.40217       93 9.7753554e-15 
    2780    256.31581       94 9.8473203e-15 
    2790    257.23761       95 9.9198425e-15 
    2800    258.16451       95 9.9929264e-15 
    2810    259.08129       96 1.0066576e-14 
    2820     259.9979       96 1.0140796e-14 
    2830    260.91401       97 1.0215591e-14 
    2840    261.83241       97 1.0290965e-14 
    2850    262.74998       97 1.0366922e-14 
    2860    263.67021       97 1.0443467e-14 
    2870    264.58837       98 1.0520605e-14 
    2880    265.51639      101 1.059834e-14 
    2890    266.43073      101 1.0676677e-14 
    2900    267.34931      101 1.0755619e-14 
    2910    268.28488      101 1.0835173e-14 
    2920    269.19679      101 1.0915342e-14 
    2930    270.11124      101 1.0996131e-14 
    2940    271.02964      104 1.1077545e-14 
    2950    271.94651      108 1.1159589e-14 
    2960    272.87458      108 1.1242267e-14 
    2970    273.79003      108 1.1325585e-14 
    2980    274.75035      109 1.1409546e-14 
    2990    275.66253      110 1.1494157e-14 
    3000    276.83885      110 1.1579422e-14 
    3010    277.74528      112 1.1665347e-14 
    3020    278.65347      112 1.1751935e-14 
    3030    279.60333      112 1.1839192e-14 
    3040    280.56946      113 1.1927124e-14 
    3050    281.47853      117 1.2015736e-14 
    3060    282.38526      119 1.2105032e-14 
    3070    283.29386      119 1.2195017e-14 
    3080    284.20144      120 1.2285699e-14 
    3090    285.10561      120 1.237708e-14 
    3100    286.01268      120 1.2469168e-14 
    3110    286.92462      120 1.2561966e-14 
    3120    287.89899      123 1.2655482e-14 
    3130    288.84862      125 1.2749723e-14 
    3140    289.75667      125 1.2844692e-14 
    3150    290.66417      125 1.2940394e-14 
    3160      291.571      126 1.3036835e-14 
    3170     292.5041      126 1.3134021e-14 
    3180     293.4477      126 1.3231957e-14 
    3190     294.3565      127 1.3330649e-14 
    3200    295.26344      127 1.3430102e-14 
    3210    296.21692      127 1.3530324e-14 
    3220    297.19858      127 1.3631324e-14 
    3230    298.10482      129 1.3733105e-14 
    3240     299.0166      130 1.3835671e-14 
    3250    299.95819      131 1.393903e-14 
    3260     300.9082      133 1.4043194e-14 
    3270    301.82243      135 1.4148163e-14 
    3280     302.7285      136 1.4253941e-14 
    3290    303.64381      138 1.4360536e-14 
    3300    304.55323      139 1.4467952e-14 
    3310     305.4656      139 1.4576197e-14 
    3320    306.42713      140 1.4685277e-14 
    3330    307.33094      143 1.4795197e-14 
    3340    308.25039      144 1.4905967e-14 
    3350    309.15423      144 1.5017593e-14 
    3360    310.08015      146 1.513008e-14 
    3370    310.99469      146 1.5243437e-14 
    3380    311.91696      148 1.5357663e-14 
    3390    312.83229      149 1.5472769e-14 
    3400    313.74583      149 1.5588762e-14 
    3410     314.6604      152 1.5705648e-14 
    3420    315.57299      152 1.5823436e-14 
    3430    316.48526      154 1.5942131e-14 
    3440     317.4268      155 1.6061743e-14 
    3450    318.34996      157 1.6182281e-14 
    3460     319.2575      159 1.630375e-14 
    3470    320.17194      160 1.6426154e-14 
    3480    321.14538      160 1.6549499e-14 
    3490    322.05154      163 1.6673792e-14 
    3500    323.19305      164 1.6799041e-14 
    3510    324.10228      165 1.6925251e-14 
    3520    325.01059      165 1.7052431e-14 
    3530    325.92866      166 1.7180588e-14 
    3540    326.86281      169 1.7309729e-14 
    3550    327.76912      171 1.7439862e-14 
    3560      328.709      172 1.7570993e-14 
    3570    329.62081      172 1.770313e-14 
    3580    330.53705      172 1.7836281e-14 
    3590    331.49195      174 1.7970454e-14 
    3600    332.40262      175 1.8105656e-14 
    3610    333.31053      177 1.8241895e-14 
    3620     334.2453      179 1.8379179e-14 
    3630    335.17283      180 1.8517516e-14 
    3640    336.08184      182 1.8656913e-14 
    3650     337.0421      184 1.8797381e-14 
    3660    338.01774      186 1.8938927e-14 
    3670    338.93539      186 1.9081559e-14 
    3680    339.86743      188 1.9225288e-14 
    3690    340.83917      189 1.937012e-14 
    3700    341.76423      190 1.9516064e-14 
    3710    342.69348      191 1.9663127e-14 
    3720    343.64304      191 1.9811321e-14 
    3730    344.61076      191 1.996065e-14 
    3740    345.57146      192 2.0111122e-14 
    3750    346.48872      193 2.0262748e-14 
    3760     347.4092      194 2.0415537e-14 
    3770    348.33146      196 2.0569497e-14 
    3780    349.26197      197 2.072464e-14 
    3790    350.19101      198 2.0880973e-14 
    3800    351.11549      200 2.1038504e-14 
    3810    352.06191      200 2.1197243e-14 
    3820    353.01956      202 2.1357198e-14 
    3830     354.0456      203 2.1518373e-14 
    3840    355.06121      207 2.1680779e-14 
    3850    356.00355      208 2.1844429e-14 
    3860    356.93302      209 2.2009334e-14 
    3870    357.85937      212 2.2175503e-14 
    3880    358.78996      212 2.2342946e-14 
    3890    359.72395      214 2.2511672e-14 
    3900    360.65467      214 2.268169e-14 
    3910    361.59355      214 2.2853012e-14 
    3920     362.5361      215 2.3025646e-14 
    3930    363.47263      215 2.3199602e-14 
    3940    364.41788      216 2.3374892e-14 
    3950    365.35837      218 2.3551524e-14 
    3960    366.30752      218 2.3729509e-14 
    3970    367.23778      223 2.3908857e-14 
    3980    368.17313      224 2.4089579e-14 
    3990    369.11645      229 2.4271685e-14 
    4000    370.32549      232 2.4455187e-14 
    4010    371.26108      232  2.46401e-14 
    4020    372.20894      233 2.4826432e-14 
    4030    373.14577      235 2.5014192e-14 
    4040    374.10031      236 2.5203389e-14 
    4050    375.03862      238 2.5394036e-14 
    4060    375.97601      239 2.5586142e-14 
    4070    376.92056      242 2.5779718e-14 
    4080    377.85867      246 2.5974773e-14 
    4090    378.79242      247 2.617132e-14 
    4100    379.72837      250 2.6369373e-14 
    4110    380.67245      252 2.6568942e-14 
    4120    381.60478      255 2.677004e-14 
    4130    382.56242      259 2.6972679e-14 
    4140    383.50233      262 2.7176869e-14 
    4150    384.43965      265 2.7382623e-14 
    4160    385.38548      267 2.7589954e-14 
    4170    386.42809      268 2.779887e-14 
    4180    387.46586      270 2.800938e-14 
    4190    388.50085      270 2.8221497e-14 
    4200    389.51806      272 2.8435234e-14 
    4210    390.53689      275 2.8650607e-14 
    4220    391.55831      277 2.886763e-14 
    4230    392.59424      278 2.9086312e-14 
    4240    393.61707      283 2.930667e-14 
    4250    394.58547      285 2.9528713e-14 
    4260     395.5199      289 2.9752456e-14 
    4270    396.46039      292 2.9977911e-14 
    4280    397.40076      295 3.0205094e-14 
    4290    398.38311      296 3.0434018e-14 
    4300    399.33812      298 3.0664699e-14 
    4310    400.29459      301 3.0897145e-14 
    4320    401.36572      306 3.1131366e-14 
    4330    402.31817      310 3.1367377e-14 
    4340    403.35338      314 3.1605188e-14 
    4350    404.41768      315 3.1844814e-14 
    4360    405.44365      315 3.208627e-14 
    4370    406.47181      316 3.2329571e-14 
    4380    407.54174      317 3.257473e-14 
    4390    408.59458      319 3.2821759e-14 
    4400    409.64504      320 3.3070677e-14 
    4410    410.69313      321 3.3321494e-14 
    4420    411.68388      324 3.3574226e-14 
    4430    412.70101      326 3.3828889e-14 
    4440    413.69825      330 3.4085498e-14 
    4450    414.63804      333 3.4344073e-14 
    4460    415.60876      335 3.4604627e-14 
    4470    416.65688      337 3.4867167e-14 
    4480    417.70358      339 3.5131714e-14 
    4490    418.67106      344 3.5398283e-14 
    4500    419.90748      346 3.5666886e-14 
    4510    420.92089      348 3.5937544e-14 
    4520    421.93787      348 3.6210268e-14 
    4530    422.96218      352 3.6485075e-14 
    4540    423.92674      354 3.6761983e-14 
    4550    424.85845      356 3.704101e-14 
    4560    425.79647      359 3.7322171e-14 
    4570    426.73511      360 3.760548e-14 
    4580    427.69775      366 3.7890955e-14 
    4590    428.69614      369 3.817861e-14 
    4600      429.675      370 3.8468463e-14 
    4610    430.71581      375 3.8760532e-14 
    4620    431.66468      375 3.9054839e-14 
    4630    432.62504      378 3.9351399e-14 
    4640    433.57475      378 3.9650225e-14 
    4650    434.59487      379 3.9951333e-14 
    4660    435.61513      382 4.0254739e-14 
    4670    436.55892      383 4.0560463e-14 
    4680    437.50788      387 4.0868523e-14 
    4690    438.50854      389 4.1178941e-14 
    4700    439.47319      390 4.1491733e-14 
    4710    440.44612      393 4.1806914e-14 
    4720    441.40582      397 4.2124505e-14 
    4730    442.37014      399 4.2444526e-14 
    4740     443.3499      404 4.2766991e-14 
    4750    444.35714      408 4.3091923e-14 
    4760    445.36093      412 4.3419334e-14 
    4770    446.33354      414 4.3749246e-14 
    4780    447.31967      415 4.408168e-14 
    4790    448.37183      418 4.4416656e-14 
    4800    449.38274      423 4.4754191e-14 
    4810    450.33212      425 4.5094303e-14 
    4820    451.31671      427 4.5437014e-14 
    4830    452.32041      430 4.5782342e-14 
    4840    453.30313      436 4.6130305e-14 
    4850    454.30004      437 4.6480925e-14 
    4860    455.36096      442 4.683422e-14 
    4870    456.40998      446 4.7190204e-14 
    4880    457.38219      451 4.7548907e-14 
    4890     458.3579      454 4.791035e-14 
    4900    459.37663      460 4.8274552e-14 
    4910    460.44955      464 4.8641528e-14 
    4920    461.47525      469 4.9011303e-14 
    4930     462.5046      473  4.93839e-14 
    4940    463.57029      475 4.975934e-14 
    4950    464.60505      476 5.0137642e-14 
    4960    465.66717      480 5.0518829e-14 
    4970    466.71762      485 5.090292e-14 
    4980    467.73936      487 5.1289939e-14 
    4990    468.80462      491 5.1679915e-14 
    5000    470.13555      497 5.2072875e-14 
    5010    471.18989      504 5.2468829e-14 
    5020    472.22714      510 5.2867806e-14 
    5030    473.26611      513 5.3269824e-14 
    5040    474.26197      515 5.3674904e-14 
    5050    475.38407      518 5.4083079e-14 
    5060    476.43111      522 5.4494371e-14 
    5070    477.54897      526 5.4908798e-14 
    5080    478.69688      530 5.5326384e-14 
    5090    479.83124      533 5.5747152e-14 
    5100    480.96625      534 5.6171134e-14 
    5110    482.13315      539 5.6598343e-14 
    5120    483.20593      540 5.7028817e-14 
    5130     484.2545      542 5.7462572e-14 
    5140     485.3184      551 5.7899629e-14 
    5150    486.36298      558 5.8340018e-14 
    5160     487.4169      564 5.8783772e-14 
    5170    488.54923      567 5.9230913e-14 
    5180    489.69896      574 5.9681463e-14 
    5190    490.73332      578 6.0135455e-14 
    5200    491.73442      579 6.0592907e-14 
    5210    492.71836      586 6.1053847e-14 
    5220    493.72808      597 6.1518294e-14 
    5230    494.79437      602 6.1986282e-14 
    5240    495.84934      606 6.2457839e-14 
    5250    496.85732      612 6.2932997e-14 
    5260    497.90289      615 6.3411775e-14 
    5270    498.94965      623 6.3894202e-14 
    5280    499.96006      626 6.4380308e-14 
    5290    501.01129      627 6.4870116e-14 
    5300     502.0876      627 6.5363655e-14 
    5310    503.14962      630 6.5860951e-14 
    5320    504.20113      635 6.6362027e-14 
    5330    505.25084      640 6.6866918e-14 
    5340    506.32438      644 6.7375656e-14 
    5350    507.43235      651 6.7888271e-14 
    5360    508.55292      658 6.8404792e-14 
    5370    509.67649      664 6.8925247e-14 
    5380    510.75761      669 6.9449667e-14 
    5390    511.83058      671 6.9978088e-14 
    5400    512.92013      677 7.0510532e-14 
    5410    514.00955      685 7.1047024e-14 
    5420    515.10346      690 7.1587601e-14 
    5430    516.13489      694  7.21323e-14 
    5440    517.12368      697 7.2681152e-14 
    5450    518.17037      705 7.323418e-14 
    5460    519.25236      709 7.3791411e-14 
    5470    520.44897      712 7.4352882e-14 
    5480    521.53923      716 7.4918624e-14 
    5490    522.62545      722 7.5488668e-14 
    5500    523.99366      727 7.6063042e-14 
    5510    525.09915      737 7.6641779e-14 
    5520    526.19694      742 7.7224918e-14 
    5530    527.37889      747 7.7812487e-14 
    5540     528.4705      752 7.8404525e-14 
    5550    529.57809      756 7.9001071e-14 
    5560    530.69224      761 7.9602157e-14 
    5570    531.80052      765 8.0207811e-14 
    5580     532.8445      774 8.0818073e-14 
    5590    533.92308      779 8.1432979e-14 
    5600    534.98271      784 8.2052558e-14 
    5610    536.02098      794 8.2676848e-14 
    5620    537.03751      800 8.3305883e-14 
    5630    538.13014      804  8.39397e-14 
    5640     539.2028      808 8.4578336e-14 
    5650    540.30054      818 8.522183e-14 
    5660    541.45739      827 8.5870226e-14 
    5670    542.57415      834 8.6523568e-14 
    5680    543.66102      836 8.7181883e-14 
    5690    544.69744      843 8.7845206e-14 
    5700    545.80814      849 8.851357e-14 
    5710    546.91445      854 8.9187011e-14 
    5720     548.0339      861 8.9865572e-14 
    5730    549.15029      867 9.0549292e-14 
    5740    550.24023      874 9.1238208e-14 
    5750    551.38043      881 9.1932363e-14 
    5760    552.51557      889 9.2631793e-14 
    5770    553.61309      894 9.3336533e-14 
    5780    554.72843      900 9.4046628e-14 
    5790    555.92719      908 9.4762109e-14 
    5800     557.0603      914 9.548302e-14 
    5810    558.15912      919 9.6209403e-14 
    5820    559.26794      926 9.6941301e-14 
    5830    560.37011      931 9.767876e-14 
    5840    561.47648      940 9.8421831e-14 
    5850    562.69974      947 9.9170545e-14 
    5860    563.91181      951 9.9924934e-14 
    5870    565.02884      960 1.0068504e-13 
    5880    566.17956      963 1.0145092e-13 
    5890    567.34804      969 1.0222262e-13 
    5900    568.48658      973 1.0300018e-13 
    5910    569.63869      980 1.0378364e-13 
    5920    570.81439      986 1.0457305e-13 
    5930    571.98003      992 1.0536846e-13 
    5940    573.12021      998 1.061699e-13 
    5950     574.3119     1008 1.0697743e-13 
    5960    575.45926     1020 1.0779107e-13 
    5970    576.64909     1027 1.0861089e-13 
    5980    577.82509     1034 1.0943692e-13 
    5990    579.00455     1043 1.1026919e-13 
    6000    580.45572     1051 1.1110779e-13 
    6010    581.57868     1058 1.1195274e-13 
    6020    582.70622     1072 1.1280411e-13 
    6030    583.83556     1083 1.1366194e-13 
    6040    584.91803     1093 1.1452627e-13 
    6050    586.00277     1101 1.1539717e-13 
    6060    587.10191     1112 1.1627468e-13 
    6070    588.23165     1121 1.1715883e-13 
    6080    589.36881     1135 1.180497e-13 
    6090     590.5259     1147 1.1894732e-13 
    6100    591.68168     1155 1.1985176e-13 
    6110    592.84832     1164 1.2076305e-13 
    6120    593.96552     1175 1.2168126e-13 
    6130    595.17841     1189 1.2260644e-13 
    6140    596.28455     1197 1.2353862e-13 
    6150     597.4193     1204 1.2447787e-13 
    6160    598.55868     1211 1.2542423e-13 
    6170    599.73541     1216 1.2637776e-13 
    6180    600.90464     1226 1.2733851e-13 
    6190    602.06739     1235 1.2830653e-13 
    6200    603.22343     1243 1.2928188e-13 
    6210    604.39502     1249 1.3026462e-13 
    6220    605.59249     1256 1.312548e-13 
    6230    606.78104     1268 1.322525e-13 
    6240    607.93913     1282 1.3325775e-13 
    6250    609.10475     1291 1.3427062e-13 
    6260    610.27242     1305 1.3529117e-13 
    6270      611.445     1314 1.3631944e-13 
    6280    612.65973     1326 1.373555e-13 
    6290    613.86728     1335 1.3839941e-13 
    6300    615.04703     1342 1.3945123e-13 
    6310    616.21776     1356 1.4051102e-13 
    6320    617.39545     1368 1.4157883e-13 
    6330    618.60595     1383 1.4265473e-13 
    6340    619.85879     1393 1.4373878e-13 
    6350    621.05326     1403 1.4483105e-13 
    6360    622.27105     1407 1.4593158e-13 
    6370    623.47493     1419 1.4704045e-13 
    6380    624.66546     1430 1.4815773e-13 
    6390    625.87444     1441 1.4928346e-13 
    6400    627.07964     1454 1.504177e-13 
    6410    628.29443     1470 1.5156053e-13 
    6420    629.48972     1472 1.5271202e-13 
    6430    630.69473     1477 1.5387222e-13 
    6440     631.8841     1489 1.5504121e-13 
    6450    633.08324     1502 1.5621903e-13 
    6460    634.26084     1509 1.5740577e-13 
    6470    635.46708     1520 1.5860148e-13 
    6480    636.71673     1535 1.5980623e-13 
    6490    637.98486     1543 1.610201e-13 
    6500    639.43763     1557 1.6224313e-13 
    6510    640.72687     1567 1.6347539e-13 
    6520    641.97889     1584 1.6471697e-13 
    6530    643.18559     1591 1.6596793e-13 
    6540    644.41569     1602 1.6722836e-13 
    6550    645.64414     1616 1.684983e-13 
    6560    646.90132     1627 1.6977783e-13 
    6570    648.16496     1643 1.7106703e-13 
    6580    649.41656     1650 1.7236598e-13 
    6590    650.66642     1654 1.7367475e-13 
    6600    651.91605     1669 1.7499343e-13 
    6610    653.15494     1679 1.7632208e-13 
    6620    654.38935     1693 1.7766077e-13 
    6630    655.63787     1709 1.7900956e-13 
    6640    656.92262     1721 1.8036854e-13 
    6650    658.18633     1731 1.8173778e-13 
    6660    659.44152     1745 1.8311735e-13 
    6670    660.71603     1757 1.8450733e-13 
    6680     661.9788     1771 1.859078e-13 
    6690    663.28692     1785 1.8731885e-13 
    6700    664.56963     1804 1.8874055e-13 
    6710    665.83402     1815 1.9017297e-13 
    6720    667.11382     1829 1.9161619e-13 
    6730    668.48086     1846 1.9307029e-13 
    6740    669.79704     1859 1.9453535e-13 
    6750    671.10773     1877 1.9601149e-13 
    6760    672.43589     1887 1.9749878e-13 
    6770    673.73144     1907 1.989973e-13 
    6780    675.02185     1923 2.0050713e-13 
    6790    676.28402     1938 2.0202837e-13 
    6800    677.57722     1949 2.0356109e-13 
    6810    678.84916     1961 2.0510536e-13 
    6820    680.15481     1966 2.0666126e-13 
    6830    681.44341     1979 2.0822889e-13 
    6840    682.75576     1993 2.0980832e-13 
    6850    684.05557     2008 2.1139964e-13 
    6860    685.35696     2025 2.1300294e-13 
    6870    686.66863     2039 2.1461832e-13 
    6880    687.99296     2061 2.1624587e-13 
    6890    689.30883     2075 2.1788568e-13 
    6900    690.61214     2087 2.1953785e-13 
    6910    691.89667     2097 2.2120245e-13 
    6920    693.20003     2116 2.2287958e-13 
    6930    694.53524     2133 2.2456935e-13 
    6940    695.88232     2148 2.2627187e-13 
    6950    697.26218     2166 2.2798721e-13 
    6960    698.63458     2189 2.2971545e-13 
    6970    699.99876     2203 2.3145669e-13 
    6980    701.41432     2231 2.3321099e-13 
    6990    702.79325     2251 2.3497848e-13 
    7000     704.3885     2266 2.3675926e-13 
    7010    705.78166     2279 2.3855343e-13 
    7020    707.13878     2294 2.4036112e-13 
    7030    708.50033     2311 2.4218242e-13 
    7040    709.86099     2330 2.4401741e-13 
    7050    711.19339     2356 2.4586621e-13 
    7060    712.52817     2374 2.477289e-13 
    7070    713.89747     2390 2.4960558e-13 
    7080    715.26823     2408 2.5149642e-13 
    7090    716.62743     2432 2.5340147e-13 
    7100    718.02019     2452 2.5532084e-13 
    7110    719.40067     2470 2.5725463e-13 
    7120    720.78669     2491 2.5920295e-13 
    7130    722.15431     2509 2.6116591e-13 
    7140    723.52515     2518 2.6314362e-13 
    7150    724.89754     2537 2.6513618e-13 
    7160    726.28551     2558 2.671437e-13 
    7170    727.69819     2577 2.6916629e-13 
    7180    729.15757     2598 2.7120404e-13 
    7190      730.572     2620 2.7325708e-13 
    7200    731.98109     2646 2.7532552e-13 
    7210    733.38339     2666 2.7740947e-13 
    7220    734.86198     2683 2.7950907e-13 
    7230    736.33407     2705 2.8162444e-13 
    7240    737.75723     2724 2.8375567e-13 
    7250    739.15874     2752 2.8590289e-13 
    7260    740.57113     2781 2.8806621e-13 
    7270    741.96508     2796 2.9024576e-13 
    7280    743.36082     2826 2.9244164e-13 
    7290    744.77217     2839 2.9465399e-13 
    7300    746.18655     2861 2.9688293e-13 
    7310    747.61784     2887 2.9912856e-13 
    7320    749.06516     2908 3.0139103e-13 
    7330    750.51333     2920 3.0367045e-13 
    7340    751.99321     2941 3.0596697e-13 
    7350    753.48101     2962 3.0828068e-13 
    7360    754.94685     2984 3.106117e-13 
    7370    756.42039     3006 3.1296017e-13 
    7380    757.89964     3026 3.1532621e-13 
    7390    759.37923     3054 3.1770996e-13 
    7400    760.89288     3075 3.2011154e-13 
    7410    762.37646     3106 3.2253109e-13 
    7420    763.93272     3134 3.2496875e-13 
    7430    765.48465     3153 3.2742464e-13 
    7440    767.05233     3184 3.2989889e-13 
    7450    768.69145     3197 3.3239169e-13 
    7460    770.24869     3218 3.3490314e-13 
    7470    771.76499     3237 3.3743338e-13 
    7480     773.2865     3261 3.3998255e-13 
    7490    774.80849     3284 3.4255075e-13 
    7500    776.61271     3302 3.4513815e-13 
    7510    778.15057     3329 3.4774488e-13 
    7520    779.64273     3356 3.5037107e-13 
    7530    781.12642     3376 3.5301688e-13 
    7540    782.61782     3391 3.5568244e-13 
    7550    784.14431     3423 3.5836789e-13 
    7560    785.68446     3451 3.610734e-13 
    7570    787.22459     3473 3.6379909e-13 
    7580    788.74801     3495 3.6654513e-13 
    7590    790.30376     3511 3.6931165e-13 
    7600    791.89682     3539 3.720988e-13 
    7610    793.41412     3579 3.7490676e-13 
    7620    794.97588     3609 3.7773566e-13 
    7630    796.54058     3633 3.8058564e-13 
    7640    798.15426     3663 3.8345689e-13 
    7650    799.73055     3693 3.8634953e-13 
    7660    801.31834     3729 3.8926371e-13 
    7670    802.93196     3768 3.9219959e-13 
    7680    804.51172     3788 3.9515736e-13 
    7690    806.13097     3813 3.9813717e-13 
    7700    807.79092     3831 4.0113916e-13 
    7710    809.42385     3865 4.041635e-13 
    7720    811.04485     3882 4.0721032e-13 
    7730    812.73174     3907 4.102798e-13 
    7740    814.41521     3936 4.133721e-13 
    7750    816.09118     3965 4.164874e-13 
    7760    817.74879     3987 4.1962586e-13 
    7770    819.36574     4027 4.2278766e-13 
    7780     821.0574     4068 4.2597297e-13 
    7790    822.71108     4101 4.2918196e-13 
    7800    824.44344     4138 4.3241478e-13 
    7810    826.14738     4181 4.3567163e-13 
    7820    827.82828     4209 4.3895269e-13 
    7830    829.48586     4243 4.4225816e-13 
    7840    831.20479     4277 4.4558816e-13 
    7850    832.89041     4303 4.4894287e-13 
    7860    834.58888     4347 4.5232248e-13 
    7870    836.27169     4374 4.5572718e-13 
    7880    837.96304     4405 4.5915713e-13 
    7890    839.67927     4433 4.626125e-13 
    7900    841.40462     4462 4.660935e-13 
    7910    843.15626     4490 4.6960029e-13 
    7920     844.8712     4531 4.7313309e-13 
    7930    846.60759     4556 4.7669207e-13 
    7940    848.34922     4591 4.802774e-13 
    7950     850.1018     4629 4.8388927e-13 
    7960    851.85268     4659 4.8752789e-13 
    7970    853.58446     4687 4.9119345e-13 
    7980    855.37979     4725 4.9488612e-13 
    7990     857.1952     4750 4.9860614e-13 
    8000    859.20025     4779 5.0235366e-13 
    8010    860.93613     4818 5.0612886e-13 
    8020    862.69691     4865 5.0993198e-13 
    8030    864.48585     4896 5.1376321e-13 
    8040    866.28061     4924 5.1762272e-13 
    8050    868.04718     4959 5.2151071e-13 
    8060    869.82397     4999 5.2542738e-13 
    8070    871.59014     5042 5.2937294e-13 
    8080    873.34437     5074 5.3334759e-13 
    8090    875.15393     5113 5.3735154e-13 
    8100    877.00018     5160 5.4138499e-13 
    8110     878.8037     5197 5.4544818e-13 
    8120    880.69927     5240 5.4954134e-13 
    8130    882.52371     5288 5.5366468e-13 
    8140    884.34094     5327 5.578184e-13 
    8150    886.14543     5372 5.6200277e-13 
    8160    888.02898     5420 5.6621793e-13 
    8170    889.89212     5468 5.704641e-13 
    8180    891.79536     5509 5.7474151e-13 
    8190    893.65691     5561 5.7905034e-13 
    8200     895.5659     5591 5.8339085e-13 
    8210    897.50604     5638 5.8776326e-13 
    8220    899.41061     5692 5.921678e-13 
    8230    901.34853     5734 5.9660468e-13 
    8240    903.25963     5791 6.0107416e-13 
    8250    905.23778     5845 6.0557647e-13 
    8260     907.1702     5885 6.1011183e-13 
    8270    909.07996     5930 6.1468046e-13 
    8280    911.01316     5963 6.1928261e-13 
    8290    912.99646     6011 6.2391847e-13 
    8300    914.99159     6064 6.2858829e-13 
    8310      916.983     6117 6.3329232e-13 
    8320    918.90423     6154 6.380308e-13 
    8330     920.8898     6199 6.4280397e-13 
    8340    922.85017     6235 6.4761205e-13 
    8350    924.80342     6276 6.5245526e-13 
    8360     926.7555     6321 6.5733383e-13 
    8370    928.74635     6365 6.6224809e-13 
    8380    930.76543     6414 6.6719823e-13 
    8390      932.761     6460 6.7218454e-13 
    8400    934.73487     6516 6.7720727e-13 
    8410    936.73112     6562 6.8226664e-13 
    8420    938.74948     6617 6.873629e-13 
    8430    940.82868     6664 6.924963e-13 
    8440    942.90627     6717 6.9766708e-13 
    8450    945.00308     6767 7.0287556e-13 
    8460    947.10286     6814 7.0812196e-13 
    8470    949.22028     6861 7.1340654e-13 
    8480    951.33422     6914 7.1872951e-13 
    8490    953.43027     6963 7.2409116e-13 
    8500    955.78445     7005 7.2949175e-13 
    8510      957.921     7055 7.3493153e-13 
    8520    960.08658     7108 7.404108e-13 
    8530    962.24102     7148 7.459298e-13 
    8540    964.42973     7202 7.5148881e-13 
    8550    966.67754     7253 7.5708809e-13 
    8560    968.86582     7302 7.6272794e-13 
    8570    971.03917     7355 7.6840866e-13 
    8580    973.24461     7405 7.7413052e-13 
    8590    975.46041     7459 7.7989378e-13 
    8600     977.6346     7512 7.8569875e-13 
    8610    979.82683     7571 7.915457e-13 
    8620    982.06949     7629 7.9743493e-13 
    8630     984.3308     7681 8.0336669e-13 
    8640     986.6023     7739 8.0934124e-13 
    8650    988.84663     7798 8.1535889e-13 
    8660    991.11462     7852 8.2141994e-13 
    8670    993.37433     7903 8.2752466e-13 
    8680    995.61091     7956 8.336733e-13 
    8690    997.90498     8016 8.3986621e-13 
    8700    1000.1962     8079 8.4610363e-13 
    8710    1002.5134     8145 8.5238595e-13 
    8720    1004.7808     8213 8.5871344e-13 
    8730    1007.0857     8262 8.6508638e-13 
    8740    1009.4221     8323 8.7150507e-13 
    8750    1011.7647     8394 8.7796981e-13 
    8760     1014.132     8448 8.8448086e-13 
    8770    1016.5581     8514 8.9103859e-13 
    8780    1018.9614     8577 8.9764328e-13 
    8790    1021.3259     8635 9.042952e-13 
    8800    1023.6927     8703 9.1099465e-13 
    8810    1026.0612     8764 9.1774197e-13 
    8820    1028.4403     8829 9.2453749e-13 
    8830     1030.861     8904 9.3138149e-13 
    8840    1033.3523     8973 9.3827433e-13 
    8850    1035.8143     9031 9.452163e-13 
    8860    1038.2599     9092 9.5220766e-13 
    8870    1040.6971     9162 9.5924873e-13 
    8880    1043.2054     9225 9.6633982e-13 
    8890    1045.7146     9301 9.7348125e-13 
    8900    1048.2449     9378 9.8067339e-13 
    8910    1050.7014     9450 9.8791657e-13 
    8920     1053.162     9521 9.9521105e-13 
    8930    1055.6643     9589 1.0025572e-12 
    8940    1058.1768     9667 1.0099553e-12 
    8950    1060.7674     9729 1.0174057e-12 
    8960    1063.3029     9776 1.0249087e-12 
    8970     1065.822     9857 1.0324647e-12 
    8980    1068.4197     9944 1.040074e-12 
    8990    1071.0073    10005 1.0477369e-12 
    9000    1073.8863    10077 1.0554538e-12 
    9010    1076.3834    10156 1.0632249e-12 
    9020    1078.9235    10238 1.0710505e-12 
    9030    1081.4298    10314 1.078931e-12 
    9040    1083.9476    10401 1.0868668e-12 
    9050    1086.4914    10487 1.0948582e-12 
    9060    1089.1113    10565 1.1029055e-12 
    9070    1091.6634    10650 1.111009e-12 
    9080    1094.2627    10727 1.1191691e-12 
    9090    1096.8641    10803 1.127386e-12 
    9100    1099.4951    10889 1.1356602e-12 
    9110    1102.1238    10972 1.143992e-12 
    9120    1104.7619    11054 1.1523818e-12 
    9130    1107.3976    11129 1.1608299e-12 
    9140    1110.0554    11225 1.1693365e-12 
    9150    1112.7227    11314 1.177902e-12 
    9160    1115.3703    11415 1.1865268e-12 
    9170    1118.0403    11489 1.1952112e-12 
    9180    1120.8161    11568 1.2039555e-12 
    9190    1123.5205    11637 1.2127602e-12 
    9200    1126.2507    11719 1.2216255e-12 
    9210    1129.0585    11797 1.2305519e-12 
    9220    1131.7727    11886 1.2395395e-12 
    9230    1134.6279    11978 1.2485887e-12 
    9240    1137.4548    12057 1.2576997e-12 
    9250    1140.2919    12158 1.2668731e-12 
    9260    1143.0611    12248 1.276109e-12 
    9270    1145.8546    12324 1.285408e-12 
    9280     1148.735    12422 1.2947703e-12 
    9290    1151.5889    12520 1.3041963e-12 
    9300    1154.4185    12608 1.3136863e-12 
    9310    1157.2673    12710 1.3232406e-12 
    9320    1160.1687    12795 1.3328596e-12 
    9330    1163.1164    12884 1.3425435e-12 
    9340    1166.0075    12972 1.3522929e-12 
    9350    1168.9782    13057 1.3621079e-12 
    9360    1171.9238    13145 1.3719889e-12 
    9370    1174.8181    13243 1.3819364e-12 
    9380    1177.7511    13325 1.3919503e-12 
    9390    1180.7691    13427 1.4020313e-12 
    9400    1183.7358    13534 1.4121795e-12 
    9410    1186.6949    13638 1.4223952e-12 
    9420    1189.7482    13740 1.4326786e-12 
    9430    1192.7587    13839 1.4430301e-12 
    9440    1195.7695    13946 1.4534502e-12 
    9450    1198.8236    14067 1.4639392e-12 
    9460    1201.8457    14165 1.4744974e-12 
    9470    1204.8924    14255 1.4851249e-12 
    9480    1207.9521    14361 1.4958222e-12 
    9490    1211.0516    14468 1.5065896e-12 
    9500    1214.4594    14557 1.5174274e-12 
    9510    1217.5821    14652 1.528336e-12 
    9520    1220.6564    14738 1.5393154e-12 
    9530    1223.7646    14843 1.550366e-12 
    9540    1226.8809    14939 1.561488e-12 
    9550    1230.1432    15035 1.5726819e-12 
    9560    1233.2872    15147 1.5839476e-12 
    9570    1236.5504    15243 1.5952856e-12 
    9580    1239.8855    15357 1.6066962e-12 
    9590    1243.1905    15483 1.6181795e-12 
    9600    1246.3912    15587 1.629736e-12 
    9610    1249.6439    15694 1.6413662e-12 
    9620    1252.8628    15788 1.6530697e-12 
    9630    1256.1799    15906 1.664847e-12 
    9640    1259.3999    16008 1.6766981e-12 
    9650    1262.6899    16125 1.6886235e-12 
    9660    1265.9181    16243 1.7006233e-12 
    9670    1269.1655    16359 1.7126978e-12 
    9680     1273.402    16482 1.724847e-12 
    9690    1277.4552    16591 1.7370709e-12 
    9700     1280.858    16696  1.74937e-12 
    9710    1284.1704    16820 1.7617443e-12 
    9720    1287.4822    16933 1.774194e-12 
    9730    1290.8014    17069 1.7867193e-12 
    9740    1294.1551    17184 1.7993203e-12 
    9750    1297.5511    17335 1.8119973e-12 
    9760    1301.0265    17442 1.8247502e-12 
    9770     1304.424    17564 1.8375789e-12 
    9780    1307.8325    17680 1.8504838e-12 
    9790    1311.2155    17807 1.8634649e-12 
    9800     1314.592    17915 1.876523e-12 
    9810    1317.9518    18031 1.8896573e-12 
    9820    1321.3307    18158 1.902868e-12 
    9830    1324.7364    18306 1.9161553e-12 
    9840    1328.3098    18449 1.9295191e-12 
    9850    1331.7296    18572 1.9429592e-12 
    9860    1335.1673    18722 1.9564754e-12 
    9870     1338.639    18873 1.970068e-12 
    9880    1342.0883    19007 1.983737e-12 
    9890     1345.561    19145 1.9974827e-12 
    9900    1349.0221    19277 2.0113049e-12 
    9910    1352.5192    19416 2.025203e-12 
    9920    1355.9751    19542 2.0391769e-12 
    9930    1359.4889    19693 2.0532266e-12 
    9940    1363.1149    19828 2.0673524e-12 
    9950    1366.6911    19963 2.0815539e-12 
    9960    1370.1898    20104 2.0958306e-12 
    9970    1373.7173    20250 2.1101829e-12 
    9980    1377.2582    20390 2.1246109e-12 
    9990    1380.8486    20538 2.1391137e-12 
   10000    1384.7632    20671 2.1536908e-12 
Loop time of 1384.76 on 1 procs for 10000 steps with 20671 atoms

Performance: 22461601.027 tau/day, 7.221 timesteps/s
99.5% CPU use with 1 MPI tasks x no OpenMP threads

MPI task timing breakdown:
Section |  min time  |  avg time  |  max time  |%varavg| %total
---------------------------------------------------------------
Pair    | 20.424     | 20.424     | 20.424     |   0.0 |  1.47
Neigh   | 75.223     | 75.223     | 75.223     |   0.0 |  5.43
Comm    | 0.45775    | 0.45775    | 0.45775    |   0.0 |  0.03
Output  | 5.2905     | 5.2905     | 5.2905     |   0.0 |  0.38
Modify  | 1282.8     | 1282.8     | 1282.8     |   0.0 | 92.63
Other   |            | 0.5928     |            |       |  0.04

Nlocal:    20671 ave 20671 max 20671 min
Histogram: 1 0 0 0 0 0 0 0 0 0
Nghost:    0 ave 0 max 0 min
Histogram: 1 0 0 0 0 0 0 0 0 0
Neighs:    255947 ave 255947 max 255947 min
Histogram: 1 0 0 0 0 0 0 0 0 0

Total # of neighbors = 255947
Ave neighs/atom = 12.3819
Neighbor list builds = 10000
Dangerous builds = 0


Total wall time: 0:23:08
