LAMMPS (5 Nov 2016)
# NUFEB simulation

atom_style	bio
atom_modify	map array sort 1000 5.0e-7
boundary	ff ff ff
newton		off
#processors  2 1 1

comm_modify	vel yes
read_data_bio atom.in
  orthogonal box = (0 0 0) to (0.0001 0.0001 0.0001)
  1 by 1 by 1 MPI processor grid
  reading atoms ...
  12 atoms
  10 nutrients

group AOB type 1
4 atoms in group AOB
group NOB type 2
4 atoms in group NOB
group COMM type 3
4 atoms in group COMM

neighbor	5.0e-7 bin
neigh_modify	delay 0 one 5000

#pair_style none
pair_style  gran/hooke/history 0.000200 NULL 0.000050 NULL 0.0 1

pair_coeff  * *
timestep 36

fix 1 all nve/limit 1e-8

#fix	 2 all gravity 1.47 vector 0 0 -1 # spherical 90.0 -180.0
#fix     3 all fdrag
fix 10 all viscous 0.1


fix xw all wall/gran hooke/history 2000 NULL 500.0 NULL 1.5 0 xplane  0.0   1.0e-04
fix yw all wall/gran hooke/history 2000 NULL 500.0 NULL 1.5 0 yplane  0.0   1.0e-04
fix zw all wall/gran hooke/history 2000 NULL 500.0 NULL 1.5 0 zplane  0.0   1.0e-04

variable kanc equal 50

fix xwa all walladh v_kanc xplane  0.0   1.0e-04
fix ywa all walladh v_kanc yplane  0.0   1.0e-04
fix zwa all walladh v_kanc zplane  0.0   1.0e-04

##############Ibm Variable Definitions##############

#Defining EPS density and ratio variables
variable EPSdens equal 30
variable EPSratio equal 1.25

variable ke equal 5e+10

#Defining kinetics variables
variable temp equal 298.15
variable gasTran equal 0.08205746
variable gvol equal 8e-14
variable rth equal 0.0083144
variable pressure equal 1
variable ph equal 7.0

#Defining diffusion variables
variable diffT equal 1e-3
variable tol equal 1e-8

##############Ibm functions##############

fix k1 all kinetics 1 1 1 v_temp v_rth v_gvol v_gasTran v_ph
fix g1 all diffusion exp v_diffT v_tol pp pp nd
fix ki3 all kinetics/ph 1
fix ki2 all kinetics/thermo 1 unfix open v_pressure
fix ki1 all kinetics/monod 1 v_EPSdens
fix d1 all divide 1 v_EPSdens 1 31231

#fix j1 all epsadh 1 v_ke 1
#fix e1 HET eps_extract 16 v_EPSratio v_EPSdens 1242242

##############Ibm compute##############

compute myMass all biomass
compute myNtypes all ntypes

##############Simulation outputs##############

dump		id all custom 1 snapshot.bubblemd id type diameter x y z
dump            d0 all bio 1 Conc DGRAn DGRCat ph biomass gas
thermo_style    custom step cpu atoms biomass c_myNtypes[*]
thermo		1
thermo_modify	lost ignore

run  1
Neighbor list info ...
  2 neighbor list requests
  update every 1 steps, delay 0 steps, check yes
  max neighbors/atom: 5000, page size: 100000
  master list distance cutoff = 1.466e-06
  ghost atom cutoff = 1.466e-06
  binsize = 7.33e-07 -> bins = 137 137 137
Memory usage per processor = 20.2453 Mbytes
Step CPU Atoms biomass c_myNtypes[1] c_myNtypes[2] c_myNtypes[3] 
       0            0       12 1.6425146e-15            4            4            4 
       1 0.0059530735       12 1.643469e-15            4            4            4 
Loop time of 0.00596905 on 1 procs for 1 steps with 12 atoms

Performance: 521088159.514 tau/day, 167.531 timesteps/s
67.0% CPU use with 1 MPI tasks x no OpenMP threads

MPI task timing breakdown:
Section |  min time  |  avg time  |  max time  |%varavg| %total
---------------------------------------------------------------
Pair    | 9.5367e-07 | 9.5367e-07 | 9.5367e-07 |   0.0 |  0.02
Neigh   | 0.0021601  | 0.0021601  | 0.0021601  |   0.0 | 36.19
Comm    | 1.2875e-05 | 1.2875e-05 | 1.2875e-05 |   0.0 |  0.22
Output  | 0.000808   | 0.000808   | 0.000808   |   0.0 | 13.54
Modify  | 0.0029788  | 0.0029788  | 0.0029788  |   0.0 | 49.90
Other   |            | 8.345e-06  |            |       |  0.14

Nlocal:    12 ave 12 max 12 min
Histogram: 1 0 0 0 0 0 0 0 0 0
Nghost:    0 ave 0 max 0 min
Histogram: 1 0 0 0 0 0 0 0 0 0
Neighs:    0 ave 0 max 0 min
Histogram: 1 0 0 0 0 0 0 0 0 0

Total # of neighbors = 0
Ave neighs/atom = 0
Neighbor list builds = 1
Dangerous builds = 0


Total wall time: 0:00:00
