  Granular Flow Simulation 

       122 atoms 
       5 atom types 
       5 nutrients

   0.000000e-04   1.000000e-04  xlo xhi 
   0.000000e-04   4.000000e-05  ylo yhi 
   0.000000e-04   1.000000e-04  zlo zhi 

 Atoms

     1 1 1.0e-6 150 0.5e-5 0.5e-5 1e-6 1.0e-6  
     2 1 1.0e-6 150 1.5e-5 0.5e-5 1e-6 1.0e-6  
     3 1 1.0e-6 150 2.5e-5 0.5e-5 1e-6 1.0e-6  
     4 1 1.0e-6 150 3.5e-5 0.5e-5 1e-6 1.0e-6  
     5 1 1.0e-6 150 4.5e-5 0.5e-5 1e-6 1.0e-6  
     6 1 1.0e-6 150 5.5e-5 0.5e-5 1e-6 1.0e-6  
     7 1 1.0e-6 150 6.5e-5 0.5e-5 1e-6 1.0e-6  
     8 1 1.0e-6 150 7.5e-5 0.5e-5 1e-6 1.0e-6  
     9 1 1.0e-6 150 8.5e-5 0.5e-5 1e-6 1.0e-6  
     10 1 1.0e-6 150 9.5e-5 0.5e-5 1e-6 1.0e-6  
     11 1 1.0e-6 150 0.5e-5 1.5e-5 1e-6 1.0e-6  
     12 1 1.0e-6 150 1.5e-5 1.5e-5 1e-6 1.0e-6  
     13 1 1.0e-6 150 2.5e-5 1.5e-5 1e-6 1.0e-6  
     14 1 1.0e-6 150 3.5e-5 1.5e-5 1e-6 1.0e-6  
     15 1 1.0e-6 150 4.5e-5 1.5e-5 1e-6 1.0e-6  
     16 1 1.0e-6 150 5.5e-5 1.5e-5 1e-6 1.0e-6  
     17 1 1.0e-6 150 6.5e-5 1.5e-5 1e-6 1.0e-6  
     18 1 1.0e-6 150 7.5e-5 1.5e-5 1e-6 1.0e-6  
     19 1 1.0e-6 150 8.5e-5 1.5e-5 1e-6 1.0e-6  
     20 1 1.0e-6 150 9.5e-5 1.5e-5 1e-6 1.0e-6  
     21 1 1.0e-6 150 0.5e-5 2.5e-5 1e-6 1.0e-6  
     22 1 1.0e-6 150 1.5e-5 2.5e-5 1e-6 1.0e-6  
     23 1 1.0e-6 150 2.5e-5 2.5e-5 1e-6 1.0e-6  
     24 1 1.0e-6 150 3.5e-5 2.5e-5 1e-6 1.0e-6  
     25 1 1.0e-6 150 4.5e-5 2.5e-5 1e-6 1.0e-6  
     26 1 1.0e-6 150 5.5e-5 2.5e-5 1e-6 1.0e-6  
     27 1 1.0e-6 150 6.5e-5 2.5e-5 1e-6 1.0e-6  
     28 1 1.0e-6 150 7.5e-5 2.5e-5 1e-6 1.0e-6  
     29 1 1.0e-6 150 8.5e-5 2.5e-5 1e-6 1.0e-6  
     30 1 1.0e-6 150 9.5e-5 2.5e-5 1e-6 1.0e-6  
     31 1 1.0e-6 150 0.5e-5 3.5e-5 1e-6 1.0e-6  
     32 1 1.0e-6 150 1.5e-5 3.5e-5 1e-6 1.0e-6  
     33 1 1.0e-6 150 2.5e-5 3.5e-5 1e-6 1.0e-6  
     34 1 1.0e-6 150 3.5e-5 3.5e-5 1e-6 1.0e-6  
     35 1 1.0e-6 150 4.5e-5 3.5e-5 1e-6 1.0e-6  
     36 1 1.0e-6 150 5.5e-5 3.5e-5 1e-6 1.0e-6  
     37 1 1.0e-6 150 6.5e-5 3.5e-5 1e-6 1.0e-6  
     38 1 1.0e-6 150 7.5e-5 3.5e-5 1e-6 1.0e-6  
     39 1 1.0e-6 150 8.5e-5 3.5e-5 1e-6 1.0e-6  
     40 1 1.0e-6 150 9.5e-5 3.5e-5 1e-6 1.0e-6  
     41 2 1.0e-6 150 0.6e-5 0.5e-5 1e-6 1.0e-6  
     42 2 1.0e-6 150 1.6e-5 0.5e-5 1e-6 1.0e-6  
     43 2 1.0e-6 150 2.6e-5 0.5e-5 1e-6 1.0e-6  
     44 2 1.0e-6 150 3.6e-5 0.5e-5 1e-6 1.0e-6  
     45 2 1.0e-6 150 4.6e-5 0.5e-5 1e-6 1.0e-6  
     46 2 1.0e-6 150 5.6e-5 0.5e-5 1e-6 1.0e-6  
     47 2 1.0e-6 150 6.6e-5 0.5e-5 1e-6 1.0e-6  
     48 2 1.0e-6 150 7.6e-5 0.5e-5 1e-6 1.0e-6  
     49 2 1.0e-6 150 8.6e-5 0.5e-5 1e-6 1.0e-6  
     50 2 1.0e-6 150 9.6e-5 0.5e-5 1e-6 1.0e-6  
     51 2 1.0e-6 150 0.6e-5 1.5e-5 1e-6 1.0e-6  
     52 2 1.0e-6 150 1.6e-5 1.5e-5 1e-6 1.0e-6  
     53 2 1.0e-6 150 2.6e-5 1.5e-5 1e-6 1.0e-6  
     54 2 1.0e-6 150 3.6e-5 1.5e-5 1e-6 1.0e-6  
     55 2 1.0e-6 150 4.6e-5 1.5e-5 1e-6 1.0e-6  
     56 2 1.0e-6 150 5.6e-5 1.5e-5 1e-6 1.0e-6  
     57 2 1.0e-6 150 6.6e-5 1.5e-5 1e-6 1.0e-6  
     58 2 1.0e-6 150 7.6e-5 1.5e-5 1e-6 1.0e-6  
     59 2 1.0e-6 150 8.6e-5 1.5e-5 1e-6 1.0e-6  
     60 2 1.0e-6 150 9.6e-5 1.5e-5 1e-6 1.0e-6  
     61 2 1.0e-6 150 0.6e-5 2.5e-5 1e-6 1.0e-6  
     62 2 1.0e-6 150 1.6e-5 2.5e-5 1e-6 1.0e-6  
     63 2 1.0e-6 150 2.6e-5 2.5e-5 1e-6 1.0e-6  
     64 2 1.0e-6 150 3.6e-5 2.5e-5 1e-6 1.0e-6  
     65 2 1.0e-6 150 4.6e-5 2.5e-5 1e-6 1.0e-6  
     66 2 1.0e-6 150 5.6e-5 2.5e-5 1e-6 1.0e-6  
     67 2 1.0e-6 150 6.6e-5 2.5e-5 1e-6 1.0e-6  
     68 2 1.0e-6 150 7.6e-5 2.5e-5 1e-6 1.0e-6  
     69 2 1.0e-6 150 8.6e-5 2.5e-5 1e-6 1.0e-6  
     70 2 1.0e-6 150 9.6e-5 2.5e-5 1e-6 1.0e-6  
     71 2 1.0e-6 150 0.6e-5 3.5e-5 1e-6 1.0e-6  
     72 2 1.0e-6 150 1.6e-5 3.5e-5 1e-6 1.0e-6  
     73 2 1.0e-6 150 2.6e-5 3.5e-5 1e-6 1.0e-6  
     74 2 1.0e-6 150 3.6e-5 3.5e-5 1e-6 1.0e-6  
     75 2 1.0e-6 150 4.6e-5 3.5e-5 1e-6 1.0e-6  
     76 2 1.0e-6 150 5.6e-5 3.5e-5 1e-6 1.0e-6  
     77 2 1.0e-6 150 6.6e-5 3.5e-5 1e-6 1.0e-6  
     78 2 1.0e-6 150 7.6e-5 3.5e-5 1e-6 1.0e-6  
     79 2 1.0e-6 150 8.6e-5 3.5e-5 1e-6 1.0e-6  
     80 2 1.0e-6 150 9.6e-5 3.5e-5 1e-6 1.0e-6  
     81 3 1.0e-6 150 0.6e-5 0.6e-5 1e-6 1.0e-6  
     82 3 1.0e-6 150 1.6e-5 0.6e-5 1e-6 1.0e-6  
     83 3 1.0e-6 150 2.6e-5 0.6e-5 1e-6 1.0e-6  
     84 3 1.0e-6 150 3.6e-5 0.6e-5 1e-6 1.0e-6  
     85 3 1.0e-6 150 4.6e-5 0.6e-5 1e-6 1.0e-6  
     86 3 1.0e-6 150 5.6e-5 0.6e-5 1e-6 1.0e-6  
     87 3 1.0e-6 150 6.6e-5 0.6e-5 1e-6 1.0e-6  
     88 3 1.0e-6 150 7.6e-5 0.6e-5 1e-6 1.0e-6  
     89 3 1.0e-6 150 8.6e-5 0.6e-5 1e-6 1.0e-6  
     90 3 1.0e-6 150 9.6e-5 0.6e-5 1e-6 1.0e-6  
     91 3 1.0e-6 150 0.6e-5 1.6e-5 1e-6 1.0e-6  
     92 3 1.0e-6 150 1.6e-5 1.6e-5 1e-6 1.0e-6  
     93 3 1.0e-6 150 2.6e-5 1.6e-5 1e-6 1.0e-6  
     94 3 1.0e-6 150 3.6e-5 1.6e-5 1e-6 1.0e-6  
     95 3 1.0e-6 150 4.6e-5 1.6e-5 1e-6 1.0e-6  
     96 3 1.0e-6 150 5.6e-5 1.6e-5 1e-6 1.0e-6  
     97 3 1.0e-6 150 6.6e-5 1.6e-5 1e-6 1.0e-6  
     98 3 1.0e-6 150 7.6e-5 1.6e-5 1e-6 1.0e-6  
     99 3 1.0e-6 150 8.6e-5 1.6e-5 1e-6 1.0e-6  
     100 3 1.0e-6 150 9.6e-5 1.6e-5 1e-6 1.0e-6  
     101 3 1.0e-6 150 0.6e-5 2.6e-5 1e-6 1.0e-6  
     102 3 1.0e-6 150 1.6e-5 2.6e-5 1e-6 1.0e-6  
     103 3 1.0e-6 150 2.6e-5 2.6e-5 1e-6 1.0e-6  
     104 3 1.0e-6 150 3.6e-5 2.6e-5 1e-6 1.0e-6  
     105 3 1.0e-6 150 4.6e-5 2.6e-5 1e-6 1.0e-6  
     106 3 1.0e-6 150 5.6e-5 2.6e-5 1e-6 1.0e-6  
     107 3 1.0e-6 150 6.6e-5 2.6e-5 1e-6 1.0e-6  
     108 3 1.0e-6 150 7.6e-5 2.6e-5 1e-6 1.0e-6  
     109 3 1.0e-6 150 8.6e-5 2.6e-5 1e-6 1.0e-6  
     110 3 1.0e-6 150 9.6e-5 2.6e-5 1e-6 1.0e-6  
     111 3 1.0e-6 150 0.6e-5 3.6e-5 1e-6 1.0e-6  
     112 3 1.0e-6 150 1.6e-5 3.6e-5 1e-6 1.0e-6  
     113 3 1.0e-6 150 2.6e-5 3.6e-5 1e-6 1.0e-6  
     114 3 1.0e-6 150 3.6e-5 3.6e-5 1e-6 1.0e-6  
     115 3 1.0e-6 150 4.6e-5 3.6e-5 1e-6 1.0e-6  
     116 3 1.0e-6 150 5.6e-5 3.6e-5 1e-6 1.0e-6  
     117 3 1.0e-6 150 6.6e-5 3.6e-5 1e-6 1.0e-6  
     118 3 1.0e-6 150 7.6e-5 3.6e-5 1e-6 1.0e-6  
     119 3 1.0e-6 150 8.6e-5 3.6e-5 1e-6 1.0e-6  
     120 3 1.0e-6 150 9.6e-5 3.6e-5 1e-6 1.0e-6  
     121 4 1.0e-8 150 9.8e-5 3.5e-5 1e-6 1.0e-8  
     122 5 1.0e-8 150 8.8e-5 3.5e-5 1e-6 1.0e-8  

 Type Name

     1 het
     2 aob
     3 nob
     4 eps
     5 dead

 Nutrients

     1 sub l 8e-3 8e-3 8e-3 8e-3 8e-3 8e-3 8e-3
     2 o2 l 1e-4 1e-4 1e-4 1e-4 1e-4 1e-4 1e-4
     3 no2 l 8e-4 8e-4 8e-4 8e-4 8e-4 8e-4 8e-4
     4 no3 l 8e-4 8e-4 8e-4 8e-4 8e-4 8e-4 8e-4
     5 nh4 l 9e-4 9e-4 9e-4 9e-4 9e-4 9e-4 9e-4

 Diffusion Coeffs
    
     sub 0.5e-9
     o2 2e-9
     no2 1.2e-9
     no3 1.2e-9
     nh4 1.4e-9

 Ks
     
     het 0.004 0.0002 0.0003 0.0003 0
     aob 0 0.0005 0 0 0.001
     nob 0 0.00068 0.0013 0 0
     eps 0 0 0 0 0
     dead 0 0 0 0 0

 Growth Rate

     het 0.00006944444 
     aob 0.0000088
     nob 0.000009375
     eps 0
     dead 0

 Yield
    
     het 0.61
     aob 0.33
     nob 0.083
     eps 0.18
     dead 0

 Maintenance
 
     het 0
     aob 0
     nob 0
     eps 0
     dead 0

 Decay

     het 0.00000462962
     aob 0.00000127314
     nob 0.00000127314
     eps 0.00000196759
     dead 0



