ITEM: TIMESTEP
0
ITEM: NUMBER OF ATOMS
5
ITEM: BOX BOUNDS ff ff ff
0 0.0001
0 0.0001
0 0.0001
ITEM: ATOMS id type diameter x y z vx vy vz fx fy fz 
2 2 1.2839e-06 5e-05 4.9e-05 2e-06 0 0 0 -7.678e-05 0 0 
5 5 1.4839e-06 5.1e-05 4.9e-05 2e-06 0 0 0 7.678e-05 -5.122e-05 0 
4 4 1.0539e-06 4.9e-05 5e-05 2e-06 0 0 0 0 0 0 
3 3 1.0283e-06 5.1e-05 5e-05 2e-06 0 0 0 0 5.122e-05 0 
1 1 1.0839e-06 5e-05 5.1e-05 2e-06 0 0 0 0 0 0 
ITEM: TIMESTEP
500
ITEM: NUMBER OF ATOMS
6
ITEM: BOX BOUNDS ff ff ff
0 0.0001
0 0.0001
0 0.0001
ITEM: ATOMS id type diameter x y z vx vy vz fx fy fz 
2 2 1.35581e-06 5.45135e-05 4.89813e-05 2e-06 1e-09 0 0 7.66695e-12 0 0 
5 5 1.4839e-06 5.59612e-05 4.88981e-05 2e-06 1e-09 0 0 8.39126e-12 0 0 
4 4 1.05045e-06 5.38069e-05 5.00501e-05 2e-06 1e-09 0 0 5.94015e-12 0 0 
3 3 1.07736e-06 5.57875e-05 5.01995e-05 2e-06 1e-09 0 0 6.09232e-12 0 0 
1 1 1.22057e-06 5.49e-05 5.1e-05 2e-06 1e-09 0 0 6.90218e-12 0 0 
6 4 9.07185e-07 5.48096e-05 5.19556e-05 2.55415e-06 1e-09 0 0 6.5514e-12 0 0 
ITEM: TIMESTEP
1000
ITEM: NUMBER OF ATOMS
6
ITEM: BOX BOUNDS ff ff ff
0 0.0001
0 0.0001
0 0.0001
ITEM: ATOMS id type diameter x y z vx vy vz fx fy fz 
2 2 1.43176e-06 5.94735e-05 4.89827e-05 2e-06 1e-09 0 0 8.0964e-12 0 0 
5 5 1.4839e-06 6.09286e-05 4.88574e-05 1.99995e-06 1e-09 0 0 8.39105e-12 0 0 
4 4 1.04701e-06 5.88069e-05 5.00501e-05 2e-06 1e-09 0 0 5.9207e-12 0 0 
3 3 1.12876e-06 6.06269e-05 5.01518e-05 2.00329e-06 1e-09 0 0 6.39347e-12 0 0 
1 1 1.37448e-06 5.96772e-05 5.10366e-05 1.94915e-06 1e-09 -8.00183e-167 -5.23758e-167 7.57491e-12 0 0 
6 4 9.04215e-07 5.97175e-05 5.20324e-05 2.60095e-06 1e-09 7.92304e-180 5.18601e-180 6.6496e-12 0 0 
ITEM: TIMESTEP
1500
ITEM: NUMBER OF ATOMS
10
ITEM: BOX BOUNDS ff ff ff
0 0.0001
0 0.0001
0 0.0001
ITEM: ATOMS id type diameter x y z vx vy vz fx fy fz 
9 4 8.79294e-07 6.43213e-05 5.14759e-05 7.04807e-07 1e-09 0 0 1.75225e-12 0 0 
1 1 1.20586e-06 6.46887e-05 5.06873e-05 1.37839e-06 1e-09 1.06111e-166 -1.30697e-166 4.69959e-12 0 0 
2 2 1.11854e-06 6.44271e-05 4.85112e-05 1.46464e-06 1e-09 -1.31467e-167 -2.02173e-167 4.63205e-12 0 0 
5 5 1.4839e-06 6.59058e-05 4.88283e-05 1.99937e-06 1e-09 0 0 8.3886e-12 0 0 
7 2 1.27176e-06 6.39954e-05 4.91159e-05 2.51521e-06 1e-09 -9.30855e-169 5.19124e-169 9.04421e-12 0 0 
4 4 1.04358e-06 6.35574e-05 5.01774e-05 1.92324e-06 1e-09 2.46397e-169 -1.37412e-169 5.67481e-12 0 0 
3 3 1.18261e-06 6.55712e-05 5.01527e-05 2.03682e-06 1e-09 -1.02794e-168 1.26611e-168 6.81061e-12 0 0 
10 4 8.68993e-07 6.42458e-05 5.0219e-05 2.68964e-06 1e-09 -2.69125e-180 4.80095e-181 6.60851e-12 0 0 
8 1 1.25031e-06 6.39234e-05 5.14004e-05 2.47889e-06 1e-09 8.33487e-169 -1.48686e-169 8.76333e-12 0 0 
6 4 9.01254e-07 6.45537e-05 5.2265e-05 2.6245e-06 1e-09 8.22659e-211 1.09389e-211 6.68785e-12 0 0 
ITEM: TIMESTEP
2000
ITEM: NUMBER OF ATOMS
10
ITEM: BOX BOUNDS ff ff ff
0 0.0001
0 0.0001
0 0.0001
ITEM: ATOMS id type diameter x y z vx vy vz fx fy fz 
9 4 8.76415e-07 6.91695e-05 5.15644e-05 6.30422e-07 1e-09 1.86099e-54 -1.54838e-54 1.56219e-12 0 0 
1 1 1.35791e-06 6.9441e-05 5.0639e-05 1.40037e-06 1e-09 -2.90768e-52 2.41925e-52 5.37655e-12 0 0 
2 2 1.18119e-06 6.94271e-05 4.85112e-05 1.46464e-06 1e-09 0 0 4.89151e-12 0 0 
5 5 1.4839e-06 7.08058e-05 4.87284e-05 1.9945e-06 1e-09 0 0 8.36817e-12 0 0 
7 2 1.34299e-06 6.89954e-05 4.91159e-05 2.51521e-06 1e-09 0 0 9.5508e-12 0 0 
4 4 1.04017e-06 6.84329e-05 5.0148e-05 1.95575e-06 1e-09 -1.2196e-53 1.34887e-53 5.75187e-12 0 0 
3 3 1.23903e-06 7.04884e-05 5.01766e-05 2.08751e-06 1e-09 0 0 7.31309e-12 0 0 
10 4 8.66148e-07 6.92458e-05 5.0219e-05 2.68964e-06 1e-09 0 0 6.58688e-12 0 0 
8 1 1.40797e-06 6.8765e-05 5.13204e-05 2.46541e-06 1e-09 0 0 9.81466e-12 0 0 
6 4 8.98304e-07 6.9512e-05 5.2345e-05 2.63799e-06 1e-09 0 0 6.7002e-12 0 0 
ITEM: TIMESTEP
2500
ITEM: NUMBER OF ATOMS
14
ITEM: BOX BOUNDS ff ff ff
0 0.0001
0 0.0001
0 0.0001
ITEM: ATOMS id type diameter x y z vx vy vz fx fy fz 
9 4 8.73546e-07 7.41069e-05 5.16111e-05 5.92831e-07 1e-09 4.02054e-173 -3.1997e-173 1.46423e-12 0 0 
2 2 1.24735e-06 7.44072e-05 4.84971e-05 1.44015e-06 1e-09 -4.54802e-138 -7.90042e-138 5.07911e-12 0 0 
14 4 8.07486e-07 7.29701e-05 5.09896e-05 1.31865e-06 1e-09 3.74627e-178 -3.39422e-179 3.01062e-12 0 0 
1 1 1.52913e-06 7.41491e-05 5.0664e-05 1.3466e-06 1e-09 -4.56522e-164 3.63318e-164 5.82207e-12 0 0 
5 5 1.4839e-06 7.58058e-05 4.87284e-05 1.9945e-06 1e-09 0 0 8.36817e-12 0 0 
4 4 1.03676e-06 7.30199e-05 4.99377e-05 1.8202e-06 1e-09 -3.91971e-140 -2.02963e-140 5.33567e-12 0 0 
13 4 1.00093e-06 7.34598e-05 5.21731e-05 1.83841e-06 1e-09 1.1402e-268 -1.30921e-268 5.20279e-12 0 0 
3 3 1.29814e-06 7.53571e-05 5.01182e-05 1.88933e-06 1e-09 0 0 6.9346e-12 0 0 
11 1 1.18352e-06 7.28364e-05 5.1081e-05 2.41221e-06 1e-09 3.05599e-140 1.58239e-140 8.07206e-12 0 0 
7 2 1.41822e-06 7.39553e-05 4.913e-05 2.5397e-06 1e-09 2.77987e-139 4.82895e-139 1.0184e-11 0 0 
10 4 8.63312e-07 7.36079e-05 5.02079e-05 2.70238e-06 1e-09 0 0 6.59641e-12 0 0 
12 4 1.03966e-06 7.46264e-05 5.02404e-05 2.84723e-06 1e-09 0 0 8.36963e-12 0 0 
8 1 1.32533e-06 7.4065e-05 5.15012e-05 2.62323e-06 1e-09 1.43037e-255 7.22184e-256 9.82996e-12 0 0 
6 4 8.95363e-07 7.42785e-05 5.26285e-05 2.65558e-06 1e-09 0 0 6.72282e-12 0 0 
ITEM: TIMESTEP
3000
ITEM: NUMBER OF ATOMS
16
ITEM: BOX BOUNDS ff ff ff
0 0.0001
0 0.0001
0 0.0001
ITEM: ATOMS id type diameter x y z vx vy vz fx fy fz 
9 4 8.70686e-07 7.87142e-05 5.19117e-05 5.16121e-07 1e-09 0 0 1.27059e-12 0 0 
2 2 1.31722e-06 7.92752e-05 4.83489e-05 1.3049e-06 1e-09 0 0 4.8599e-12 0 0 
14 4 8.04842e-07 7.67727e-05 5.11843e-05 1.72544e-06 1e-09 0 0 3.92648e-12 0 0 
1 1 1.27838e-06 7.86473e-05 5.03923e-05 1.9254e-06 1e-09 -1.79241e-167 -1.25014e-167 6.95941e-12 0 0 
5 5 1.4839e-06 8.08058e-05 4.87284e-05 1.9945e-06 1e-09 0 0 8.36817e-12 0 0 
4 4 1.03337e-06 7.75494e-05 4.98243e-05 1.78877e-06 1e-09 -2.46132e-169 -6.37487e-170 5.22637e-12 0 0 
13 4 9.9765e-07 7.82984e-05 5.22329e-05 1.76178e-06 1e-09 3.25966e-177 -4.23013e-177 4.9696e-12 0 0 
3 3 1.36007e-06 8.03571e-05 5.01182e-05 1.88933e-06 1e-09 0 0 7.26544e-12 0 0 
11 1 1.33276e-06 7.75599e-05 5.107e-05 2.58486e-06 1e-09 -6.73261e-169 -1.82122e-169 9.74049e-12 0 0 
7 2 1.12242e-06 7.86419e-05 4.91288e-05 2.05723e-06 1e-09 -6.5864e-169 6.59009e-170 6.52879e-12 0 0 
10 4 8.60486e-07 7.82865e-05 5.01482e-05 2.9265e-06 1e-09 0 0 7.12007e-12 0 0 
12 4 1.03626e-06 7.9587e-05 5.02267e-05 2.92042e-06 1e-09 0 0 8.55669e-12 0 0 
8 1 1.49244e-06 7.89054e-05 5.15234e-05 2.71404e-06 1e-09 1.22169e-167 8.31194e-168 1.14527e-11 0 0 
6 4 8.92431e-07 7.91993e-05 5.27263e-05 2.65623e-06 1e-09 0 0 6.70243e-12 0 0 
15 1 1.4449e-06 7.55349e-05 5.07493e-05 7.15421e-07 2.07919e-15 0 1e-09 2.92275e-12 0 1.40572e-06 
16 2 1.24829e-06 7.87324e-05 4.91426e-05 3.26855e-06 1e-09 0 0 1.15362e-11 0 0 
ITEM: TIMESTEP
3500
ITEM: NUMBER OF ATOMS
24
ITEM: BOX BOUNDS ff ff ff
0 0.0001
0 0.0001
0 0.0001
ITEM: ATOMS id type diameter x y z vx vy vz fx fy fz 
22 4 8.92289e-07 7.93289e-05 5.13341e-05 5.27206e-07 1e-09 0 0 1.33008e-12 0 0 
15 1 1.27522e-06 7.5935e-05 5.02531e-05 6.35467e-07 5.34165e-15 0 1e-09 2.29124e-12 0 4.28939e-07 
23 4 9.19819e-07 8.4176e-05 5.12255e-05 9.15356e-07 1e-09 0 0 2.38059e-12 0 0 
9 4 8.67835e-07 8.35728e-05 5.19756e-05 4.78958e-07 1e-09 0 0 1.17524e-12 0 0 
24 4 9.37862e-07 7.98114e-05 5.21042e-05 8.37309e-07 1e-09 0 0 2.22033e-12 0 0 
2 2 1.391e-06 8.41658e-05 4.81579e-05 1.16775e-06 1e-09 0 0 4.59269e-12 0 0 
18 1 1.30723e-06 8.0392e-05 5.11717e-05 1.43126e-06 1e-09 0 0 5.29009e-12 0 0 
5 5 1.4839e-06 8.58058e-05 4.87284e-05 1.9945e-06 1e-09 0 0 8.36817e-12 0 0 
4 4 1.02998e-06 8.2202e-05 4.97172e-05 1.6859e-06 1e-09 0 0 4.90969e-12 0 0 
1 1 1.43957e-06 8.33233e-05 5.01882e-05 1.97219e-06 1e-09 0 0 8.02742e-12 0 0 
3 3 1.42496e-06 8.53571e-05 5.01182e-05 1.88933e-06 1e-09 0 0 7.61206e-12 0 0 
14 4 8.02207e-07 8.16727e-05 5.11956e-05 1.62607e-06 1e-09 0 0 3.68824e-12 0 0 
20 4 1.0082e-06 8.26916e-05 5.1204e-05 1.50223e-06 1e-09 -1.84323e-55 -2.19595e-55 4.28228e-12 0 0 
17 1 1.37636e-06 8.35763e-05 5.17236e-05 2.12132e-06 1e-09 5.24518e-53 6.24891e-53 8.25527e-12 0 0 
13 4 9.94384e-07 8.27334e-05 5.24808e-05 1.65833e-06 1e-09 1.24496e-237 -8.18688e-238 4.66249e-12 0 0 
7 2 1.18529e-06 8.31978e-05 4.89198e-05 1.63262e-06 1e-09 0 0 5.47147e-12 0 0 
19 4 1.082e-06 8.2699e-05 4.93043e-05 2.69343e-06 1e-09 0 0 8.23998e-12 0 0 
10 4 8.57669e-07 8.29516e-05 5.01888e-05 3.14968e-06 1e-09 -1.26973e-56 5.41844e-57 7.63798e-12 0 0 
12 4 1.03286e-06 8.4587e-05 5.02267e-05 2.92042e-06 1e-09 0 0 8.52867e-12 0 0 
11 1 1.50081e-06 8.2193e-05 5.10874e-05 2.76623e-06 1e-09 6.6613e-53 -2.84264e-53 1.17384e-11 0 0 
6 4 8.8951e-07 8.41993e-05 5.27263e-05 2.65623e-06 1e-09 0 0 6.68048e-12 0 0 
16 2 1.31821e-06 8.34077e-05 4.90641e-05 3.7174e-06 1e-09 0 0 1.38553e-11 0 0 
8 1 1.28859e-06 8.39832e-05 5.15378e-05 3.41519e-06 1e-09 6.29083e-54 -8.77168e-54 1.24429e-11 0 0 
21 4 9.45178e-07 8.29765e-05 5.11484e-05 3.9581e-06 1e-09 -5.08403e-57 7.08896e-57 1.05777e-11 0 0 
ITEM: TIMESTEP
4000
ITEM: NUMBER OF ATOMS
29
ITEM: BOX BOUNDS ff ff ff
0 0.0001
0 0.0001
0 0.0001
ITEM: ATOMS id type diameter x y z vx vy vz fx fy fz 
22 4 8.89368e-07 8.42973e-05 5.13378e-05 5.11337e-07 1e-09 2.08936e-202 -9.11351e-202 1.28582e-12 0 0 
15 1 1.43602e-06 7.6015e-05 5.02531e-05 7.15467e-07 5.70916e-15 0 1e-09 2.90498e-12 0 5.08828e-07 
23 4 9.16807e-07 8.9176e-05 5.12255e-05 9.15356e-07 1e-09 0 0 2.37279e-12 0 0 
9 4 8.64994e-07 8.85728e-05 5.19756e-05 4.78958e-07 1e-09 0 0 1.17139e-12 0 0 
24 4 9.34792e-07 8.47356e-05 5.21533e-05 8.0655e-07 1e-09 0 0 2.13176e-12 0 0 
2 2 1.20949e-06 8.87897e-05 4.84376e-05 6.74981e-07 1e-09 0 0 2.30826e-12 0 0 
18 1 1.47207e-06 8.49998e-05 5.11177e-05 1.47098e-06 1e-09 -1.10122e-193 4.80337e-193 6.12249e-12 0 0 
5 5 1.4839e-06 9.07246e-05 4.86019e-05 1.95265e-06 1e-09 0 0 8.19261e-12 0 0 
4 4 1.02661e-06 8.68765e-05 4.96513e-05 1.54917e-06 1e-09 -1.52021e-24 -2.39841e-24 4.49673e-12 0 0 
1 1 1.30011e-06 8.7709e-05 5.01587e-05 2.34966e-06 1e-09 1.60749e-24 2.5361e-24 8.63729e-12 0 0 
3 3 1.1336e-06 9.04358e-05 5.04203e-05 1.34991e-06 1e-09 0 0 4.32672e-12 0 0 
14 4 7.99581e-07 8.61504e-05 5.11578e-05 1.38562e-06 1e-09 5.30888e-210 -1.01369e-209 3.13257e-12 0 0 
20 4 1.0049e-06 8.75721e-05 5.11774e-05 1.27505e-06 1e-09 0 0 3.62278e-12 0 0 
17 1 1.29729e-06 8.79598e-05 5.21361e-05 1.92964e-06 1e-09 1.15326e-224 -4.72225e-225 7.07793e-12 0 0 
13 4 9.91128e-07 8.69265e-05 5.26851e-05 1.51215e-06 1e-09 0 0 4.23756e-12 0 0 
7 2 1.25169e-06 8.80911e-05 4.89466e-05 1.68582e-06 1e-09 0 0 5.96623e-12 0 0 
19 4 1.07846e-06 8.73037e-05 4.90524e-05 2.78589e-06 1e-09 0 0 8.49494e-12 0 0 
10 4 8.54861e-07 8.75585e-05 5.01862e-05 3.47378e-06 1e-09 -1.58601e-25 -1.411e-26 8.39634e-12 0 0 
12 4 1.02948e-06 8.91755e-05 5.03687e-05 3.11734e-06 1e-09 0 0 9.07395e-12 0 0 
11 1 1.29158e-06 8.67445e-05 5.09407e-05 3.5409e-06 1e-09 1.77589e-24 1.57993e-25 1.29309e-11 0 0 
6 4 8.86597e-07 8.91993e-05 5.27263e-05 2.65623e-06 1e-09 0 0 6.65861e-12 0 0 
16 2 1.39205e-06 8.84077e-05 4.90641e-05 3.7174e-06 1e-09 0 0 1.46314e-11 0 0 
8 1 1.45108e-06 8.87128e-05 5.16599e-05 3.53082e-06 1e-09 1.84105e-227 4.49384e-227 1.44863e-11 0 0 
21 4 9.42084e-07 8.77717e-05 5.10864e-05 4.11003e-06 1e-09 -2.27583e-244 2.45684e-244 1.09478e-11 0 0 
25 2 1.11873e-06 8.94074e-05 4.78729e-05 1.57647e-06 1e-09 0 0 4.98658e-12 0 0 
26 1 1.27293e-06 8.85434e-05 5.03577e-05 1.34324e-06 1e-09 -1.20162e-222 -1.46096e-222 4.83449e-12 0 0 
27 3 1.23219e-06 8.99062e-05 4.97579e-05 2.27325e-06 1e-09 0 0 7.91985e-12 0 0 
28 1 1.15479e-06 8.86117e-05 5.11398e-05 2.3215e-06 1e-09 -2.47683e-227 -4.76752e-228 7.57994e-12 0 0 
29 1 1.38777e-06 8.68392e-05 5.1328e-05 2.23378e-06 1e-09 0 0 8.76495e-12 0 0 
ITEM: TIMESTEP
4500
ITEM: NUMBER OF ATOMS
45
ITEM: BOX BOUNDS ff ff ff
0 0.0001
0 0.0001
0 0.0001
ITEM: ATOMS id type diameter x y z vx vy vz fx fy fz 
9 4 8.62162e-07 9.35728e-05 5.19756e-05 4.78958e-07 1e-09 0 0 1.16756e-12 0 0 
2 2 1.27723e-06 9.37897e-05 4.84376e-05 6.74981e-07 1e-09 0 0 2.43756e-12 0 0 
30 1 1.24281e-06 7.61517e-05 5.0176e-05 6.17916e-07 3.11082e-15 0 1e-09 2.17134e-12 0 6.97996e-07 
43 4 9.25388e-07 8.19684e-05 5.0431e-05 9.96211e-07 1e-09 0 0 2.60656e-12 0 0 
35 4 9.69039e-07 7.96974e-05 5.12552e-05 7.41252e-07 1e-09 0 0 2.03095e-12 0 0 
36 4 1.03208e-06 8.82229e-05 5.0705e-05 5.71148e-07 1e-09 0 0 1.66669e-12 0 0 
22 4 8.86456e-07 8.92186e-05 5.13558e-05 4.50876e-07 1e-09 0 0 1.13007e-12 0 0 
23 4 9.13805e-07 9.4176e-05 5.12255e-05 9.15356e-07 1e-09 0 0 2.36503e-12 0 0 
24 4 9.31731e-07 8.97356e-05 5.21533e-05 8.0655e-07 1e-09 0 0 2.12478e-12 0 0 
15 1 1.32174e-06 8.07053e-05 5.02983e-05 1.75907e-06 1e-09 0 0 6.57389e-12 0 0 
26 1 1.43344e-06 9.31847e-05 5.0461e-05 9.53643e-07 1e-09 0 0 3.86508e-12 0 0 
3 3 1.18769e-06 9.54358e-05 5.04203e-05 1.34991e-06 1e-09 0 0 4.53313e-12 0 0 
18 1 1.39076e-06 8.83729e-05 5.11476e-05 1.69607e-06 1e-09 1.08889e-280 -2.79504e-281 6.66941e-12 0 0 
31 1 1.23095e-06 8.97277e-05 5.10149e-05 1.73013e-06 1e-09 -7.22086e-283 1.85351e-283 6.02162e-12 0 0 
14 4 7.96963e-07 9.05927e-05 5.13494e-05 1.13759e-06 1e-09 0 0 2.5634e-12 0 0 
38 4 1.03713e-06 9.14817e-05 5.07327e-05 1.08304e-06 1e-09 0 0 3.17592e-12 0 0 
20 4 1.00161e-06 9.21891e-05 5.15059e-05 8.78886e-07 1e-09 6.53095e-85 -3.13622e-84 2.48898e-12 0 0 
25 2 1.18139e-06 9.44074e-05 4.78729e-05 1.57647e-06 1e-09 0 0 5.2659e-12 0 0 
7 2 1.3218e-06 9.29169e-05 4.87829e-05 1.64157e-06 1e-09 -0 -0 6.13503e-12 0 0 
5 5 1.4839e-06 9.57246e-05 4.86019e-05 1.95265e-06 1e-09 0 0 8.19261e-12 0 0 
4 4 1.02325e-06 9.17488e-05 4.95947e-05 1.43232e-06 1e-09 -1.57227e-24 -3.73192e-24 4.14394e-12 0 0 
44 4 9.05405e-07 9.07668e-05 5.00665e-05 1.71559e-06 1e-09 0 0 4.39185e-12 0 0 
41 4 9.70386e-07 9.27793e-05 4.99135e-05 1.94392e-06 1e-09 0 0 5.33352e-12 0 0 
29 1 1.26837e-06 9.13196e-05 5.13381e-05 2.05969e-06 1e-09 0 0 7.38655e-12 0 0 
42 4 9.2461e-07 9.24098e-05 5.13068e-05 1.8349e-06 1e-09 -7.39931e-87 3.55322e-86 4.79693e-12 0 0 
17 1 1.46087e-06 9.2304e-05 5.25122e-05 1.90808e-06 1e-09 -1.92661e-280 3.33955e-280 7.88134e-12 0 0 
13 4 9.87883e-07 9.12241e-05 5.28228e-05 1.36961e-06 1e-09 2.98376e-297 -5.17199e-297 3.82555e-12 0 0 
40 4 9.97136e-07 9.37346e-05 4.97757e-05 2.65848e-06 1e-09 0 0 7.49514e-12 0 0 
27 3 1.29097e-06 9.48773e-05 4.97114e-05 2.20093e-06 1e-09 0 0 8.03368e-12 0 0 
1 1 1.46405e-06 9.16606e-05 5.00882e-05 2.61467e-06 1e-09 -2.07928e-24 5.30828e-26 1.08234e-11 0 0 
39 4 9.99142e-07 9.05528e-05 5.06567e-05 2.60015e-06 1e-09 1.94762e-25 -4.97215e-27 7.34545e-12 0 0 
28 1 1.30041e-06 9.3174e-05 5.08215e-05 2.5791e-06 1e-09 -2.56563e-82 4.00288e-82 9.48287e-12 0 0 
19 4 1.07493e-06 9.16573e-05 4.8795e-05 2.58553e-06 1e-09 0 0 7.85818e-12 0 0 
45 4 8.17933e-07 9.00749e-05 5.02802e-05 3.31317e-06 1e-09 0 0 7.66221e-12 0 0 
34 1 1.21103e-06 9.06552e-05 5.20317e-05 2.97894e-06 1e-09 0 0 1.02002e-11 0 0 
8 1 1.37791e-06 9.29136e-05 5.20352e-05 3.15913e-06 1e-09 -1.87662e-285 4.90425e-285 1.23078e-11 0 0 
6 4 8.83695e-07 9.41993e-05 5.27263e-05 2.65623e-06 1e-09 0 0 6.63681e-12 0 0 
16 2 1.22147e-06 9.31447e-05 4.82978e-05 3.4243e-06 1e-09 -1.34199e-170 2.56011e-172 1.18262e-11 0 0 
37 4 1.06469e-06 9.25065e-05 4.93603e-05 3.40403e-06 1e-09 1.5313e-179 -2.92126e-181 1.02473e-11 0 0 
10 4 8.52062e-07 9.2225e-05 5.02353e-05 3.76398e-06 1e-09 0 0 9.06799e-12 0 0 
12 4 1.02611e-06 9.38272e-05 5.04789e-05 3.51438e-06 1e-09 0 0 1.01962e-11 0 0 
11 1 1.45444e-06 9.12704e-05 5.10195e-05 3.74187e-06 1e-09 1.92179e-24 2.35608e-24 1.53879e-11 0 0 
32 2 1.10637e-06 9.34613e-05 4.94938e-05 4.01674e-06 1e-09 0 0 1.25651e-11 0 0 
21 4 9.38999e-07 9.27717e-05 5.10864e-05 4.11003e-06 1e-09 0 0 1.0912e-11 0 0 
33 1 1.20438e-06 9.38161e-05 5.17303e-05 4.1901e-06 1e-09 0 0 1.42685e-11 0 0 
ITEM: TIMESTEP
5000
ITEM: NUMBER OF ATOMS
54
ITEM: BOX BOUNDS ff ff ff
0 0.0001
0 0.0001
0 0.0001
ITEM: ATOMS id type diameter x y z vx vy vz fx fy fz 
9 4 8.59339e-07 9.83225e-05 5.20642e-05 4.29948e-07 1e-09 1.33321e-24 -9.85632e-25 1.04465e-12 0 0 
2 2 1.34878e-06 9.84361e-05 4.84645e-05 6.82176e-07 1e-09 -1.94318e-273 -1.0768e-272 2.60153e-12 0 0 
30 1 1.39952e-06 7.62317e-05 5.0176e-05 6.97916e-07 7.4802e-15 0 1e-09 2.7617e-12 0 3.69201e-07 
43 4 9.22358e-07 8.69684e-05 5.0431e-05 9.96211e-07 1e-09 0 0 2.59802e-12 0 0 
35 4 9.65867e-07 8.46974e-05 5.12552e-05 7.41252e-07 1e-09 0 0 2.0243e-12 0 0 
36 4 1.0287e-06 9.2838e-05 5.04836e-05 6.11265e-07 1e-09 -1.31844e-171 2.35621e-172 1.77792e-12 0 0 
22 4 8.83554e-07 9.32512e-05 5.13711e-05 4.58865e-07 1e-09 -1.17222e-83 -1.252e-83 1.14633e-12 0 0 
23 4 9.10814e-07 9.8786e-05 5.14107e-05 9.16636e-07 1e-09 8.09739e-25 -2.41629e-25 2.36058e-12 0 0 
24 4 9.28681e-07 9.41284e-05 5.265e-05 7.65088e-07 1e-09 7.34429e-144 -1.35377e-144 2.00896e-12 0 0 
15 1 1.48841e-06 8.57053e-05 5.02983e-05 1.75907e-06 1e-09 0 0 7.40283e-12 0 0 
26 1 1.35482e-06 9.43134e-05 5.00395e-05 6.74127e-07 3.28936e-15 5.48151e-10 8.36379e-10 2.58235e-12 4.30333e-07 6.5661e-07 
3 3 1.24435e-06 9.93771e-05 5.05325e-05 1.17868e-06 1e-09 -5.87683e-24 1.75367e-24 4.14695e-12 0 0 
18 1 1.31864e-06 9.21071e-05 5.16325e-05 2.56114e-06 1e-09 5.01935e-82 3.6735e-82 9.54888e-12 0 0 
31 1 1.38617e-06 9.28426e-05 5.06341e-05 1.8982e-06 1e-09 -4.42022e-53 8.24384e-53 7.43963e-12 0 0 
14 4 7.94354e-07 9.3882e-05 5.18058e-05 9.23155e-07 1e-09 1.22707e-85 1.31059e-85 2.07339e-12 0 0 
38 4 1.03373e-06 9.38663e-05 5.09488e-05 1.33077e-06 1e-09 6.71914e-25 4.85213e-25 3.88958e-12 0 0 
20 4 9.98328e-07 9.70305e-05 5.15175e-05 7.86874e-07 1e-09 0 0 2.22111e-12 0 0 
25 2 1.24757e-06 9.85237e-05 4.74336e-05 1.50566e-06 1e-09 -4.65035e-24 -1.86309e-24 5.31109e-12 0 0 
7 2 1.39583e-06 9.75194e-05 4.86203e-05 1.70401e-06 1e-09 -3.72956e-251 -5.20011e-252 6.72507e-12 0 0 
5 5 1.4839e-06 9.92081e-05 4.85492e-05 1.95485e-06 1e-09 -6.01517e-24 -1.7082e-24 8.20182e-12 0 0 
4 4 1.0199e-06 9.63254e-05 4.93634e-05 1.55583e-06 1e-09 0 0 4.48653e-12 0 0 
44 4 9.02441e-07 9.52332e-05 4.99381e-05 1.70301e-06 1e-09 -8.14291e-56 -1.26038e-55 4.34538e-12 0 0 
41 4 9.67209e-07 9.73213e-05 4.98245e-05 1.87191e-06 1e-09 4.47654e-269 6.24162e-270 5.11916e-12 0 0 
29 1 1.42831e-06 9.54731e-05 5.16347e-05 1.99801e-06 1e-09 0 0 8.06885e-12 0 0 
42 4 9.21583e-07 9.70365e-05 5.14517e-05 1.75775e-06 1e-09 0 0 4.58019e-12 0 0 
17 1 1.28457e-06 9.63695e-05 5.25751e-05 2.41632e-06 1e-09 -5.85593e-54 -5.14904e-53 8.77616e-12 0 0 
13 4 9.84649e-07 9.61526e-05 5.28356e-05 1.31212e-06 1e-09 1.17462e-55 -5.30355e-55 3.65298e-12 0 0 
40 4 9.93871e-07 9.81895e-05 4.9665e-05 2.74877e-06 1e-09 -2.10959e-87 3.4532e-87 7.72433e-12 0 0 
27 3 1.35256e-06 9.92652e-05 4.99507e-05 2.35286e-06 1e-09 4.15212e-24 1.17912e-24 8.99798e-12 0 0 
1 1 1.25993e-06 9.56578e-05 4.95478e-05 3.01857e-06 1e-09 0 0 1.07533e-11 0 0 
39 4 9.95871e-07 9.48841e-05 5.05062e-05 2.48533e-06 1e-09 2.39565e-56 -8.37605e-56 6.9981e-12 0 0 
28 1 1.46438e-06 9.77105e-05 5.08356e-05 2.55801e-06 1e-09 4.07674e-254 2.92264e-254 1.05913e-11 0 0 
19 4 1.07141e-06 9.66071e-05 4.87182e-05 2.56046e-06 1e-09 0 0 7.75648e-12 0 0 
45 4 8.15255e-07 9.48431e-05 5.02201e-05 3.48589e-06 1e-09 -2.61323e-57 9.13679e-57 8.03526e-12 0 0 
34 1 1.36373e-06 9.50553e-05 5.23384e-05 3.1464e-06 1e-09 0 0 1.21321e-11 0 0 
8 1 1.20467e-06 9.76837e-05 5.26606e-05 2.57034e-06 1e-09 1.56666e-170 2.32829e-170 8.75491e-12 0 0 
6 4 8.80801e-07 9.91993e-05 5.27263e-05 2.65623e-06 1e-09 0 0 6.61508e-12 0 0 
16 2 1.28988e-06 9.81447e-05 4.82978e-05 3.4243e-06 1e-09 0 0 1.24886e-11 0 0 
37 4 1.0612e-06 9.74553e-05 4.93514e-05 3.42324e-06 1e-09 -1.95087e-87 4.18227e-87 1.02714e-11 0 0 
10 4 8.49272e-07 9.7225e-05 5.02353e-05 3.76398e-06 1e-09 0 0 9.0383e-12 0 0 
12 4 1.02275e-06 9.88272e-05 5.04789e-05 3.51438e-06 1e-09 0 0 1.01628e-11 0 0 
11 1 1.2399e-06 9.56738e-05 5.12028e-05 3.30657e-06 1e-09 6.4224e-83 6.8358e-83 1.1592e-11 0 0 
32 2 1.16834e-06 9.84613e-05 4.94938e-05 4.01674e-06 1e-09 0 0 1.32689e-11 0 0 
21 4 9.35925e-07 9.73471e-05 5.09202e-05 4.36151e-06 1e-09 0 0 1.15417e-11 0 0 
33 1 1.35624e-06 9.85874e-05 5.18203e-05 4.35693e-06 1e-09 1.43176e-24 5.95119e-25 1.67074e-11 0 0 
46 1 1.19795e-06 9.81059e-05 5.0517e-05 1.08441e-06 1e-09 -1.36176e-25 -5.31045e-25 3.67303e-12 0 0 
47 1 1.1569e-06 9.18284e-05 5.1144e-05 1.18518e-06 1e-09 3.4335e-81 -4.72606e-81 3.87677e-12 0 0 
48 1 1.32617e-06 9.7548e-05 5.25059e-05 1.2918e-06 1e-09 0 0 4.84378e-12 0 0 
49 1 1.35379e-06 9.6315e-05 5.04452e-05 2.26026e-06 1e-09 -1.852e-110 -2.59565e-110 8.65167e-12 0 0 
50 1 1.2573e-06 9.7157e-05 5.16649e-05 3.54632e-06 1e-09 2.10958e-258 2.50202e-258 1.26069e-11 0 0 
51 1 1.35492e-06 9.61121e-05 5.07418e-05 4.5202e-06 1e-09 0 0 1.73166e-11 0 0 
52 4 9.08846e-07 9.85378e-05 5.19236e-05 2.71712e-06 1e-09 0 0 6.9822e-12 0 0 
53 4 9.65035e-07 9.94958e-05 5.10644e-05 4.04273e-06 1e-09 5.8311e-26 2.42373e-26 1.10309e-11 0 0 
54 4 9.58404e-07 9.67189e-05 5.2707e-05 3.57666e-06 1e-09 2.51595e-57 2.21224e-56 9.69212e-12 0 0 
ITEM: TIMESTEP
5500
ITEM: NUMBER OF ATOMS
77
ITEM: BOX BOUNDS ff ff ff
0 0.0001
0 0.0001
0 0.0001
ITEM: ATOMS id type diameter x y z vx vy vz fx fy fz 
61 4 8.97726e-07 8.19218e-05 4.92034e-05 5.31677e-07 1e-09 -3.34236e-202 -1.91e-202 1.34954e-12 0 0 
22 4 8.80661e-07 9.68424e-05 5.11677e-05 4.46245e-07 1e-09 -1.26179e-24 -4.10189e-25 1.11115e-12 0 0 
9 4 8.56526e-07 9.94972e-05 5.24141e-05 4.40786e-07 2.49639e-15 -4.20473e-10 -9.07305e-10 1.06748e-12 -1.79798e-07 -3.87972e-07 
2 2 1.42432e-06 9.92828e-05 4.86004e-05 7.23934e-07 1e-09 2.95497e-24 1.26122e-23 2.91541e-12 0 0 
30 1 1.21981e-06 8.09054e-05 4.96314e-05 7.76249e-07 1e-09 7.02904e-192 4.01675e-192 2.67723e-12 0 0 
62 4 9.4563e-07 9.12484e-05 4.97236e-05 8.48917e-07 1e-09 0 0 2.26975e-12 0 0 
63 4 1.12591e-06 9.67019e-05 4.97602e-05 5.58847e-07 2.16282e-15 -3.97686e-11 9.99209e-10 1.77906e-12 -3.27122e-08 8.21912e-07 
43 4 9.19338e-07 9.19361e-05 5.04993e-05 1.00663e-06 1e-09 0 0 2.6166e-12 0 0 
36 4 1.02533e-06 9.5996e-05 5.06837e-05 5.10982e-07 4.37045e-15 1.06732e-10 9.94288e-10 1.48137e-12 3.61771e-08 3.37015e-07 
26 1 1.52566e-06 9.66881e-05 5.07664e-05 1.61662e-06 2.46717e-14 -9.5662e-10 2.91338e-10 6.9736e-12 -2.70394e-07 8.23481e-08 
35 4 9.62704e-07 8.93526e-05 5.11565e-05 7.64052e-07 1e-09 0 0 2.07974e-12 0 0 
23 4 9.07832e-07 9.95413e-05 5.1557e-05 1.41379e-06 1e-09 5.99646e-25 2.19518e-25 3.62895e-12 0 0 
74 4 8.97667e-07 9.02837e-05 5.17234e-05 6.15051e-07 1e-09 0 0 1.56106e-12 0 0 
75 4 9.14716e-07 9.61646e-05 5.17772e-05 6.44377e-07 1e-09 9.42705e-25 3.06459e-25 1.66655e-12 0 0 
14 4 7.91753e-07 9.69816e-05 5.22603e-05 4.62304e-07 1e-09 3.27998e-54 -9.71784e-55 1.03493e-12 0 0 
20 4 9.95059e-07 9.91383e-05 5.15336e-05 5.0223e-07 1e-09 -1.78535e-24 1.2151e-24 1.41301e-12 0 0 
24 4 9.2564e-07 9.73774e-05 5.29019e-05 9.78797e-07 1e-09 3.81118e-25 -7.51936e-25 2.56169e-12 0 0 
71 4 1.10877e-06 9.83198e-05 5.29126e-05 5.53927e-07 1.89758e-14 -2.78716e-11 9.99612e-10 1.73655e-12 -2.55064e-09 9.14784e-08 
58 2 1.21366e-06 9.8365e-05 4.75644e-05 8.46649e-07 1e-09 4.43389e-24 -4.81165e-24 2.90531e-12 0 0 
55 1 1.28046e-06 8.12894e-05 5.07636e-05 1.17319e-06 1e-09 0 0 4.24743e-12 0 0 
38 4 1.03035e-06 9.65621e-05 5.21235e-05 1.47857e-06 1e-09 2.98771e-25 2.73215e-25 4.30744e-12 0 0 
46 1 1.349e-06 9.80628e-05 5.05056e-05 6.69449e-07 2.71598e-15 1.35311e-13 1e-09 2.55342e-12 1.27212e-10 9.40148e-07 
3 3 1.30371e-06 9.93377e-05 5.0505e-05 1.03059e-06 1.84283e-15 9.95935e-10 -9.00733e-11 3.79894e-12 2.05309e-06 -1.85683e-07 
47 1 1.30277e-06 9.48952e-05 5.09813e-05 9.12695e-07 1e-09 9.01287e-25 -1.04396e-24 3.36192e-12 0 0 
59 1 1.27386e-06 9.75928e-05 5.16749e-05 1.0648e-06 6.4474e-15 8.54688e-10 -5.19143e-10 3.83515e-12 5.08399e-07 -3.08805e-07 
13 4 9.81425e-07 9.81371e-05 5.35043e-05 1.54813e-06 1e-09 3.32995e-25 3.57031e-26 4.29593e-12 0 0 
48 1 1.49339e-06 9.92523e-05 5.28963e-05 1.48139e-06 1.46281e-14 4.20473e-10 9.07305e-10 6.25511e-12 1.79798e-07 3.87972e-07 
25 2 1.31745e-06 9.93094e-05 4.69745e-05 1.48459e-06 1e-09 -3.7267e-24 2.61245e-24 5.53009e-12 0 0 
5 5 1.4839e-06 9.92545e-05 4.81968e-05 2.19107e-06 1.32445e-13 -8.86577e-10 -4.62581e-10 9.1929e-12 -6.15368e-08 -3.21075e-08 
4 4 1.01656e-06 9.80373e-05 4.88156e-05 1.06264e-06 1e-09 3.4211e-24 -4.15792e-24 3.05429e-12 0 0 
15 1 1.29879e-06 9.10726e-05 4.9744e-05 2.02077e-06 1e-09 0 0 7.42076e-12 0 0 
44 4 8.99486e-07 9.75023e-05 4.96963e-05 1.2403e-06 1e-09 -1.01948e-25 -7.14848e-25 3.15439e-12 0 0 
41 4 9.64042e-07 9.87156e-05 4.95791e-05 1.146e-06 1.5097e-15 -9.92321e-10 1.23691e-10 3.12374e-12 -2.05322e-06 2.55929e-07 
77 4 9.11323e-07 9.84081e-05 4.89473e-05 2.58267e-06 9.58773e-14 8.86577e-10 4.62581e-10 6.65479e-12 6.15368e-08 3.21075e-08 
70 4 9.27727e-07 9.84754e-05 5.04293e-05 1.75036e-06 1e-09 3.42649e-25 -2.09754e-25 4.59136e-12 0 0 
56 1 1.36041e-06 9.02335e-05 5.08482e-05 1.59358e-06 1e-09 0 0 6.12965e-12 0 0 
57 1 1.2448e-06 9.54879e-05 5.13657e-05 2.07463e-06 1e-09 1.21438e-24 3.60287e-24 7.30186e-12 0 0 
42 4 9.18566e-07 9.86658e-05 5.18248e-05 1.31611e-06 1e-09 -7.83322e-26 -6.65949e-25 3.41819e-12 0 0 
76 4 8.9393e-07 9.7835e-05 5.2543e-05 1.68819e-06 1e-09 -1.74345e-25 4.19295e-25 4.26694e-12 0 0 
7 2 1.12266e-06 9.79464e-05 4.81137e-05 1.91563e-06 1e-09 -2.31455e-24 2.81305e-24 6.08066e-12 0 0 
27 3 1.41709e-06 9.92772e-05 4.96855e-05 2.20275e-06 1e-09 -3.82625e-24 8.77417e-25 8.82582e-12 0 0 
31 1 1.23301e-06 9.59172e-05 4.95141e-05 1.875e-06 1e-09 -1.00756e-81 -1.49481e-81 6.53674e-12 0 0 
49 1 1.52449e-06 9.75989e-05 4.98821e-05 2.45802e-06 6.2824e-14 -8.96195e-10 -4.4366e-10 1.0595e-11 -1.5114e-07 -7.48214e-08 
73 4 9.38861e-07 8.10398e-05 5.08074e-05 2.25485e-06 1e-09 0 0 5.98565e-12 0 0 
39 4 9.9261e-07 9.63376e-05 5.10456e-05 2.85982e-06 1.88524e-14 3.97026e-10 -9.17807e-10 8.02619e-12 1.69029e-07 -3.90746e-07 
60 1 1.30256e-06 9.80165e-05 5.13192e-05 2.25998e-06 6.28166e-15 -8.60619e-10 -5.09249e-10 8.3233e-12 -1.14033e-06 -6.74763e-07 
67 4 9.62745e-07 9.90024e-05 5.19372e-05 2.22293e-06 2.46973e-14 2.24051e-10 -9.74577e-10 6.05102e-12 5.48942e-08 -2.38779e-07 
17 1 1.44655e-06 9.83077e-05 5.27931e-05 2.77885e-06 1e-09 2.90203e-24 1.93654e-24 1.13655e-11 0 0 
19 4 1.0679e-06 9.82815e-05 4.80422e-05 3.0292e-06 1e-09 9.23584e-26 -2.01267e-25 9.14642e-12 0 0 
40 4 9.90617e-07 9.85861e-05 4.96674e-05 3.20271e-06 2.86093e-14 -2.77039e-10 9.60859e-10 8.97049e-12 -8.68658e-08 3.01278e-07 
64 4 8.81707e-07 9.60248e-05 5.01474e-05 2.8582e-06 1e-09 1.83696e-25 -1.37047e-25 7.1254e-12 0 0 
69 4 1.02271e-06 9.66551e-05 4.95596e-05 3.29669e-06 1e-09 -2.14273e-25 1.59859e-25 9.53284e-12 0 0 
18 1 1.48492e-06 9.57099e-05 5.20874e-05 3.2535e-06 1e-09 3.2883e-25 1.62939e-24 1.36599e-11 0 0 
29 1 1.27933e-06 9.6979e-05 5.19639e-05 2.64142e-06 7.21092e-15 8.60619e-10 5.09249e-10 9.55458e-12 1.14033e-06 6.74763e-07 
52 4 9.05871e-07 9.9542e-05 5.17667e-05 2.96446e-06 3.09903e-14 -2.24051e-10 9.74577e-10 7.59284e-12 -5.48942e-08 2.38779e-07 
8 1 1.35658e-06 9.93176e-05 5.37778e-05 2.65101e-06 1e-09 1.04444e-48 -1.11192e-49 1.01683e-11 0 0 
6 4 8.77918e-07 9.95256e-05 5.25986e-05 2.61028e-06 1.34454e-14 -1.57e-10 -9.87599e-10 6.47937e-12 -7.56585e-08 -4.75925e-07 
16 2 1.36213e-06 9.92916e-05 4.77395e-05 3.73671e-06 1e-09 -6.58654e-25 1.54193e-24 1.43913e-11 0 0 
37 4 1.05773e-06 9.84408e-05 4.82994e-05 4.43989e-06 1e-09 -1.72093e-25 2.85981e-26 1.32782e-11 0 0 
1 1 1.4188e-06 9.76734e-05 4.89513e-05 3.68625e-06 1e-09 -1.70688e-24 1.16011e-24 1.47876e-11 0 0 
45 4 8.12586e-07 9.86258e-05 5.00401e-05 4.18472e-06 1e-09 -9.91255e-26 -3.03993e-26 9.61452e-12 0 0 
11 1 1.39625e-06 9.72049e-05 5.07213e-05 3.60935e-06 3.34689e-14 -3.97026e-10 9.17807e-10 1.4249e-11 -1.69029e-07 3.90746e-07 
28 1 1.31505e-06 9.90026e-05 5.0796e-05 2.97369e-06 7.23534e-15 -7.28786e-10 -6.84741e-10 1.10569e-11 -1.11371e-06 -1.0464e-06 
34 1 1.53569e-06 9.69222e-05 5.33293e-05 3.05264e-06 1e-09 1.5566e-24 8.0393e-25 1.32547e-11 0 0 
66 4 1.06042e-06 9.81159e-05 5.28363e-05 4.04329e-06 1e-09 2.8252e-56 6.58374e-57 1.21228e-11 0 0 
10 4 8.46492e-07 9.93395e-05 5.05406e-05 4.33819e-06 1e-09 1.03765e-25 3.18221e-26 1.0383e-11 0 0 
12 4 1.0194e-06 9.94853e-05 4.99257e-05 3.60752e-06 1e-09 -4.86463e-26 -7.62408e-26 1.03979e-11 0 0 
65 4 9.00127e-07 9.77055e-05 5.1969e-05 4.80017e-06 1e-09 2.17667e-57 6.22902e-57 1.22167e-11 0 0 
50 1 1.41584e-06 9.82788e-05 5.1632e-05 3.75919e-06 9.84754e-15 7.28786e-10 6.84741e-10 1.50488e-11 1.11371e-06 1.0464e-06 
68 4 1.07584e-06 9.94108e-05 5.36789e-05 3.9529e-06 1e-09 3.63586e-119 1.71986e-119 1.20242e-11 0 0 
54 4 9.55266e-07 9.94445e-05 5.27416e-05 3.50955e-06 1.96702e-14 1.57e-10 9.87599e-10 9.47911e-12 7.56585e-08 4.75925e-07 
32 2 1.23378e-06 9.93775e-05 4.90369e-05 4.31733e-06 1e-09 -1.03872e-24 1.72613e-25 1.50607e-11 0 0 
21 4 9.32861e-07 9.95221e-05 5.09645e-05 5.13138e-06 1e-09 -6.07989e-27 7.68558e-27 1.35345e-11 0 0 
53 4 9.61875e-07 9.95027e-05 5.13666e-05 3.86494e-06 1e-09 2.12349e-25 -6.23398e-26 1.05112e-11 0 0 
33 1 1.52726e-06 9.92369e-05 5.22619e-05 4.69215e-06 1.33558e-13 -5.59543e-10 -8.28801e-10 2.02617e-11 -8.48869e-08 -1.25735e-07 
72 4 1.07673e-06 9.94084e-05 4.98266e-05 5.18072e-06 1e-09 3.99e-57 -5.14024e-57 1.57721e-11 0 0 
51 1 1.52577e-06 9.81986e-05 5.0834e-05 5.29635e-06 1e-09 -2.35477e-25 2.97666e-25 2.28485e-11 0 0 
ITEM: TIMESTEP
6000
ITEM: NUMBER OF ATOMS
102
ITEM: BOX BOUNDS ff ff ff
0 0.0001
0 0.0001
0 0.0001
ITEM: ATOMS id type diameter x y z vx vy vz fx fy fz 
61 4 8.94787e-07 8.69218e-05 4.92034e-05 5.31677e-07 1e-09 0 0 1.34512e-12 0 0 
22 4 8.77778e-07 9.70573e-05 5.11219e-05 4.71017e-07 1e-09 -1.30917e-24 1.2608e-24 1.169e-12 0 0 
9 4 8.53722e-07 9.95642e-05 5.2579e-05 4.35951e-07 1e-09 -1.79647e-24 -3.34071e-25 1.05232e-12 0 0 
2 2 1.18768e-06 9.94035e-05 4.8673e-05 1.72605e-06 1e-09 1.2309e-24 2.0582e-24 5.7962e-12 0 0 
30 1 1.37362e-06 8.19046e-05 4.95682e-05 6.84636e-07 6.11137e-15 0 1e-09 2.65901e-12 0 4.35092e-07 