ITEM: TIMESTEP
0
ITEM: NUMBER OF ATOMS
5
ITEM: BOX BOUNDS ff ff ff
0 0.0001
0 0.0001
0 0.0001
ITEM: ATOMS id type diameter x y z vx vy vz fx fy fz 
4 4 1.0539e-06 5e-05 5e-05 4.9e-05 0 0 0 0 0 -8.22e-06 
2 2 1.2839e-06 5e-05 4.9e-05 5e-05 0 0 0 0 -3.122e-05 0 
3 3 1.0283e-06 5e-05 5e-05 5e-05 0 0 0 0 2e-05 -4.3e-05 
1 1 1.0839e-06 5e-05 5.1e-05 5e-05 0 0 0 0 1.122e-05 0 
5 5 1.4839e-06 5e-05 5e-05 5.1e-05 0 0 0 0 0 5.122e-05 
ITEM: TIMESTEP
500
ITEM: NUMBER OF ATOMS
51
ITEM: BOX BOUNDS ff ff ff
0 0.0001
0 0.0001
0 0.0001
ITEM: ATOMS id type diameter x y z vx vy vz fx fy fz 
4 4 1.05045e-06 5e-05 4.97551e-05 4.40061e-05 0 -4.96498e-11 -9.98767e-10 0 0 0 
2 2 1.33813e-06 5e-05 4.40209e-05 5.04548e-05 0 -9.95754e-10 9.20511e-11 0 0 0 
3 3 1.06354e-06 4.88545e-05 4.66459e-05 4.73558e-05 -2.87022e-10 -8.59577e-10 -4.22783e-10 0 0 0 
1 1 1.79813e-06 4.98954e-05 4.87125e-05 4.915e-05 -9.5182e-10 -2.96023e-10 8.00616e-11 0 0 0 
5 5 1.4839e-06 5e-05 4.97956e-05 5.59958e-05 0 -4.14165e-11 9.99142e-10 0 0 0 
6 4 9.07185e-07 4.96718e-05 5.62888e-05 5.22819e-05 2.27571e-10 9.22075e-10 3.13031e-10 0 0 0 
7 1 2.15685e-06 5.12539e-05 5.42314e-05 5.03844e-05 -6.37003e-11 8.60033e-10 5.06247e-10 0 0 0 
8 4 9.51283e-07 4.74358e-05 5.38051e-05 4.72898e-05 -7.32196e-10 5.27853e-10 -4.30419e-10 0 0 0 
9 4 1.03091e-06 4.89331e-05 4.83755e-05 5.27199e-05 -3.76324e-10 -7.06105e-10 5.9983e-10 0 0 0 
10 1 1.77567e-06 5.13153e-05 5.0891e-05 5.09336e-05 -3.52442e-11 -8.47089e-10 -5.3028e-10 0 0 0 
11 1 2.10213e-06 4.73501e-05 5.40274e-05 4.97237e-05 -5.36889e-10 8.28343e-10 -1.59994e-10 0 0 0 
12 4 9.60915e-07 5.28758e-05 4.79444e-05 5.17096e-05 5.4195e-10 -6.61362e-10 5.18546e-10 0 0 0 
13 4 1.29846e-06 4.84964e-05 5.50239e-05 4.83057e-05 -5.15188e-10 2.46787e-10 -8.20779e-10 0 0 0 
14 4 9.88055e-07 5.05674e-05 5.08764e-05 4.75645e-05 -4.08637e-10 8.56382e-10 3.15635e-10 0 0 0 
15 4 1.16327e-06 4.62709e-05 5.15747e-05 5.09719e-05 -9.51673e-10 6.10843e-11 -3.00977e-10 0 0 0 
16 1 1.88631e-06 5.17808e-05 4.92989e-05 4.89914e-05 9.5182e-10 2.96023e-10 -8.00616e-11 0 0 0 
17 1 2.44466e-06 5.14201e-05 5.28252e-05 5.44971e-05 4.2008e-11 5.81203e-11 9.97425e-10 0 0 0 
18 1 2.09559e-06 4.94715e-05 5.06396e-05 4.88506e-05 -3.72658e-10 -5.44817e-10 -7.51199e-10 0 0 0 
19 1 2.13922e-06 4.77415e-05 5.30786e-05 5.1661e-05 -8.71569e-10 -3.70302e-10 3.21315e-10 0 0 0 
20 4 9.5966e-07 5.24969e-05 4.83361e-05 5.03516e-05 -2.80646e-10 -6.45865e-10 7.09998e-10 0 0 0 
21 4 1.30213e-06 4.96304e-05 5.38897e-05 5.09645e-05 -9.2374e-10 -1.79544e-10 3.38331e-10 0 0 0 
22 4 1.07734e-06 4.97423e-05 5.20818e-05 5.1264e-05 7.07955e-10 -5.15028e-11 7.04377e-10 0 0 0 
23 4 1.10703e-06 5.01672e-05 5.25728e-05 4.7813e-05 6.40132e-10 -1.08617e-10 -7.60548e-10 0 0 0 
24 4 1.16427e-06 5.07605e-05 5.18266e-05 4.6467e-05 -2.07043e-10 7.73791e-10 -5.9865e-10 0 0 0 
25 4 1.42327e-06 5.03564e-05 5.6012e-05 5.12614e-05 1.22654e-10 9.73474e-10 1.93146e-10 0 0 0 
26 4 1.23383e-06 4.84378e-05 4.9345e-05 4.74749e-05 -6.09625e-10 -7.48544e-10 -2.60844e-10 0 0 0 
27 4 1.23829e-06 4.87832e-05 5.2088e-05 5.37449e-05 -4.82345e-10 1.48493e-10 8.63303e-10 0 0 0 
28 1 1.6632e-06 5.02952e-05 4.85538e-05 5.09238e-05 2.34697e-10 -9.59018e-10 1.58752e-10 0 0 0 
29 1 2.11176e-06 5.31295e-05 5.46013e-05 4.89558e-05 8.53384e-10 5.07967e-10 1.17069e-10 0 0 0 
30 1 1.93009e-06 5.03013e-05 4.97184e-05 5.24823e-05 1.82081e-10 -9.43446e-10 2.77049e-10 0 0 0 
31 1 1.87123e-06 4.83498e-05 5.21831e-05 4.98785e-05 -7.07955e-10 5.15028e-11 -7.04377e-10 0 0 0 
32 1 2.02679e-06 5.12363e-05 4.94745e-05 4.70478e-05 4.08637e-10 -8.56382e-10 -3.15635e-10 0 0 0 
33 1 2.29867e-06 5.13938e-05 5.27773e-05 5.21145e-05 3.52442e-11 8.47089e-10 5.3028e-10 0 0 0 
34 1 1.85481e-06 5.22262e-05 5.11012e-05 4.93142e-05 2.79272e-10 9.46337e-10 1.62644e-10 0 0 0 
35 1 1.93764e-06 4.80189e-05 5.51324e-05 5.27895e-05 -6.42386e-13 8.43681e-10 5.36845e-10 0 0 0 
36 4 1.1562e-06 4.89855e-05 4.75439e-05 4.88796e-05 -6.68053e-10 -7.3263e-10 -1.30227e-10 0 0 0 
37 4 1.29253e-06 5.1142e-05 5.39675e-05 4.81415e-05 -1.14632e-10 6.70885e-10 -7.32648e-10 0 0 0 
38 4 1.13192e-06 5.1923e-05 5.06641e-05 5.25533e-05 3.55702e-10 -2.03878e-10 9.12091e-10 0 0 0 
39 4 1.41011e-06 4.71693e-05 5.23391e-05 4.85249e-05 -6.58699e-10 4.67067e-11 -7.50955e-10 0 0 0 
40 4 1.21504e-06 5.35873e-05 4.94121e-05 4.92373e-05 9.86012e-10 -4.55385e-11 1.60335e-10 0 0 0 
41 4 1.61262e-06 5.38099e-05 5.32586e-05 5.45872e-05 9.64226e-10 1.8276e-10 1.92006e-10 0 0 0 
42 4 1.37269e-06 4.99323e-05 5.00368e-05 5.06783e-05 -2.34697e-10 9.59018e-10 -1.58752e-10 0 0 0 
43 4 1.26195e-06 4.86261e-05 5.14097e-05 5.17011e-05 -8.94647e-10 -8.11344e-11 -4.39345e-10 0 0 0 
44 4 1.10444e-06 5.19126e-05 4.71035e-05 5.09911e-05 7.40713e-10 -6.71051e-10 3.2173e-11 0 0 0 
45 4 1.28874e-06 5.44068e-05 5.35511e-05 4.82201e-05 8.28481e-10 3.26524e-10 -4.54975e-10 0 0 0 
46 4 1.28492e-06 4.99332e-05 5.15283e-05 5.2343e-05 8.94647e-10 8.11344e-11 4.39345e-10 0 0 0 
47 4 1.26175e-06 5.01265e-05 5.15972e-05 5.01709e-05 3.72658e-10 5.44817e-10 7.51199e-10 0 0 0 
48 4 1.33837e-06 5.20794e-05 4.95666e-05 4.54035e-05 4.34295e-10 1.85054e-11 -9.00581e-10 0 0 0 
49 4 1.5186e-06 5.13737e-05 5.26142e-05 4.94324e-05 6.37003e-11 -8.60033e-10 -5.06247e-10 0 0 0 
50 4 1.19599e-06 5.35041e-05 5.13456e-05 5.05016e-05 7.46857e-10 2.08036e-10 6.31606e-10 0 0 0 
51 4 1.21302e-06 4.76356e-05 5.53494e-05 5.43639e-05 -1.99086e-10 2.96517e-10 9.34046e-10 0 0 0 
