LAMMPS (5 Nov 2016)
# NUFEB simulation

atom_style	bio
atom_modify	map array sort 1000 5.0e-7
boundary	pp pp ff
newton		off
processors  4 1 1

comm_modify	vel yes

read_data_bio atom.in
  orthogonal box = (0 0 0) to (2e-05 2e-05 0.0006)
  4 by 1 by 1 MPI processor grid
  reading atoms ...
  9 atoms
  5 nutrients

group HET type 1
9 atoms in group HET

neighbor	5e-7 bin
neigh_modify	delay 0 one 2000

##############Simulation outputs##############

compute myPres all pressure thermo_temp

#dump		id all custom 20 snapshot.bubblemd id type diameter x y z
thermo_style    custom step cpu atoms biomass c_myPres
thermo		1000
thermo_modify	lost ignore


##############Ibm Variable Definitions##############
#Defining EPS density and ratio variables
variable EPSdens equal 30
variable EPSratio equal 1.25
variable divMass equal 8e-16

variable ke equal 5e+10

#Defining kinetics variables
variable temp equal 298.15
variable gasTran equal 0.08205746
variable gvol equal 8e-14
variable rth equal 0.0083144
variable pressure equal 1
variable ph equal 7.0
variable etaHET equal 0.0

#Defining diffusion variables
variable diffT equal 1e-4
variable tol equal 1e-6
variable blThick equal 0
variable Q equal 0.000000231
variable rvol equal 1.25e-3
variable Af equal 0.1
variable shearRate equal 0.0

#Defining critical diameter of death
variable deadMass equal 6e-17


##############DEM functions##############
label       loopa
variable    a loop 10000

pair_style  gran/hooke/history 1.e-4 NULL 1.e-5 NULL 0.0 1
pair_coeff  * *

timestep 1800

variable kanc equal 50

fix 1 all nve/limit 1e-7
fix fv all viscous 1e-5

fix zw all wall/gran hooke/history 2000 NULL 500.0 NULL 1.5 0 zplane  0.0   6e-04
fix zwa all walladh v_kanc zplane  0.0   6e-04


##############Ibm functions##############

fix k1 all kinetics 1 15 15 450 v_temp v_rth v_gvol v_gasTran v_ph v_diffT v_blThick demflag no
fix kgm all kinetics/growth/monod v_EPSdens v_etaHET 1
#fix g1 all kinetics/diffusion v_shearRate v_tol pp pp nd kg bulk v_Q v_rvol v_Af
fix d1 all divide 1 v_EPSdens v_divMass 31231 demflag no
#fix vf1 all verify 1 bm1 1 demflag no

run 1
WARNING: EPS is not defined in fix_kinetics/kinetics/monod (../fix_bio_kinetics_monod.cpp:242)
Neighbor list info ...
  2 neighbor list requests
  update every 1 steps, delay 0 steps, check yes
  max neighbors/atom: 2000, page size: 100000
  master list distance cutoff = 1.5e-06
  ghost atom cutoff = 1.5e-06
  binsize = 7.5e-07 -> bins = 27 27 800
Memory usage per processor = 8.39152 Mbytes
Step CPU Atoms biomass c_myPres 
       0            0        9 7.7754418e-18            0 
       1 0.0067169666        9 8.551406e-18            0 
Loop time of 0.00674438 on 4 procs for 1 steps with 9 atoms

Performance: 23059182624.434 tau/day, 148.271 timesteps/s
118.6% CPU use with 4 MPI tasks x no OpenMP threads

MPI task timing breakdown:
Section |  min time  |  avg time  |  max time  |%varavg| %total
---------------------------------------------------------------
Pair    | 2.1458e-06 | 2.861e-06  | 3.0994e-06 |   0.0 |  0.04
Neigh   | 0.00020289 | 0.00036943 | 0.00052595 |   0.7 |  5.48
Comm    | 2.1935e-05 | 2.2829e-05 | 2.3127e-05 |   0.0 |  0.34
Output  | 3.8147e-05 | 4.4048e-05 | 4.6015e-05 |   0.1 |  0.65
Modify  | 0.006125   | 0.0062869  | 0.0064678  |   0.2 | 93.22
Other   |            | 1.83e-05   |            |       |  0.27

Nlocal:    2.25 ave 3 max 1 min
Histogram: 1 0 0 0 0 1 0 0 0 2
Nghost:    2.25 ave 3 max 1 min
Histogram: 1 0 0 0 0 1 0 0 0 2
Neighs:    0 ave 0 max 0 min
Histogram: 4 0 0 0 0 0 0 0 0 0

Total # of neighbors = 0
Ave neighs/atom = 0
Neighbor list builds = 1
Dangerous builds = 0

##############DEM Run##############
fix_modify k1 demflag yes
fix_modify d1 demflag yes

timestep 1e-3
run 10000
WARNING: EPS is not defined in fix_kinetics/kinetics/monod (../fix_bio_kinetics_monod.cpp:242)
Neighbor list info ...
  2 neighbor list requests
  update every 1 steps, delay 0 steps, check yes
  max neighbors/atom: 2000, page size: 100000
  master list distance cutoff = 1.53222e-06
  ghost atom cutoff = 1.53222e-06
  binsize = 7.66108e-07 -> bins = 27 27 784
Memory usage per processor = 8.39153 Mbytes
Step CPU Atoms biomass c_myPres 
       1            0        9 8.551406e-18            0 
    1000 0.0089690685        9 8.551406e-18            0 
    2000  0.016898155        9 8.551406e-18            0 
    3000  0.024677992        9 8.551406e-18            0 
    4000  0.031127214        9 8.551406e-18            0 
    5000  0.037809134        9 8.551406e-18            0 
    6000   0.04287219        9 8.551406e-18            0 
    7000  0.047288179        9 8.551406e-18            0 
    8000  0.051780224        9 8.551406e-18            0 
    9000  0.055939198        9 8.551406e-18            0 
   10000  0.060292006        9 8.551406e-18            0 
   10001  0.060319185        9 8.551406e-18            0 
Loop time of 0.0603333 on 4 procs for 10000 steps with 9 atoms

Performance: 14320447.157 tau/day, 165745.916 timesteps/s
97.8% CPU use with 4 MPI tasks x no OpenMP threads

MPI task timing breakdown:
Section |  min time  |  avg time  |  max time  |%varavg| %total
---------------------------------------------------------------
Pair    | 0.0010717  | 0.0014135  | 0.00174    |   0.8 |  2.34
Neigh   | 0          | 0          | 0          |   0.0 |  0.00
Comm    | 0.015137   | 0.015968   | 0.017426   |   0.7 | 26.47
Output  | 0.0001812  | 0.00020516 | 0.00026441 |   0.2 |  0.34
Modify  | 0.0089831  | 0.011692   | 0.014395   |   1.9 | 19.38
Other   |            | 0.03105    |            |       | 51.47

Nlocal:    2.25 ave 3 max 1 min
Histogram: 1 0 0 0 0 1 0 0 0 2
Nghost:    2.25 ave 3 max 1 min
Histogram: 1 0 0 0 0 1 0 0 0 2
Neighs:    0 ave 0 max 0 min
Histogram: 4 0 0 0 0 0 0 0 0 0

Total # of neighbors = 0
Ave neighs/atom = 0
Neighbor list builds = 0
Dangerous builds = 0

fix_modify k1 demflag no
fix_modify d1 demflag no

next a
jump SELF loopa
variable    a loop 10000

pair_style  gran/hooke/history 1.e-4 NULL 1.e-5 NULL 0.0 1
pair_coeff  * *

timestep 1800

variable kanc equal 50

fix 1 all nve/limit 1e-7
fix fv all viscous 1e-5

fix zw all wall/gran hooke/history 2000 NULL 500.0 NULL 1.5 0 zplane  0.0   6e-04
fix zwa all walladh v_kanc zplane  0.0   6e-04


##############Ibm functions##############

fix k1 all kinetics 1 15 15 450 v_temp v_rth v_gvol v_gasTran v_ph v_diffT v_blThick demflag no
fix kgm all kinetics/growth/monod v_EPSdens v_etaHET 1
#fix g1 all kinetics/diffusion v_shearRate v_tol pp pp nd kg bulk v_Q v_rvol v_Af
fix d1 all divide 1 v_EPSdens v_divMass 31231 demflag no
#fix vf1 all verify 1 bm1 1 demflag no

run 1
WARNING: EPS is not defined in fix_kinetics/kinetics/monod (../fix_bio_kinetics_monod.cpp:242)
Memory usage per processor = 8.39153 Mbytes
Step CPU Atoms biomass c_myPres 
   10001            0        9 8.551406e-18            0 
   10002 0.0038318634        9 9.4048089e-18            0 
Loop time of 0.0038532 on 4 procs for 1 steps with 9 atoms

Performance: 40361238627.603 tau/day, 259.524 timesteps/s
103.8% CPU use with 4 MPI tasks x no OpenMP threads

MPI task timing breakdown:
Section |  min time  |  avg time  |  max time  |%varavg| %total
---------------------------------------------------------------
Pair    | 1.1921e-06 | 2.0862e-06 | 3.0994e-06 |   0.0 |  0.05
Neigh   | 0.00026202 | 0.00028318 | 0.00030684 |   0.1 |  7.35
Comm    | 1.0014e-05 | 1.061e-05  | 1.1206e-05 |   0.0 |  0.28
Output  | 3.0994e-05 | 3.5465e-05 | 3.7909e-05 |   0.0 |  0.92
Modify  | 0.0034819  | 0.0035082  | 0.0035231  |   0.0 | 91.05
Other   |            | 1.371e-05  |            |       |  0.36

Nlocal:    2.25 ave 3 max 1 min
Histogram: 1 0 0 0 0 1 0 0 0 2
Nghost:    2.25 ave 3 max 1 min
Histogram: 1 0 0 0 0 1 0 0 0 2
Neighs:    0 ave 0 max 0 min
Histogram: 4 0 0 0 0 0 0 0 0 0

Total # of neighbors = 0
Ave neighs/atom = 0
Neighbor list builds = 1
Dangerous builds = 0

##############DEM Run##############
fix_modify k1 demflag yes
fix_modify d1 demflag yes

timestep 1e-3
run 10000
WARNING: EPS is not defined in fix_kinetics/kinetics/monod (../fix_bio_kinetics_monod.cpp:242)
Neighbor list info ...
  2 neighbor list requests
  update every 1 steps, delay 0 steps, check yes
  max neighbors/atom: 2000, page size: 100000
  master list distance cutoff = 1.56547e-06
  ghost atom cutoff = 1.56547e-06
  binsize = 7.82735e-07 -> bins = 26 26 767
Memory usage per processor = 8.39153 Mbytes
Step CPU Atoms biomass c_myPres 
   10002            0        9 9.4048089e-18            0 
   11000  0.003786087        9 9.4048089e-18            0 
   12000   0.00791502        9 9.4048089e-18            0 
   13000  0.011463165        9 9.4048089e-18            0 
   14000  0.015660048        9 9.4048089e-18            0 
   15000  0.019252062        9 9.4048089e-18            0 
   16000  0.024631977        9 9.4048089e-18            0 
   17000     0.028862        9 9.4048089e-18            0 
   18000  0.032655954        9 9.4048089e-18            0 
   19000  0.035958052        9 9.4048089e-18            0 
   20000  0.039499998        9 9.4048089e-18            0 
   20002  0.039529085        9 9.4048089e-18            0 
Loop time of 0.0395424 on 4 procs for 10000 steps with 9 atoms

Performance: 21849943.359 tau/day, 252892.863 timesteps/s
101.2% CPU use with 4 MPI tasks x no OpenMP threads

MPI task timing breakdown:
Section |  min time  |  avg time  |  max time  |%varavg| %total
---------------------------------------------------------------
Pair    | 0.00085187 | 0.00094241 | 0.0010405  |   0.2 |  2.38
Neigh   | 0          | 0          | 0          |   0.0 |  0.00
Comm    | 0.0098786  | 0.010278   | 0.010764   |   0.4 | 25.99
Output  | 0.00012875 | 0.00014693 | 0.00018859 |   0.2 |  0.37
Modify  | 0.0069005  | 0.0079408  | 0.0086207  |   0.8 | 20.08
Other   |            | 0.02023    |            |       | 51.17

Nlocal:    2.25 ave 3 max 1 min
Histogram: 1 0 0 0 0 1 0 0 0 2
Nghost:    2.25 ave 3 max 1 min
Histogram: 1 0 0 0 0 1 0 0 0 2
Neighs:    0 ave 0 max 0 min
Histogram: 4 0 0 0 0 0 0 0 0 0

Total # of neighbors = 0
Ave neighs/atom = 0
Neighbor list builds = 0
Dangerous builds = 0

fix_modify k1 demflag no
fix_modify d1 demflag no

next a
jump SELF loopa
variable    a loop 10000

pair_style  gran/hooke/history 1.e-4 NULL 1.e-5 NULL 0.0 1
pair_coeff  * *

timestep 1800

variable kanc equal 50

fix 1 all nve/limit 1e-7
fix fv all viscous 1e-5

fix zw all wall/gran hooke/history 2000 NULL 500.0 NULL 1.5 0 zplane  0.0   6e-04
fix zwa all walladh v_kanc zplane  0.0   6e-04


##############Ibm functions##############

fix k1 all kinetics 1 15 15 450 v_temp v_rth v_gvol v_gasTran v_ph v_diffT v_blThick demflag no
fix kgm all kinetics/growth/monod v_EPSdens v_etaHET 1
#fix g1 all kinetics/diffusion v_shearRate v_tol pp pp nd kg bulk v_Q v_rvol v_Af
fix d1 all divide 1 v_EPSdens v_divMass 31231 demflag no
#fix vf1 all verify 1 bm1 1 demflag no

run 1
WARNING: EPS is not defined in fix_kinetics/kinetics/monod (../fix_bio_kinetics_monod.cpp:242)
Memory usage per processor = 8.39153 Mbytes
Step CPU Atoms biomass c_myPres 
   20002            0        9 9.4048089e-18            0 
   20003 0.0027298927        9 1.0343379e-17            0 
Loop time of 0.00274396 on 4 procs for 1 steps with 9 atoms

Performance: 56677222876.010 tau/day, 364.437 timesteps/s
72.9% CPU use with 4 MPI tasks x no OpenMP threads

MPI task timing breakdown:
Section |  min time  |  avg time  |  max time  |%varavg| %total
---------------------------------------------------------------
Pair    | 1.1921e-06 | 1.8477e-06 | 2.1458e-06 |   0.0 |  0.07
Neigh   | 0.00012898 | 0.0001688  | 0.00024009 |   0.3 |  6.15
Comm    | 8.1062e-06 | 8.3447e-06 | 9.0599e-06 |   0.0 |  0.30
Output  | 2.0027e-05 | 2.563e-05  | 2.8133e-05 |   0.1 |  0.93
Modify  | 0.0024531  | 0.0025293  | 0.0025787  |   0.1 | 92.18
Other   |            | 1.001e-05  |            |       |  0.36

Nlocal:    2.25 ave 3 max 1 min
Histogram: 1 0 0 0 0 1 0 0 0 2
Nghost:    2.25 ave 3 max 1 min
Histogram: 1 0 0 0 0 1 0 0 0 2
Neighs:    0 ave 0 max 0 min
Histogram: 4 0 0 0 0 0 0 0 0 0

Total # of neighbors = 0
Ave neighs/atom = 0
Neighbor list builds = 1
Dangerous builds = 0

##############DEM Run##############
fix_modify k1 demflag yes
fix_modify d1 demflag yes

timestep 1e-3
run 10000
WARNING: EPS is not defined in fix_kinetics/kinetics/monod (../fix_bio_kinetics_monod.cpp:242)
Neighbor list info ...
  2 neighbor list requests
  update every 1 steps, delay 0 steps, check yes
  max neighbors/atom: 2000, page size: 100000
  master list distance cutoff = 1.5998e-06
  ghost atom cutoff = 1.5998e-06
  binsize = 7.99898e-07 -> bins = 26 26 751
Memory usage per processor = 8.39153 Mbytes
Step CPU Atoms biomass c_myPres 
   20003            0        9 1.0343379e-17            0 
   21000 0.0046560764        9 1.0343379e-17            0 
   22000 0.0091869831        9 1.0343379e-17            0 
   23000  0.012331009        9 1.0343379e-17            0 
   24000  0.015793085        9 1.0343379e-17            0 
   25000  0.018859148        9 1.0343379e-17            0 
   26000  0.022168159        9 1.0343379e-17            0 
   27000  0.025182962        9 1.0343379e-17            0 
   28000  0.028167963        9 1.0343379e-17            0 
   29000  0.031648159        9 1.0343379e-17            0 
   30000  0.036457062        9 1.0343379e-17            0 
   30003  0.036489964        9 1.0343379e-17            0 
Loop time of 0.0365086 on 4 procs for 10000 steps with 9 atoms

Performance: 23665682.671 tau/day, 273908.364 timesteps/s
98.6% CPU use with 4 MPI tasks x no OpenMP threads

MPI task timing breakdown:
Section |  min time  |  avg time  |  max time  |%varavg| %total
---------------------------------------------------------------
Pair    | 0.00084567 | 0.00087082 | 0.00089884 |   0.1 |  2.39
Neigh   | 0          | 0          | 0          |   0.0 |  0.00
Comm    | 0.0090806  | 0.0093498  | 0.0095859  |   0.2 | 25.61
Output  | 0.00013089 | 0.00014389 | 0.00017715 |   0.2 |  0.39
Modify  | 0.0063176  | 0.0071239  | 0.0076442  |   0.6 | 19.51
Other   |            | 0.01902    |            |       | 52.10

Nlocal:    2.25 ave 3 max 1 min
Histogram: 1 0 0 0 0 1 0 0 0 2
Nghost:    2.25 ave 3 max 1 min
Histogram: 1 0 0 0 0 1 0 0 0 2
Neighs:    0 ave 0 max 0 min
Histogram: 4 0 0 0 0 0 0 0 0 0

Total # of neighbors = 0
Ave neighs/atom = 0
Neighbor list builds = 0
Dangerous builds = 0

fix_modify k1 demflag no
fix_modify d1 demflag no

next a
jump SELF loopa
variable    a loop 10000

pair_style  gran/hooke/history 1.e-4 NULL 1.e-5 NULL 0.0 1
pair_coeff  * *

timestep 1800

variable kanc equal 50

fix 1 all nve/limit 1e-7
fix fv all viscous 1e-5

fix zw all wall/gran hooke/history 2000 NULL 500.0 NULL 1.5 0 zplane  0.0   6e-04
fix zwa all walladh v_kanc zplane  0.0   6e-04


##############Ibm functions##############

fix k1 all kinetics 1 15 15 450 v_temp v_rth v_gvol v_gasTran v_ph v_diffT v_blThick demflag no
fix kgm all kinetics/growth/monod v_EPSdens v_etaHET 1
#fix g1 all kinetics/diffusion v_shearRate v_tol pp pp nd kg bulk v_Q v_rvol v_Af
fix d1 all divide 1 v_EPSdens v_divMass 31231 demflag no
#fix vf1 all verify 1 bm1 1 demflag no

run 1
WARNING: EPS is not defined in fix_kinetics/kinetics/monod (../fix_bio_kinetics_monod.cpp:242)
Memory usage per processor = 8.39153 Mbytes
Step CPU Atoms biomass c_myPres 
   30003            0        9 1.0343379e-17            0 
   30004 0.0026109219        9 1.1375615e-17            0 
Loop time of 0.00263524 on 4 procs for 1 steps with 9 atoms

Performance: 59015485214.874 tau/day, 379.472 timesteps/s
37.9% CPU use with 4 MPI tasks x no OpenMP threads

MPI task timing breakdown:
Section |  min time  |  avg time  |  max time  |%varavg| %total
---------------------------------------------------------------
Pair    | 1.9073e-06 | 2.0266e-06 | 2.1458e-06 |   0.0 |  0.08
Neigh   | 0.00012112 | 0.00016028 | 0.0002358  |   0.4 |  6.08
Comm    | 6.9141e-06 | 7.2122e-06 | 8.1062e-06 |   0.0 |  0.27
Output  | 2.6941e-05 | 2.7478e-05 | 2.8133e-05 |   0.0 |  1.04
Modify  | 0.002341   | 0.0024207  | 0.0024698  |   0.1 | 91.86
Other   |            | 1.752e-05  |            |       |  0.66

Nlocal:    2.25 ave 3 max 1 min
Histogram: 1 0 0 0 0 1 0 0 0 2
Nghost:    2.25 ave 3 max 1 min
Histogram: 1 0 0 0 0 1 0 0 0 2
Neighs:    0 ave 0 max 0 min
Histogram: 4 0 0 0 0 0 0 0 0 0

Total # of neighbors = 0
Ave neighs/atom = 0
Neighbor list builds = 1
Dangerous builds = 0

##############DEM Run##############
fix_modify k1 demflag yes
fix_modify d1 demflag yes

timestep 1e-3
run 10000
WARNING: EPS is not defined in fix_kinetics/kinetics/monod (../fix_bio_kinetics_monod.cpp:242)
Neighbor list info ...
  2 neighbor list requests
  update every 1 steps, delay 0 steps, check yes
  max neighbors/atom: 2000, page size: 100000
  master list distance cutoff = 1.63523e-06
  ghost atom cutoff = 1.63523e-06
  binsize = 8.17614e-07 -> bins = 25 25 734
Memory usage per processor = 8.39153 Mbytes
Step CPU Atoms biomass c_myPres 
   30004            0        9 1.1375615e-17            0 
   31000 0.0028090477        9 1.1375615e-17            0 
   32000 0.0059511662        9 1.1375615e-17            0 
   33000 0.0089521408        9 1.1375615e-17            0 
   34000  0.011692047        9 1.1375615e-17            0 
   35000   0.01463604        9 1.1375615e-17            0 
   36000  0.019111156        9 1.1375615e-17            0 
   37000  0.022592068        9 1.1375615e-17            0 
   38000  0.025295019        9 1.1375615e-17            0 
   39000  0.027950048        9 1.1375615e-17            0 
   40000  0.030584097        9 1.1375615e-17            0 
   40004  0.030616999        9 1.1375615e-17            0 
Loop time of 0.0306273 on 4 procs for 10000 steps with 9 atoms

Performance: 28210116.795 tau/day, 326505.981 timesteps/s
101.2% CPU use with 4 MPI tasks x no OpenMP threads

MPI task timing breakdown:
Section |  min time  |  avg time  |  max time  |%varavg| %total
---------------------------------------------------------------
Pair    | 0.00071359 | 0.00074637 | 0.00077534 |   0.1 |  2.44
Neigh   | 0          | 0          | 0          |   0.0 |  0.00
Comm    | 0.0073731  | 0.007881   | 0.0083029  |   0.5 | 25.73
Output  | 0.00010395 | 0.00011569 | 0.00014758 |   0.2 |  0.38
Modify  | 0.0053234  | 0.0061421  | 0.0068123  |   0.7 | 20.05
Other   |            | 0.01574    |            |       | 51.40

Nlocal:    2.25 ave 3 max 1 min
Histogram: 1 0 0 0 0 1 0 0 0 2
Nghost:    2.25 ave 3 max 1 min
Histogram: 1 0 0 0 0 1 0 0 0 2
Neighs:    0 ave 0 max 0 min
Histogram: 4 0 0 0 0 0 0 0 0 0

Total # of neighbors = 0
Ave neighs/atom = 0
Neighbor list builds = 0
Dangerous builds = 0

fix_modify k1 demflag no
fix_modify d1 demflag no

next a
jump SELF loopa
variable    a loop 10000

pair_style  gran/hooke/history 1.e-4 NULL 1.e-5 NULL 0.0 1
pair_coeff  * *

timestep 1800

variable kanc equal 50

fix 1 all nve/limit 1e-7
fix fv all viscous 1e-5

fix zw all wall/gran hooke/history 2000 NULL 500.0 NULL 1.5 0 zplane  0.0   6e-04
fix zwa all walladh v_kanc zplane  0.0   6e-04


##############Ibm functions##############

fix k1 all kinetics 1 15 15 450 v_temp v_rth v_gvol v_gasTran v_ph v_diffT v_blThick demflag no
fix kgm all kinetics/growth/monod v_EPSdens v_etaHET 1
#fix g1 all kinetics/diffusion v_shearRate v_tol pp pp nd kg bulk v_Q v_rvol v_Af
fix d1 all divide 1 v_EPSdens v_divMass 31231 demflag no
#fix vf1 all verify 1 bm1 1 demflag no

run 1
WARNING: EPS is not defined in fix_kinetics/kinetics/monod (../fix_bio_kinetics_monod.cpp:242)
Memory usage per processor = 8.39153 Mbytes
Step CPU Atoms biomass c_myPres 
   40004            0        9 1.1375615e-17            0 
   40005 0.0024869442        9 1.2510865e-17            0 
Loop time of 0.00249958 on 4 procs for 1 steps with 9 atoms

Performance: 62218443159.100 tau/day, 400.067 timesteps/s
40.0% CPU use with 4 MPI tasks x no OpenMP threads

MPI task timing breakdown:
Section |  min time  |  avg time  |  max time  |%varavg| %total
---------------------------------------------------------------
Pair    | 9.5367e-07 | 1.6689e-06 | 1.9073e-06 |   0.0 |  0.07
Neigh   | 0.00012088 | 0.00015199 | 0.00018406 |   0.2 |  6.08
Comm    | 5.9605e-06 | 6.6757e-06 | 6.9141e-06 |   0.0 |  0.27
Output  | 1.812e-05  | 2.2054e-05 | 2.5034e-05 |   0.1 |  0.88
Modify  | 0.002274   | 0.0023093  | 0.0023482  |   0.1 | 92.39
Other   |            | 7.868e-06  |            |       |  0.31

Nlocal:    2.25 ave 3 max 1 min
Histogram: 1 0 0 0 0 1 0 0 0 2
Nghost:    2.25 ave 3 max 1 min
Histogram: 1 0 0 0 0 1 0 0 0 2
Neighs:    0 ave 0 max 0 min
Histogram: 4 0 0 0 0 0 0 0 0 0

Total # of neighbors = 0
Ave neighs/atom = 0
Neighbor list builds = 1
Dangerous builds = 0

##############DEM Run##############
fix_modify k1 demflag yes
fix_modify d1 demflag yes

timestep 1e-3
run 10000
WARNING: EPS is not defined in fix_kinetics/kinetics/monod (../fix_bio_kinetics_monod.cpp:242)
Neighbor list info ...
  2 neighbor list requests
  update every 1 steps, delay 0 steps, check yes
  max neighbors/atom: 2000, page size: 100000
  master list distance cutoff = 1.6718e-06
  ghost atom cutoff = 1.6718e-06
  binsize = 8.35901e-07 -> bins = 24 24 718
Memory usage per processor = 8.39153 Mbytes
Step CPU Atoms biomass c_myPres 
   40005            0        9 1.2510865e-17            0 
   41000 0.0026788712        9 1.2510865e-17            0 
   42000 0.0057339668        9 1.2510865e-17            0 
   43000   0.01023984        9 1.2510865e-17            0 
   44000  0.013064861        9 1.2510865e-17            0 
   45000  0.015764952        9 1.2510865e-17            0 
   46000  0.018436909        9 1.2510865e-17            0 
   47000  0.021090984        9 1.2510865e-17            0 
   48000  0.023758888        9 1.2510865e-17            0 
   49000  0.026486874        9 1.2510865e-17            0 
   50000  0.029130936        9 1.2510865e-17            0 
   50005  0.029168844        9 1.2510865e-17            0 
Loop time of 0.0291792 on 4 procs for 10000 steps with 9 atoms

Performance: 29610178.071 tau/day, 342710.394 timesteps/s
102.8% CPU use with 4 MPI tasks x no OpenMP threads

MPI task timing breakdown:
Section |  min time  |  avg time  |  max time  |%varavg| %total
---------------------------------------------------------------
Pair    | 0.00066447 | 0.00074071 | 0.00077701 |   0.2 |  2.54
Neigh   | 0          | 0          | 0          |   0.0 |  0.00
Comm    | 0.0070961  | 0.0075751  | 0.0080359  |   0.5 | 25.96
Output  | 9.9897e-05 | 0.00010979 | 0.00013614 |   0.1 |  0.38
Modify  | 0.0048988  | 0.005878   | 0.0064533  |   0.8 | 20.14
Other   |            | 0.01488    |            |       | 50.98

Nlocal:    2.25 ave 3 max 1 min
Histogram: 1 0 0 0 0 1 0 0 0 2
Nghost:    2.25 ave 3 max 1 min
Histogram: 1 0 0 0 0 1 0 0 0 2
Neighs:    0 ave 0 max 0 min
Histogram: 4 0 0 0 0 0 0 0 0 0

Total # of neighbors = 0
Ave neighs/atom = 0
Neighbor list builds = 0
Dangerous builds = 0

fix_modify k1 demflag no
fix_modify d1 demflag no

next a
jump SELF loopa
variable    a loop 10000

pair_style  gran/hooke/history 1.e-4 NULL 1.e-5 NULL 0.0 1
pair_coeff  * *

timestep 1800

variable kanc equal 50

fix 1 all nve/limit 1e-7
fix fv all viscous 1e-5

fix zw all wall/gran hooke/history 2000 NULL 500.0 NULL 1.5 0 zplane  0.0   6e-04
fix zwa all walladh v_kanc zplane  0.0   6e-04


##############Ibm functions##############

fix k1 all kinetics 1 15 15 450 v_temp v_rth v_gvol v_gasTran v_ph v_diffT v_blThick demflag no
fix kgm all kinetics/growth/monod v_EPSdens v_etaHET 1
#fix g1 all kinetics/diffusion v_shearRate v_tol pp pp nd kg bulk v_Q v_rvol v_Af
fix d1 all divide 1 v_EPSdens v_divMass 31231 demflag no
#fix vf1 all verify 1 bm1 1 demflag no

run 1
WARNING: EPS is not defined in fix_kinetics/kinetics/monod (../fix_bio_kinetics_monod.cpp:242)
Memory usage per processor = 8.39153 Mbytes
Step CPU Atoms biomass c_myPres 
   50005            0        9 1.2510865e-17            0 
   50006 0.0025281906        9 1.3759409e-17            0 
Loop time of 0.00254077 on 4 procs for 1 steps with 9 atoms

Performance: 61209858360.194 tau/day, 393.582 timesteps/s
78.7% CPU use with 4 MPI tasks x no OpenMP threads

MPI task timing breakdown:
Section |  min time  |  avg time  |  max time  |%varavg| %total
---------------------------------------------------------------
Pair    | 9.5367e-07 | 1.8477e-06 | 3.0994e-06 |   0.1 |  0.07
Neigh   | 9.1791e-05 | 0.0001204  | 0.000175   |   0.3 |  4.74
Comm    | 6.1989e-06 | 6.4373e-06 | 7.1526e-06 |   0.0 |  0.25
Output  | 1.5974e-05 | 2.0862e-05 | 2.3127e-05 |   0.1 |  0.82
Modify  | 0.0023236  | 0.0023834  | 0.0024202  |   0.1 | 93.80
Other   |            | 7.868e-06  |            |       |  0.31

Nlocal:    2.25 ave 3 max 1 min
Histogram: 1 0 0 0 0 1 0 0 0 2
Nghost:    2.25 ave 3 max 1 min
Histogram: 1 0 0 0 0 1 0 0 0 2
Neighs:    0 ave 0 max 0 min
Histogram: 4 0 0 0 0 0 0 0 0 0

Total # of neighbors = 0
Ave neighs/atom = 0
Neighbor list builds = 1
Dangerous builds = 0

##############DEM Run##############
fix_modify k1 demflag yes
fix_modify d1 demflag yes

timestep 1e-3
run 10000
WARNING: EPS is not defined in fix_kinetics/kinetics/monod (../fix_bio_kinetics_monod.cpp:242)
Neighbor list info ...
  2 neighbor list requests
  update every 1 steps, delay 0 steps, check yes
  max neighbors/atom: 2000, page size: 100000
  master list distance cutoff = 1.70955e-06
  ghost atom cutoff = 1.70955e-06
  binsize = 8.54776e-07 -> bins = 24 24 702
Memory usage per processor = 8.39153 Mbytes
Step CPU Atoms biomass c_myPres 
   50006            0        9 1.3759409e-17            0 
   51000 0.0034608841        9 1.3759409e-17            0 
   52000 0.0063998699        9 1.3759409e-17            0 
   53000 0.0091869831        9 1.3759409e-17            0 
   54000  0.011895895        9 1.3759409e-17            0 
   55000  0.014780998        9 1.3759409e-17            0 
   56000  0.017468929        9 1.3759409e-17            0 
   57000  0.020123959        9 1.3759409e-17            0 
   58000  0.023036957        9 1.3759409e-17            0 
   59000  0.025722027        9 1.3759409e-17            0 
   60000  0.029579878        9 1.3759409e-17            0 
   60006  0.029644012        9 1.3759409e-17            0 
Loop time of 0.02966 on 4 procs for 10000 steps with 9 atoms

Performance: 29130154.868 tau/day, 337154.570 timesteps/s
101.1% CPU use with 4 MPI tasks x no OpenMP threads

MPI task timing breakdown:
Section |  min time  |  avg time  |  max time  |%varavg| %total
---------------------------------------------------------------
Pair    | 0.00073409 | 0.00077814 | 0.00080037 |   0.1 |  2.62
Neigh   | 0          | 0          | 0          |   0.0 |  0.00
Comm    | 0.0073073  | 0.0076667  | 0.0080087  |   0.3 | 25.85
Output  | 0.00010633 | 0.00012434 | 0.00014496 |   0.2 |  0.42
Modify  | 0.0052106  | 0.0059524  | 0.0064566  |   0.6 | 20.07
Other   |            | 0.01514    |            |       | 51.04

Nlocal:    2.25 ave 3 max 1 min
Histogram: 1 0 0 0 0 1 0 0 0 2
Nghost:    2.25 ave 3 max 1 min
Histogram: 1 0 0 0 0 1 0 0 0 2
Neighs:    0 ave 0 max 0 min
Histogram: 4 0 0 0 0 0 0 0 0 0

Total # of neighbors = 0
Ave neighs/atom = 0
Neighbor list builds = 0
Dangerous builds = 0

fix_modify k1 demflag no
fix_modify d1 demflag no

next a
jump SELF loopa
variable    a loop 10000

pair_style  gran/hooke/history 1.e-4 NULL 1.e-5 NULL 0.0 1
pair_coeff  * *

timestep 1800

variable kanc equal 50

fix 1 all nve/limit 1e-7
fix fv all viscous 1e-5

fix zw all wall/gran hooke/history 2000 NULL 500.0 NULL 1.5 0 zplane  0.0   6e-04
fix zwa all walladh v_kanc zplane  0.0   6e-04


##############Ibm functions##############

fix k1 all kinetics 1 15 15 450 v_temp v_rth v_gvol v_gasTran v_ph v_diffT v_blThick demflag no
fix kgm all kinetics/growth/monod v_EPSdens v_etaHET 1
#fix g1 all kinetics/diffusion v_shearRate v_tol pp pp nd kg bulk v_Q v_rvol v_Af
fix d1 all divide 1 v_EPSdens v_divMass 31231 demflag no
#fix vf1 all verify 1 bm1 1 demflag no

run 1
WARNING: EPS is not defined in fix_kinetics/kinetics/monod (../fix_bio_kinetics_monod.cpp:242)
Memory usage per processor = 8.39153 Mbytes
Step CPU Atoms biomass c_myPres 
   60006            0        9 1.3759409e-17            0 
   60007 0.0024209023        9 1.5132554e-17            0 
Loop time of 0.00243425 on 4 procs for 1 steps with 9 atoms

Performance: 63888164356.513 tau/day, 410.804 timesteps/s
41.1% CPU use with 4 MPI tasks x no OpenMP threads

MPI task timing breakdown:
Section |  min time  |  avg time  |  max time  |%varavg| %total
---------------------------------------------------------------
Pair    | 9.5367e-07 | 1.8477e-06 | 2.1458e-06 |   0.0 |  0.08
Neigh   | 9.8944e-05 | 0.00013721 | 0.0001719  |   0.3 |  5.64
Comm    | 8.1062e-06 | 8.5831e-06 | 9.0599e-06 |   0.0 |  0.35
Output  | 1.6928e-05 | 2.4676e-05 | 2.7895e-05 |   0.1 |  1.01
Modify  | 0.0022149  | 0.0022538  | 0.0023038  |   0.1 | 92.59
Other   |            | 8.106e-06  |            |       |  0.33

Nlocal:    2.25 ave 3 max 1 min
Histogram: 1 0 0 0 0 1 0 0 0 2
Nghost:    2.25 ave 3 max 1 min
Histogram: 1 0 0 0 0 1 0 0 0 2
Neighs:    0 ave 0 max 0 min
Histogram: 4 0 0 0 0 0 0 0 0 0

Total # of neighbors = 0
Ave neighs/atom = 0
Neighbor list builds = 1
Dangerous builds = 0

##############DEM Run##############
fix_modify k1 demflag yes
fix_modify d1 demflag yes

timestep 1e-3
run 10000
WARNING: EPS is not defined in fix_kinetics/kinetics/monod (../fix_bio_kinetics_monod.cpp:242)
Neighbor list info ...
  2 neighbor list requests
  update every 1 steps, delay 0 steps, check yes
  max neighbors/atom: 2000, page size: 100000
  master list distance cutoff = 1.74852e-06
  ghost atom cutoff = 1.74852e-06
  binsize = 8.7426e-07 -> bins = 23 23 687
Memory usage per processor = 8.39153 Mbytes
Step CPU Atoms biomass c_myPres 
   60007            0        9 1.5132554e-17            0 
   61000 0.0026760101        9 1.5132554e-17            0 
   62000 0.0053451061        9 1.5132554e-17            0 
   63000 0.0084621906        9 1.5132554e-17            0 
   64000  0.011116028        9 1.5132554e-17            0 
   65000  0.013886213        9 1.5132554e-17            0 
   66000  0.017838001        9 1.5132554e-17            0 
   67000  0.023208141        9 1.5132554e-17            0 
   68000   0.02850914        9 1.5132554e-17            0 
   69000   0.03344202        9 1.5132554e-17            0 
   70000  0.036135197        9 1.5132554e-17            0 
   70007  0.036186218        9 1.5132554e-17            0 
Loop time of 0.0361991 on 4 procs for 10000 steps with 9 atoms

Performance: 23868001.423 tau/day, 276250.016 timesteps/s
102.2% CPU use with 4 MPI tasks x no OpenMP threads

MPI task timing breakdown:
Section |  min time  |  avg time  |  max time  |%varavg| %total
---------------------------------------------------------------
Pair    | 0.00079823 | 0.00083315 | 0.00086617 |   0.1 |  2.30
Neigh   | 0          | 0          | 0          |   0.0 |  0.00
Comm    | 0.0088296  | 0.0091918  | 0.0095649  |   0.3 | 25.39
Output  | 0.00012279 | 0.00013667 | 0.00017762 |   0.2 |  0.38
Modify  | 0.0063961  | 0.0068024  | 0.0072248  |   0.4 | 18.79
Other   |            | 0.01924    |            |       | 53.14

Nlocal:    2.25 ave 3 max 1 min
Histogram: 1 0 0 0 0 1 0 0 0 2
Nghost:    2.25 ave 3 max 1 min
Histogram: 1 0 0 0 0 1 0 0 0 2
Neighs:    0 ave 0 max 0 min
Histogram: 4 0 0 0 0 0 0 0 0 0

Total # of neighbors = 0
Ave neighs/atom = 0
Neighbor list builds = 0
Dangerous builds = 0

fix_modify k1 demflag no
fix_modify d1 demflag no

next a
jump SELF loopa
variable    a loop 10000

pair_style  gran/hooke/history 1.e-4 NULL 1.e-5 NULL 0.0 1
pair_coeff  * *

timestep 1800

variable kanc equal 50

fix 1 all nve/limit 1e-7
fix fv all viscous 1e-5

fix zw all wall/gran hooke/history 2000 NULL 500.0 NULL 1.5 0 zplane  0.0   6e-04
fix zwa all walladh v_kanc zplane  0.0   6e-04


##############Ibm functions##############

fix k1 all kinetics 1 15 15 450 v_temp v_rth v_gvol v_gasTran v_ph v_diffT v_blThick demflag no
fix kgm all kinetics/growth/monod v_EPSdens v_etaHET 1
#fix g1 all kinetics/diffusion v_shearRate v_tol pp pp nd kg bulk v_Q v_rvol v_Af
fix d1 all divide 1 v_EPSdens v_divMass 31231 demflag no
#fix vf1 all verify 1 bm1 1 demflag no

run 1
WARNING: EPS is not defined in fix_kinetics/kinetics/monod (../fix_bio_kinetics_monod.cpp:242)
Memory usage per processor = 8.39153 Mbytes
Step CPU Atoms biomass c_myPres 
   70007            0        9 1.5132554e-17            0 
   70008 0.0023379326        9 1.6642734e-17            0 
Loop time of 0.00235295 on 4 procs for 1 steps with 9 atoms

Performance: 66095669072.854 tau/day, 424.998 timesteps/s
127.5% CPU use with 4 MPI tasks x no OpenMP threads

MPI task timing breakdown:
Section |  min time  |  avg time  |  max time  |%varavg| %total
---------------------------------------------------------------
Pair    | 9.5367e-07 | 1.4305e-06 | 1.9073e-06 |   0.0 |  0.06
Neigh   | 8.4877e-05 | 9.2804e-05 | 0.00010204 |   0.1 |  3.94
Comm    | 6.9141e-06 | 2.5213e-05 | 3.1948e-05 |   0.2 |  1.07
Output  | 1.8835e-05 | 2.3484e-05 | 2.5034e-05 |   0.1 |  1.00
Modify  | 0.002187   | 0.0021998  | 0.002218   |   0.0 | 93.49
Other   |            | 1.019e-05  |            |       |  0.43

Nlocal:    2.25 ave 3 max 1 min
Histogram: 1 0 0 0 0 1 0 0 0 2
Nghost:    2.25 ave 3 max 1 min
Histogram: 1 0 0 0 0 1 0 0 0 2
Neighs:    0 ave 0 max 0 min
Histogram: 4 0 0 0 0 0 0 0 0 0

Total # of neighbors = 0
Ave neighs/atom = 0
Neighbor list builds = 1
Dangerous builds = 0

##############DEM Run##############
fix_modify k1 demflag yes
fix_modify d1 demflag yes

timestep 1e-3
run 10000
WARNING: EPS is not defined in fix_kinetics/kinetics/monod (../fix_bio_kinetics_monod.cpp:242)
Neighbor list info ...
  2 neighbor list requests
  update every 1 steps, delay 0 steps, check yes
  max neighbors/atom: 2000, page size: 100000
  master list distance cutoff = 1.78874e-06
  ghost atom cutoff = 1.78874e-06
  binsize = 8.94372e-07 -> bins = 23 23 671
Memory usage per processor = 8.39153 Mbytes
Step CPU Atoms biomass c_myPres 
   70008            0        9 1.6642734e-17            0 
   71000 0.0038650036        9 1.6642734e-17            0 
   72000 0.0065319538        9 1.6642734e-17            0 
   73000 0.0092389584        9 1.6642734e-17            0 
   74000  0.013908148        9 1.6642734e-17            0 
   75000  0.016563177        9 1.6642734e-17            0 
   76000  0.019454956        9 1.6642734e-17            0 
   77000  0.022140026        9 1.6642734e-17            0 
   78000  0.024871111        9 1.6642734e-17            0 
   79000  0.027532101        9 1.6642734e-17            0 
   80000  0.030331135        9 1.6642734e-17            0 
   80008  0.030385971        9 1.6642734e-17            0 
Loop time of 0.0303996 on 4 procs for 10000 steps with 9 atoms

Performance: 28421463.127 tau/day, 328952.120 timesteps/s
95.4% CPU use with 4 MPI tasks x no OpenMP threads

MPI task timing breakdown:
Section |  min time  |  avg time  |  max time  |%varavg| %total
---------------------------------------------------------------
Pair    | 0.00070596 | 0.00077081 | 0.00083685 |   0.2 |  2.54
Neigh   | 0          | 0          | 0          |   0.0 |  0.00
Comm    | 0.0073411  | 0.0078892  | 0.0081518  |   0.4 | 25.95
Output  | 0.00011063 | 0.00012237 | 0.00015688 |   0.2 |  0.40
Modify  | 0.0053577  | 0.0060495  | 0.0064735  |   0.5 | 19.90
Other   |            | 0.01557    |            |       | 51.21

Nlocal:    2.25 ave 3 max 1 min
Histogram: 1 0 0 0 0 1 0 0 0 2
Nghost:    2.25 ave 3 max 1 min
Histogram: 1 0 0 0 0 1 0 0 0 2
Neighs:    0 ave 0 max 0 min
Histogram: 4 0 0 0 0 0 0 0 0 0

Total # of neighbors = 0
Ave neighs/atom = 0
Neighbor list builds = 0
Dangerous builds = 0

fix_modify k1 demflag no
fix_modify d1 demflag no

next a
jump SELF loopa
variable    a loop 10000

pair_style  gran/hooke/history 1.e-4 NULL 1.e-5 NULL 0.0 1
pair_coeff  * *

timestep 1800

variable kanc equal 50

fix 1 all nve/limit 1e-7
fix fv all viscous 1e-5

fix zw all wall/gran hooke/history 2000 NULL 500.0 NULL 1.5 0 zplane  0.0   6e-04
fix zwa all walladh v_kanc zplane  0.0   6e-04


##############Ibm functions##############

fix k1 all kinetics 1 15 15 450 v_temp v_rth v_gvol v_gasTran v_ph v_diffT v_blThick demflag no
fix kgm all kinetics/growth/monod v_EPSdens v_etaHET 1
#fix g1 all kinetics/diffusion v_shearRate v_tol pp pp nd kg bulk v_Q v_rvol v_Af
fix d1 all divide 1 v_EPSdens v_divMass 31231 demflag no
#fix vf1 all verify 1 bm1 1 demflag no

run 1
WARNING: EPS is not defined in fix_kinetics/kinetics/monod (../fix_bio_kinetics_monod.cpp:242)
Memory usage per processor = 8.39153 Mbytes
Step CPU Atoms biomass c_myPres 
   80008            0        9 1.6642734e-17            0 
   80009 0.0025808811        9 1.8303626e-17            0 
Loop time of 0.00259686 on 4 procs for 1 steps with 9 atoms

Performance: 59887822078.590 tau/day, 385.081 timesteps/s
115.5% CPU use with 4 MPI tasks x no OpenMP threads

MPI task timing breakdown:
Section |  min time  |  avg time  |  max time  |%varavg| %total
---------------------------------------------------------------
Pair    | 9.5367e-07 | 1.7285e-06 | 2.1458e-06 |   0.0 |  0.07
Neigh   | 9.8944e-05 | 0.00011826 | 0.00013804 |   0.2 |  4.55
Comm    | 6.9141e-06 | 7.8678e-06 | 8.8215e-06 |   0.0 |  0.30
Output  | 2.1935e-05 | 2.4736e-05 | 2.5988e-05 |   0.0 |  0.95
Modify  | 0.0024099  | 0.0024337  | 0.0024529  |   0.0 | 93.72
Other   |            | 1.055e-05  |            |       |  0.41

Nlocal:    2.25 ave 3 max 1 min
Histogram: 1 0 0 0 0 1 0 0 0 2
Nghost:    2.25 ave 3 max 1 min
Histogram: 1 0 0 0 0 1 0 0 0 2
Neighs:    0 ave 0 max 0 min
Histogram: 4 0 0 0 0 0 0 0 0 0

Total # of neighbors = 0
Ave neighs/atom = 0
Neighbor list builds = 1
Dangerous builds = 0

##############DEM Run##############
fix_modify k1 demflag yes
fix_modify d1 demflag yes

timestep 1e-3
run 10000
WARNING: EPS is not defined in fix_kinetics/kinetics/monod (../fix_bio_kinetics_monod.cpp:242)
Neighbor list info ...
  2 neighbor list requests
  update every 1 steps, delay 0 steps, check yes
  max neighbors/atom: 2000, page size: 100000
  master list distance cutoff = 1.83026e-06
  ghost atom cutoff = 1.83026e-06
  binsize = 9.15131e-07 -> bins = 22 22 656
Memory usage per processor = 8.39153 Mbytes
Step CPU Atoms biomass c_myPres 
   80009            0        9 1.8303626e-17            0 
   81000 0.0026900768        9 1.8303626e-17            0 
   82000 0.0065569878        9 1.8303626e-17            0 
   83000 0.0094330311        9 1.8303626e-17            0 
   84000  0.012330055        9 1.8303626e-17            0 
   85000  0.015030146        9 1.8303626e-17            0 
   86000  0.017703056        9 1.8303626e-17            0 
   87000  0.020349979        9 1.8303626e-17            0 
   88000  0.024389982        9 1.8303626e-17            0 
   89000  0.027749062        9 1.8303626e-17            0 
   90000   0.03039217        9 1.8303626e-17            0 
   90009  0.030454159        9 1.8303626e-17            0 
Loop time of 0.0304648 on 4 procs for 10000 steps with 9 atoms

Performance: 28360573.695 tau/day, 328247.381 timesteps/s
95.2% CPU use with 4 MPI tasks x no OpenMP threads

MPI task timing breakdown:
Section |  min time  |  avg time  |  max time  |%varavg| %total
---------------------------------------------------------------
Pair    | 0.00067973 | 0.00072753 | 0.00074673 |   0.1 |  2.39
Neigh   | 0          | 0          | 0          |   0.0 |  0.00
Comm    | 0.0075033  | 0.007866   | 0.0081875  |   0.4 | 25.82
Output  | 0.00010943 | 0.00012457 | 0.00016594 |   0.2 |  0.41
Modify  | 0.0056696  | 0.0059698  | 0.0061419  |   0.2 | 19.60
Other   |            | 0.01578    |            |       | 51.79

Nlocal:    2.25 ave 3 max 1 min
Histogram: 1 0 0 0 0 1 0 0 0 2
Nghost:    2.25 ave 3 max 1 min
Histogram: 1 0 0 0 0 1 0 0 0 2
Neighs:    0 ave 0 max 0 min
Histogram: 4 0 0 0 0 0 0 0 0 0

Total # of neighbors = 0
Ave neighs/atom = 0
Neighbor list builds = 0
Dangerous builds = 0

fix_modify k1 demflag no
fix_modify d1 demflag no

next a
jump SELF loopa
variable    a loop 10000

pair_style  gran/hooke/history 1.e-4 NULL 1.e-5 NULL 0.0 1
pair_coeff  * *

timestep 1800

variable kanc equal 50

fix 1 all nve/limit 1e-7
fix fv all viscous 1e-5

fix zw all wall/gran hooke/history 2000 NULL 500.0 NULL 1.5 0 zplane  0.0   6e-04
fix zwa all walladh v_kanc zplane  0.0   6e-04


##############Ibm functions##############

fix k1 all kinetics 1 15 15 450 v_temp v_rth v_gvol v_gasTran v_ph v_diffT v_blThick demflag no
fix kgm all kinetics/growth/monod v_EPSdens v_etaHET 1
#fix g1 all kinetics/diffusion v_shearRate v_tol pp pp nd kg bulk v_Q v_rvol v_Af
fix d1 all divide 1 v_EPSdens v_divMass 31231 demflag no
#fix vf1 all verify 1 bm1 1 demflag no

run 1
WARNING: EPS is not defined in fix_kinetics/kinetics/monod (../fix_bio_kinetics_monod.cpp:242)
Memory usage per processor = 8.39153 Mbytes
Step CPU Atoms biomass c_myPres 
   90009            0        9 1.8303626e-17            0 
   90010 0.0023591518        9 2.0130269e-17            0 
Loop time of 0.00237107 on 4 procs for 1 steps with 9 atoms

Performance: 65590563909.502 tau/day, 421.750 timesteps/s
126.5% CPU use with 4 MPI tasks x no OpenMP threads

MPI task timing breakdown:
Section |  min time  |  avg time  |  max time  |%varavg| %total
---------------------------------------------------------------
Pair    | 9.5367e-07 | 1.967e-06  | 3.0994e-06 |   0.1 |  0.08
Neigh   | 7.2002e-05 | 8.9228e-05 | 0.00012183 |   0.2 |  3.76
Comm    | 6.9141e-06 | 7.5698e-06 | 8.1062e-06 |   0.0 |  0.32
Output  | 1.5974e-05 | 1.967e-05  | 2.1935e-05 |   0.1 |  0.83
Modify  | 0.0022111  | 0.0022463  | 0.00227    |   0.0 | 94.74
Other   |            | 6.318e-06  |            |       |  0.27

Nlocal:    2.25 ave 3 max 1 min
Histogram: 1 0 0 0 0 1 0 0 0 2
Nghost:    2.25 ave 3 max 1 min
Histogram: 1 0 0 0 0 1 0 0 0 2
Neighs:    0 ave 0 max 0 min
Histogram: 4 0 0 0 0 0 0 0 0 0

Total # of neighbors = 0
Ave neighs/atom = 0
Neighbor list builds = 1
Dangerous builds = 0

##############DEM Run##############
fix_modify k1 demflag yes
fix_modify d1 demflag yes

timestep 1e-3
run 10000
WARNING: EPS is not defined in fix_kinetics/kinetics/monod (../fix_bio_kinetics_monod.cpp:242)
Neighbor list info ...
  2 neighbor list requests
  update every 1 steps, delay 0 steps, check yes
  max neighbors/atom: 2000, page size: 100000
  master list distance cutoff = 1.87312e-06
  ghost atom cutoff = 1.87312e-06
  binsize = 9.36559e-07 -> bins = 22 22 641
Memory usage per processor = 8.39153 Mbytes
Step CPU Atoms biomass c_myPres 
   90010            0        9 2.0130269e-17            0 
   91000 0.0034589767        9 2.0130269e-17            0 
   92000 0.0062589645        9 2.0130269e-17            0 
   93000 0.0089299679        9 2.0130269e-17            0 
   94000  0.011568785        9 2.0130269e-17            0 
   95000  0.015880823        9 2.0130269e-17            0 
   96000  0.018796921        9 2.0130269e-17            0 
   97000  0.021640778        9 2.0130269e-17            0 
   98000   0.02430892        9 2.0130269e-17            0 
   99000  0.026959896        9 2.0130269e-17            0 
  100000  0.029613972        9 2.0130269e-17            0 
  100010  0.029678822        9 2.0130269e-17            0 
Loop time of 0.0296917 on 4 procs for 10000 steps with 9 atoms

Performance: 29099044.903 tau/day, 336794.501 timesteps/s
97.7% CPU use with 4 MPI tasks x no OpenMP threads

MPI task timing breakdown:
Section |  min time  |  avg time  |  max time  |%varavg| %total
---------------------------------------------------------------
Pair    | 0.00064516 | 0.00072563 | 0.0007937  |   0.2 |  2.44
Neigh   | 0          | 0          | 0          |   0.0 |  0.00
Comm    | 0.0071936  | 0.0077574  | 0.0080431  |   0.4 | 26.13
Output  | 9.4414e-05 | 0.00010526 | 0.00013471 |   0.2 |  0.35
Modify  | 0.0051603  | 0.0059509  | 0.00646    |   0.6 | 20.04
Other   |            | 0.01515    |            |       | 51.03

Nlocal:    2.25 ave 3 max 1 min
Histogram: 1 0 0 0 0 1 0 0 0 2
Nghost:    2.25 ave 3 max 1 min
Histogram: 1 0 0 0 0 1 0 0 0 2
Neighs:    0 ave 0 max 0 min
Histogram: 4 0 0 0 0 0 0 0 0 0

Total # of neighbors = 0
Ave neighs/atom = 0
Neighbor list builds = 0
Dangerous builds = 0

fix_modify k1 demflag no
fix_modify d1 demflag no

next a
jump SELF loopa
variable    a loop 10000

pair_style  gran/hooke/history 1.e-4 NULL 1.e-5 NULL 0.0 1
pair_coeff  * *

timestep 1800

variable kanc equal 50

fix 1 all nve/limit 1e-7
fix fv all viscous 1e-5

fix zw all wall/gran hooke/history 2000 NULL 500.0 NULL 1.5 0 zplane  0.0   6e-04
fix zwa all walladh v_kanc zplane  0.0   6e-04


##############Ibm functions##############

fix k1 all kinetics 1 15 15 450 v_temp v_rth v_gvol v_gasTran v_ph v_diffT v_blThick demflag no
fix kgm all kinetics/growth/monod v_EPSdens v_etaHET 1
#fix g1 all kinetics/diffusion v_shearRate v_tol pp pp nd kg bulk v_Q v_rvol v_Af
fix d1 all divide 1 v_EPSdens v_divMass 31231 demflag no
#fix vf1 all verify 1 bm1 1 demflag no

run 1
WARNING: EPS is not defined in fix_kinetics/kinetics/monod (../fix_bio_kinetics_monod.cpp:242)
Memory usage per processor = 8.39153 Mbytes
Step CPU Atoms biomass c_myPres 
  100010            0        9 2.0130269e-17            0 
  100011 0.0027000904        9 2.2139205e-17            0 
Loop time of 0.0027113 on 4 procs for 1 steps with 9 atoms

Performance: 57360020935.631 tau/day, 368.827 timesteps/s
110.6% CPU use with 4 MPI tasks x no OpenMP threads

MPI task timing breakdown:
Section |  min time  |  avg time  |  max time  |%varavg| %total
---------------------------------------------------------------
Pair    | 9.5367e-07 | 1.4305e-06 | 1.9073e-06 |   0.0 |  0.05
Neigh   | 6.5088e-05 | 9.9242e-05 | 0.00012898 |   0.3 |  3.66
Comm    | 6.9141e-06 | 7.391e-06  | 7.8678e-06 |   0.0 |  0.27
Output  | 1.7881e-05 | 2.1636e-05 | 2.3842e-05 |   0.0 |  0.80
Modify  | 0.0025444  | 0.0025746  | 0.0026124  |   0.1 | 94.96
Other   |            | 6.974e-06  |            |       |  0.26

Nlocal:    2.25 ave 3 max 1 min
Histogram: 1 0 0 0 0 1 0 0 0 2
Nghost:    2.25 ave 3 max 1 min
Histogram: 1 0 0 0 0 1 0 0 0 2
Neighs:    0 ave 0 max 0 min
Histogram: 4 0 0 0 0 0 0 0 0 0

Total # of neighbors = 0
Ave neighs/atom = 0
Neighbor list builds = 1
Dangerous builds = 0

##############DEM Run##############
fix_modify k1 demflag yes
fix_modify d1 demflag yes

timestep 1e-3
run 10000
WARNING: EPS is not defined in fix_kinetics/kinetics/monod (../fix_bio_kinetics_monod.cpp:242)
Neighbor list info ...
  2 neighbor list requests
  update every 1 steps, delay 0 steps, check yes
  max neighbors/atom: 2000, page size: 100000
  master list distance cutoff = 1.91736e-06
  ghost atom cutoff = 1.91736e-06
  binsize = 9.58678e-07 -> bins = 21 21 626
Memory usage per processor = 8.39153 Mbytes
Step CPU Atoms biomass c_myPres 
  100011            0        9 2.2139205e-17            0 
  101000 0.0030038357        9 2.2139205e-17            0 
  102000 0.0063638687        9 2.2139205e-17            0 
  103000 0.0098779202        9 2.2139205e-17            0 
  104000  0.012681961        9 2.2139205e-17            0 
  105000  0.015571833        9 2.2139205e-17            0 
  106000  0.018224001        9 2.2139205e-17            0 
  107000  0.020880938        9 2.2139205e-17            0 
  108000   0.02351594        9 2.2139205e-17            0 
  109000  0.026540995        9 2.2139205e-17            0 
  110000  0.030539989        9 2.2139205e-17            0 
  110011  0.030612946        9 2.2139205e-17            0 
Loop time of 0.0306242 on 4 procs for 10000 steps with 9 atoms

Performance: 28213026.820 tau/day, 326539.662 timesteps/s
98.0% CPU use with 4 MPI tasks x no OpenMP threads

MPI task timing breakdown:
Section |  min time  |  avg time  |  max time  |%varavg| %total
---------------------------------------------------------------
Pair    | 0.00069118 | 0.0007354  | 0.00079131 |   0.1 |  2.40
Neigh   | 0          | 0          | 0          |   0.0 |  0.00
Comm    | 0.007688   | 0.0079467  | 0.0080624  |   0.2 | 25.95
Output  | 0.00010061 | 0.00011122 | 0.00014114 |   0.2 |  0.36
Modify  | 0.0055108  | 0.0060046  | 0.0064673  |   0.4 | 19.61
Other   |            | 0.01583    |            |       | 51.68

Nlocal:    2.25 ave 3 max 1 min
Histogram: 1 0 0 0 0 1 0 0 0 2
Nghost:    2.25 ave 3 max 1 min
Histogram: 1 0 0 0 0 1 0 0 0 2
Neighs:    0 ave 0 max 0 min
Histogram: 4 0 0 0 0 0 0 0 0 0

Total # of neighbors = 0
Ave neighs/atom = 0
Neighbor list builds = 0
Dangerous builds = 0

fix_modify k1 demflag no
fix_modify d1 demflag no

next a
jump SELF loopa
variable    a loop 10000

pair_style  gran/hooke/history 1.e-4 NULL 1.e-5 NULL 0.0 1
pair_coeff  * *

timestep 1800

variable kanc equal 50

fix 1 all nve/limit 1e-7
fix fv all viscous 1e-5

fix zw all wall/gran hooke/history 2000 NULL 500.0 NULL 1.5 0 zplane  0.0   6e-04
fix zwa all walladh v_kanc zplane  0.0   6e-04


##############Ibm functions##############

fix k1 all kinetics 1 15 15 450 v_temp v_rth v_gvol v_gasTran v_ph v_diffT v_blThick demflag no
fix kgm all kinetics/growth/monod v_EPSdens v_etaHET 1
#fix g1 all kinetics/diffusion v_shearRate v_tol pp pp nd kg bulk v_Q v_rvol v_Af
fix d1 all divide 1 v_EPSdens v_divMass 31231 demflag no
#fix vf1 all verify 1 bm1 1 demflag no

run 1
WARNING: EPS is not defined in fix_kinetics/kinetics/monod (../fix_bio_kinetics_monod.cpp:242)
Memory usage per processor = 8.39153 Mbytes
Step CPU Atoms biomass c_myPres 
  110011            0        9 2.2139205e-17            0 
  110012 0.0024740696        9 2.4348627e-17            0 
Loop time of 0.00248837 on 4 procs for 1 steps with 9 atoms

Performance: 62498625858.005 tau/day, 401.869 timesteps/s
120.6% CPU use with 4 MPI tasks x no OpenMP threads

MPI task timing breakdown:
Section |  min time  |  avg time  |  max time  |%varavg| %total
---------------------------------------------------------------
Pair    | 9.5367e-07 | 2.0862e-06 | 3.0994e-06 |   0.1 |  0.08
Neigh   | 5.9128e-05 | 9.5308e-05 | 0.00012493 |   0.2 |  3.83
Comm    | 7.8678e-06 | 7.8678e-06 | 7.8678e-06 |   0.0 |  0.32
Output  | 2.0027e-05 | 2.4498e-05 | 2.5988e-05 |   0.1 |  0.98
Modify  | 0.0023172  | 0.0023493  | 0.002394   |   0.1 | 94.41
Other   |            | 9.358e-06  |            |       |  0.38

Nlocal:    2.25 ave 3 max 1 min
Histogram: 1 0 0 0 0 1 0 0 0 2
Nghost:    2.25 ave 3 max 1 min
Histogram: 1 0 0 0 0 1 0 0 0 2
Neighs:    0 ave 0 max 0 min
Histogram: 4 0 0 0 0 0 0 0 0 0

Total # of neighbors = 0
Ave neighs/atom = 0
Neighbor list builds = 1
Dangerous builds = 0

##############DEM Run##############
fix_modify k1 demflag yes
fix_modify d1 demflag yes

timestep 1e-3
run 10000
WARNING: EPS is not defined in fix_kinetics/kinetics/monod (../fix_bio_kinetics_monod.cpp:242)
Neighbor list info ...
  2 neighbor list requests
  update every 1 steps, delay 0 steps, check yes
  max neighbors/atom: 2000, page size: 100000
  master list distance cutoff = 1.96302e-06
  ghost atom cutoff = 1.96302e-06
  binsize = 9.81509e-07 -> bins = 21 21 612
Memory usage per processor = 8.39153 Mbytes
Step CPU Atoms biomass c_myPres 
  110012            0        9 2.4348627e-17            0 
  111000 0.0035159588        9 2.4348627e-17            0 
  112000 0.0061619282        9 2.4348627e-17            0 
  113000 0.0089869499        9 2.4348627e-17            0 
  114000  0.011661053        9 2.4348627e-17            0 
  115000  0.014313936        9 2.4348627e-17            0 
  116000  0.017288923        9 2.4348627e-17            0 
  117000  0.019984007        9 2.4348627e-17            0 
  118000  0.024530888        9 2.4348627e-17            0 
  119000  0.027772903        9 2.4348627e-17            0 
  120000  0.030441999        9 2.4348627e-17            0 
  120012  0.030508041        9 2.4348627e-17            0 
Loop time of 0.0305159 on 4 procs for 10000 steps with 9 atoms

Performance: 28313100.373 tau/day, 327697.921 timesteps/s
95.0% CPU use with 4 MPI tasks x no OpenMP threads

MPI task timing breakdown:
Section |  min time  |  avg time  |  max time  |%varavg| %total
---------------------------------------------------------------
Pair    | 0.00068331 | 0.00075829 | 0.00080514 |   0.2 |  2.48
Neigh   | 0          | 0          | 0          |   0.0 |  0.00
Comm    | 0.007304   | 0.0079346  | 0.0081966  |   0.4 | 26.00
Output  | 0.00010371 | 0.00011593 | 0.00014615 |   0.2 |  0.38
Modify  | 0.0053208  | 0.0060265  | 0.0064888  |   0.6 | 19.75
Other   |            | 0.01568    |            |       | 51.38

Nlocal:    2.25 ave 3 max 1 min
Histogram: 1 0 0 0 0 1 0 0 0 2
Nghost:    2.25 ave 3 max 1 min
Histogram: 1 0 0 0 0 1 0 0 0 2
Neighs:    0 ave 0 max 0 min
Histogram: 4 0 0 0 0 0 0 0 0 0

Total # of neighbors = 0
Ave neighs/atom = 0
Neighbor list builds = 0
Dangerous builds = 0

fix_modify k1 demflag no
fix_modify d1 demflag no

next a
jump SELF loopa
variable    a loop 10000

pair_style  gran/hooke/history 1.e-4 NULL 1.e-5 NULL 0.0 1
pair_coeff  * *

timestep 1800

variable kanc equal 50

fix 1 all nve/limit 1e-7
fix fv all viscous 1e-5

fix zw all wall/gran hooke/history 2000 NULL 500.0 NULL 1.5 0 zplane  0.0   6e-04
fix zwa all walladh v_kanc zplane  0.0   6e-04


##############Ibm functions##############

fix k1 all kinetics 1 15 15 450 v_temp v_rth v_gvol v_gasTran v_ph v_diffT v_blThick demflag no
fix kgm all kinetics/growth/monod v_EPSdens v_etaHET 1
#fix g1 all kinetics/diffusion v_shearRate v_tol pp pp nd kg bulk v_Q v_rvol v_Af
fix d1 all divide 1 v_EPSdens v_divMass 31231 demflag no
#fix vf1 all verify 1 bm1 1 demflag no

run 1
WARNING: EPS is not defined in fix_kinetics/kinetics/monod (../fix_bio_kinetics_monod.cpp:242)
Memory usage per processor = 8.39153 Mbytes
Step CPU Atoms biomass c_myPres 
  120012            0        9 2.4348627e-17            0 
  120013 0.0027151108        9 2.6778542e-17            0 
Loop time of 0.00273347 on 4 procs for 1 steps with 9 atoms

Performance: 56894736858.264 tau/day, 365.835 timesteps/s
109.8% CPU use with 4 MPI tasks x no OpenMP threads

MPI task timing breakdown:
Section |  min time  |  avg time  |  max time  |%varavg| %total
---------------------------------------------------------------
Pair    | 9.5367e-07 | 2.0266e-06 | 3.0994e-06 |   0.1 |  0.07
Neigh   | 6.7949e-05 | 7.8976e-05 | 8.5831e-05 |   0.1 |  2.89
Comm    | 6.9141e-06 | 8.2254e-06 | 9.0599e-06 |   0.0 |  0.30
Output  | 2.2888e-05 | 2.3782e-05 | 2.408e-05  |   0.0 |  0.87
Modify  | 0.0025978  | 0.0026069  | 0.0026174  |   0.0 | 95.37
Other   |            | 1.359e-05  |            |       |  0.50

Nlocal:    2.25 ave 3 max 1 min
Histogram: 1 0 0 0 0 1 0 0 0 2
Nghost:    2.25 ave 3 max 1 min
Histogram: 1 0 0 0 0 1 0 0 0 2
Neighs:    0 ave 0 max 0 min
Histogram: 4 0 0 0 0 0 0 0 0 0

Total # of neighbors = 0
Ave neighs/atom = 0
Neighbor list builds = 1
Dangerous builds = 0

##############DEM Run##############
fix_modify k1 demflag yes
fix_modify d1 demflag yes

timestep 1e-3
run 10000
WARNING: EPS is not defined in fix_kinetics/kinetics/monod (../fix_bio_kinetics_monod.cpp:242)
Neighbor list info ...
  2 neighbor list requests
  update every 1 steps, delay 0 steps, check yes
  max neighbors/atom: 2000, page size: 100000
  master list distance cutoff = 2.01015e-06
  ghost atom cutoff = 2.01015e-06
  binsize = 1.00508e-06 -> bins = 20 20 597
Memory usage per processor = 8.39153 Mbytes
Step CPU Atoms biomass c_myPres 
  120013            0        9 2.6778542e-17            0 
  121000 0.0026328564        9 2.6778542e-17            0 
  122000 0.0053179264        9 2.6778542e-17            0 
  123000 0.0079669952        9 2.6778542e-17            0 
  124000  0.011098862        9 2.6778542e-17            0 
  125000  0.014199972        9 2.6778542e-17            0 
  126000  0.018610001        9 2.6778542e-17            0 
  127000  0.021342993        9 2.6778542e-17            0 
  128000  0.024076939        9 2.6778542e-17            0 
  129000  0.027133942        9 2.6778542e-17            0 
  130000  0.029771805        9 2.6778542e-17            0 
  130013  0.029848814        9 2.6778542e-17            0 
Loop time of 0.0298569 on 4 procs for 10000 steps with 9 atoms

Performance: 28938014.805 tau/day, 334930.727 timesteps/s
100.5% CPU use with 4 MPI tasks x no OpenMP threads

MPI task timing breakdown:
Section |  min time  |  avg time  |  max time  |%varavg| %total
---------------------------------------------------------------
Pair    | 0.0006988  | 0.00074774 | 0.00078654 |   0.1 |  2.50
Neigh   | 0          | 0          | 0          |   0.0 |  0.00
Comm    | 0.0075476  | 0.0077969  | 0.0080671  |   0.2 | 26.11
Output  | 9.1553e-05 | 0.00010216 | 0.0001328  |   0.2 |  0.34
Modify  | 0.0055044  | 0.006001   | 0.0063453  |   0.4 | 20.10
Other   |            | 0.01521    |            |       | 50.94

Nlocal:    2.25 ave 3 max 1 min
Histogram: 1 0 0 0 0 1 0 0 0 2
Nghost:    2.25 ave 3 max 1 min
Histogram: 1 0 0 0 0 1 0 0 0 2
Neighs:    0 ave 0 max 0 min
Histogram: 4 0 0 0 0 0 0 0 0 0

Total # of neighbors = 0
Ave neighs/atom = 0
Neighbor list builds = 0
Dangerous builds = 0

fix_modify k1 demflag no
fix_modify d1 demflag no

next a
jump SELF loopa
variable    a loop 10000

pair_style  gran/hooke/history 1.e-4 NULL 1.e-5 NULL 0.0 1
pair_coeff  * *

timestep 1800

variable kanc equal 50

fix 1 all nve/limit 1e-7
fix fv all viscous 1e-5

fix zw all wall/gran hooke/history 2000 NULL 500.0 NULL 1.5 0 zplane  0.0   6e-04
fix zwa all walladh v_kanc zplane  0.0   6e-04


##############Ibm functions##############

fix k1 all kinetics 1 15 15 450 v_temp v_rth v_gvol v_gasTran v_ph v_diffT v_blThick demflag no
fix kgm all kinetics/growth/monod v_EPSdens v_etaHET 1
#fix g1 all kinetics/diffusion v_shearRate v_tol pp pp nd kg bulk v_Q v_rvol v_Af
fix d1 all divide 1 v_EPSdens v_divMass 31231 demflag no
#fix vf1 all verify 1 bm1 1 demflag no

run 1
WARNING: EPS is not defined in fix_kinetics/kinetics/monod (../fix_bio_kinetics_monod.cpp:242)
Memory usage per processor = 8.39153 Mbytes
Step CPU Atoms biomass c_myPres 
  130013            0        9 2.6778542e-17            0 
  130014 0.0023329258        9 2.9450955e-17            0 
Loop time of 0.00234604 on 4 procs for 1 steps with 9 atoms

Performance: 66290463219.512 tau/day, 426.250 timesteps/s
85.3% CPU use with 4 MPI tasks x no OpenMP threads

MPI task timing breakdown:
Section |  min time  |  avg time  |  max time  |%varavg| %total
---------------------------------------------------------------
Pair    | 9.5367e-07 | 1.7285e-06 | 2.1458e-06 |   0.0 |  0.07
Neigh   | 6.3181e-05 | 7.2777e-05 | 8.5831e-05 |   0.1 |  3.10
Comm    | 6.9141e-06 | 7.5102e-06 | 8.1062e-06 |   0.0 |  0.32
Output  | 1.812e-05  | 2.3305e-05 | 2.5034e-05 |   0.1 |  0.99
Modify  | 0.0022249  | 0.0022317  | 0.0022388  |   0.0 | 95.13
Other   |            | 9e-06      |            |       |  0.38

Nlocal:    2.25 ave 3 max 1 min
Histogram: 1 0 0 0 0 1 0 0 0 2
Nghost:    2.25 ave 3 max 1 min
Histogram: 1 0 0 0 0 1 0 0 0 2
Neighs:    0 ave 0 max 0 min
Histogram: 4 0 0 0 0 0 0 0 0 0

Total # of neighbors = 0
Ave neighs/atom = 0
Neighbor list builds = 1
Dangerous builds = 0

##############DEM Run##############
fix_modify k1 demflag yes
fix_modify d1 demflag yes

timestep 1e-3
run 10000
WARNING: EPS is not defined in fix_kinetics/kinetics/monod (../fix_bio_kinetics_monod.cpp:242)
Neighbor list info ...
  2 neighbor list requests
  update every 1 steps, delay 0 steps, check yes
  max neighbors/atom: 2000, page size: 100000
  master list distance cutoff = 2.0588e-06
  ghost atom cutoff = 2.0588e-06
  binsize = 1.0294e-06 -> bins = 20 20 583
Memory usage per processor = 8.39153 Mbytes
Step CPU Atoms biomass c_myPres 
  130014            0        9 2.9450955e-17            0 
  131000 0.0026738644        9 2.9450955e-17            0 
  132000 0.0069029331        9 2.9450955e-17            0 
  133000  0.011196852        9 2.9450955e-17            0 
  134000  0.013839006        9 2.9450955e-17            0 
  135000  0.016902924        9 2.9450955e-17            0 
  136000   0.01956892        9 2.9450955e-17            0 
  137000  0.022193909        9 2.9450955e-17            0 
  138000   0.02499795        9 2.9450955e-17            0 
  139000  0.027823925        9 2.9450955e-17            0 
  140000  0.030686855        9 2.9450955e-17            0 
  140014  0.030771017        9 2.9450955e-17            0 
Loop time of 0.0307791 on 4 procs for 10000 steps with 9 atoms

Performance: 28070974.972 tau/day, 324895.544 timesteps/s
100.7% CPU use with 4 MPI tasks x no OpenMP threads

MPI task timing breakdown:
Section |  min time  |  avg time  |  max time  |%varavg| %total
---------------------------------------------------------------
Pair    | 0.00073195 | 0.0007565  | 0.00078177 |   0.1 |  2.46
Neigh   | 0          | 0          | 0          |   0.0 |  0.00
Comm    | 0.0074759  | 0.0079696  | 0.0083454  |   0.4 | 25.89
Output  | 9.6083e-05 | 0.00010777 | 0.00014091 |   0.2 |  0.35
Modify  | 0.0054827  | 0.0061175  | 0.0065703  |   0.5 | 19.88
Other   |            | 0.01583    |            |       | 51.42

Nlocal:    2.25 ave 3 max 1 min
Histogram: 1 0 0 0 0 1 0 0 0 2
Nghost:    2.25 ave 3 max 1 min
Histogram: 1 0 0 0 0 1 0 0 0 2
Neighs:    0 ave 0 max 0 min
Histogram: 4 0 0 0 0 0 0 0 0 0

Total # of neighbors = 0
Ave neighs/atom = 0
Neighbor list builds = 0
Dangerous builds = 0

fix_modify k1 demflag no
fix_modify d1 demflag no

next a
jump SELF loopa
variable    a loop 10000

pair_style  gran/hooke/history 1.e-4 NULL 1.e-5 NULL 0.0 1
pair_coeff  * *

timestep 1800

variable kanc equal 50

fix 1 all nve/limit 1e-7
fix fv all viscous 1e-5

fix zw all wall/gran hooke/history 2000 NULL 500.0 NULL 1.5 0 zplane  0.0   6e-04
fix zwa all walladh v_kanc zplane  0.0   6e-04


##############Ibm functions##############

fix k1 all kinetics 1 15 15 450 v_temp v_rth v_gvol v_gasTran v_ph v_diffT v_blThick demflag no
fix kgm all kinetics/growth/monod v_EPSdens v_etaHET 1
#fix g1 all kinetics/diffusion v_shearRate v_tol pp pp nd kg bulk v_Q v_rvol v_Af
fix d1 all divide 1 v_EPSdens v_divMass 31231 demflag no
#fix vf1 all verify 1 bm1 1 demflag no

run 1
WARNING: EPS is not defined in fix_kinetics/kinetics/monod (../fix_bio_kinetics_monod.cpp:242)
Memory usage per processor = 8.39153 Mbytes
Step CPU Atoms biomass c_myPres 
  140014            0        9 2.9450955e-17            0 
  140015 0.0025792122        9 3.2390066e-17            0 
Loop time of 0.00259507 on 4 procs for 1 steps with 9 atoms

Performance: 59929087976.480 tau/day, 385.347 timesteps/s
77.1% CPU use with 4 MPI tasks x no OpenMP threads

MPI task timing breakdown:
Section |  min time  |  avg time  |  max time  |%varavg| %total
---------------------------------------------------------------
Pair    | 1.9073e-06 | 1.9073e-06 | 1.9073e-06 |   0.0 |  0.07
Neigh   | 5.0068e-05 | 8.0287e-05 | 0.00011396 |   0.3 |  3.09
Comm    | 6.9141e-06 | 7.391e-06  | 7.8678e-06 |   0.0 |  0.28
Output  | 2.3127e-05 | 3.016e-05  | 3.314e-05  |   0.1 |  1.16
Modify  | 0.0024271  | 0.0024643  | 0.002506   |   0.1 | 94.96
Other   |            | 1.103e-05  |            |       |  0.42

Nlocal:    2.25 ave 3 max 1 min
Histogram: 1 0 0 0 0 1 0 0 0 2
Nghost:    2.25 ave 3 max 1 min
Histogram: 1 0 0 0 0 1 0 0 0 2
Neighs:    0 ave 0 max 0 min
Histogram: 4 0 0 0 0 0 0 0 0 0

Total # of neighbors = 0
Ave neighs/atom = 0
Neighbor list builds = 1
Dangerous builds = 0

##############DEM Run##############
fix_modify k1 demflag yes
fix_modify d1 demflag yes

timestep 1e-3
run 10000
WARNING: EPS is not defined in fix_kinetics/kinetics/monod (../fix_bio_kinetics_monod.cpp:242)
Neighbor list info ...
  2 neighbor list requests
  update every 1 steps, delay 0 steps, check yes
  max neighbors/atom: 2000, page size: 100000
  master list distance cutoff = 2.10902e-06
  ghost atom cutoff = 2.10902e-06
  binsize = 1.05451e-06 -> bins = 19 19 569
Memory usage per processor = 8.39153 Mbytes
Step CPU Atoms biomass c_myPres 
  140015            0        9 3.2390066e-17            0 
  141000 0.0043098927        9 3.2390066e-17            0 
  142000 0.0069739819        9 3.2390066e-17            0 
  143000 0.0096180439        9 3.2390066e-17            0 
  144000  0.012276888        9 3.2390066e-17            0 
  145000  0.015341997        9 3.2390066e-17            0 
  146000  0.018172026        9 3.2390066e-17            0 
  147000  0.021003962        9 3.2390066e-17            0 
  148000  0.023936033        9 3.2390066e-17            0 
  149000  0.027963877        9 3.2390066e-17            0 
  150000  0.030881882        9 3.2390066e-17            0 
  150015  0.030967951        9 3.2390066e-17            0 
Loop time of 0.0309758 on 4 procs for 10000 steps with 9 atoms

Performance: 27892725.297 tau/day, 322832.469 timesteps/s
96.8% CPU use with 4 MPI tasks x no OpenMP threads

MPI task timing breakdown:
Section |  min time  |  avg time  |  max time  |%varavg| %total
---------------------------------------------------------------
Pair    | 0.00071669 | 0.00072795 | 0.00074196 |   0.0 |  2.35
Neigh   | 0          | 0          | 0          |   0.0 |  0.00
Comm    | 0.0075591  | 0.0079244  | 0.0083227  |   0.3 | 25.58
Output  | 9.1076e-05 | 0.00010258 | 0.00013399 |   0.2 |  0.33
Modify  | 0.0056646  | 0.0060774  | 0.0062933  |   0.3 | 19.62
Other   |            | 0.01614    |            |       | 52.12

Nlocal:    2.25 ave 3 max 1 min
Histogram: 1 0 0 0 0 1 0 0 0 2
Nghost:    2.25 ave 3 max 1 min
Histogram: 1 0 0 0 0 1 0 0 0 2
Neighs:    0 ave 0 max 0 min
Histogram: 4 0 0 0 0 0 0 0 0 0

Total # of neighbors = 0
Ave neighs/atom = 0
Neighbor list builds = 0
Dangerous builds = 0

fix_modify k1 demflag no
fix_modify d1 demflag no

next a
jump SELF loopa
variable    a loop 10000

pair_style  gran/hooke/history 1.e-4 NULL 1.e-5 NULL 0.0 1
pair_coeff  * *

timestep 1800

variable kanc equal 50

fix 1 all nve/limit 1e-7
fix fv all viscous 1e-5

fix zw all wall/gran hooke/history 2000 NULL 500.0 NULL 1.5 0 zplane  0.0   6e-04
fix zwa all walladh v_kanc zplane  0.0   6e-04


##############Ibm functions##############

fix k1 all kinetics 1 15 15 450 v_temp v_rth v_gvol v_gasTran v_ph v_diffT v_blThick demflag no
fix kgm all kinetics/growth/monod v_EPSdens v_etaHET 1
#fix g1 all kinetics/diffusion v_shearRate v_tol pp pp nd kg bulk v_Q v_rvol v_Af
fix d1 all divide 1 v_EPSdens v_divMass 31231 demflag no
#fix vf1 all verify 1 bm1 1 demflag no

run 1
WARNING: EPS is not defined in fix_kinetics/kinetics/monod (../fix_bio_kinetics_monod.cpp:242)
Memory usage per processor = 8.39153 Mbytes
Step CPU Atoms biomass c_myPres 
  150015            0        9 3.2390066e-17            0 
  150016 0.0025930405        9 3.562249e-17            0 
Loop time of 0.00261307 on 4 procs for 1 steps with 9 atoms

Performance: 59516255299.270 tau/day, 382.692 timesteps/s
114.8% CPU use with 4 MPI tasks x no OpenMP threads

MPI task timing breakdown:
Section |  min time  |  avg time  |  max time  |%varavg| %total
---------------------------------------------------------------
Pair    | 1.1921e-06 | 2.0862e-06 | 3.0994e-06 |   0.0 |  0.08
Neigh   | 6.485e-05  | 8.3387e-05 | 0.00010085 |   0.1 |  3.19
Comm    | 6.9141e-06 | 7.8082e-06 | 8.1062e-06 |   0.0 |  0.30
Output  | 2.3842e-05 | 2.9922e-05 | 3.1948e-05 |   0.1 |  1.15
Modify  | 0.0024559  | 0.0024768  | 0.0024922  |   0.0 | 94.79
Other   |            | 1.305e-05  |            |       |  0.50

Nlocal:    2.25 ave 3 max 1 min
Histogram: 1 0 0 0 0 1 0 0 0 2
Nghost:    2.25 ave 3 max 1 min
Histogram: 1 0 0 0 0 1 0 0 0 2
Neighs:    0 ave 0 max 0 min
Histogram: 4 0 0 0 0 0 0 0 0 0

Total # of neighbors = 0
Ave neighs/atom = 0
Neighbor list builds = 1
Dangerous builds = 0

##############DEM Run##############
fix_modify k1 demflag yes
fix_modify d1 demflag yes

timestep 1e-3
run 10000
WARNING: EPS is not defined in fix_kinetics/kinetics/monod (../fix_bio_kinetics_monod.cpp:242)
Neighbor list info ...
  2 neighbor list requests
  update every 1 steps, delay 0 steps, check yes
  max neighbors/atom: 2000, page size: 100000
  master list distance cutoff = 2.16086e-06
  ghost atom cutoff = 2.16086e-06
  binsize = 1.08043e-06 -> bins = 19 19 556
Memory usage per processor = 8.39153 Mbytes
Step CPU Atoms biomass c_myPres 
  150016            0        9 3.562249e-17            0 
  151000 0.0027630329        9 3.562249e-17            0 
  152000 0.0054550171        9 3.562249e-17            0 
  153000 0.0081710815        9 3.562249e-17            0 
  154000  0.011177063        9 3.562249e-17            0 
  155000  0.014434099        9 3.562249e-17            0 
  156000   0.01779604        9 3.562249e-17            0 
  157000  0.021168947        9 3.562249e-17            0 
  158000  0.023983002        9 3.562249e-17            0 
  159000  0.027287006        9 3.562249e-17            0 
  160000  0.031039953        9 3.562249e-17            0 
  160016   0.03113699        9 3.562249e-17            0 
Loop time of 0.0311451 on 4 procs for 10000 steps with 9 atoms

Performance: 27741125.115 tau/day, 321077.837 timesteps/s
99.5% CPU use with 4 MPI tasks x no OpenMP threads

MPI task timing breakdown:
Section |  min time  |  avg time  |  max time  |%varavg| %total
---------------------------------------------------------------
Pair    | 0.00070357 | 0.00072581 | 0.00074601 |   0.1 |  2.33
Neigh   | 0          | 0          | 0          |   0.0 |  0.00
Comm    | 0.0077753  | 0.0080027  | 0.0081265  |   0.2 | 25.69
Output  | 0.00011039 | 0.00012183 | 0.00015306 |   0.2 |  0.39
Modify  | 0.0056124  | 0.0061029  | 0.0065334  |   0.4 | 19.60
Other   |            | 0.01619    |            |       | 51.99

Nlocal:    2.25 ave 3 max 1 min
Histogram: 1 0 0 0 0 1 0 0 0 2
Nghost:    2.25 ave 3 max 1 min
Histogram: 1 0 0 0 0 1 0 0 0 2
Neighs:    0 ave 0 max 0 min
Histogram: 4 0 0 0 0 0 0 0 0 0

Total # of neighbors = 0
Ave neighs/atom = 0
Neighbor list builds = 0
Dangerous builds = 0

fix_modify k1 demflag no
fix_modify d1 demflag no

next a
jump SELF loopa
variable    a loop 10000

pair_style  gran/hooke/history 1.e-4 NULL 1.e-5 NULL 0.0 1
pair_coeff  * *

timestep 1800

variable kanc equal 50

fix 1 all nve/limit 1e-7
fix fv all viscous 1e-5

fix zw all wall/gran hooke/history 2000 NULL 500.0 NULL 1.5 0 zplane  0.0   6e-04
fix zwa all walladh v_kanc zplane  0.0   6e-04


##############Ibm functions##############

fix k1 all kinetics 1 15 15 450 v_temp v_rth v_gvol v_gasTran v_ph v_diffT v_blThick demflag no
fix kgm all kinetics/growth/monod v_EPSdens v_etaHET 1
#fix g1 all kinetics/diffusion v_shearRate v_tol pp pp nd kg bulk v_Q v_rvol v_Af
fix d1 all divide 1 v_EPSdens v_divMass 31231 demflag no
#fix vf1 all verify 1 bm1 1 demflag no

run 1
WARNING: EPS is not defined in fix_kinetics/kinetics/monod (../fix_bio_kinetics_monod.cpp:242)
Memory usage per processor = 8.39153 Mbytes
Step CPU Atoms biomass c_myPres 
  160016            0        9 3.562249e-17            0 
  160017 0.0023179054        9 3.9177501e-17            0 
Loop time of 0.00233269 on 4 procs for 1 steps with 9 atoms

Performance: 66669885331.153 tau/day, 428.690 timesteps/s
85.7% CPU use with 4 MPI tasks x no OpenMP threads

MPI task timing breakdown:
Section |  min time  |  avg time  |  max time  |%varavg| %total
---------------------------------------------------------------
Pair    | 1.9073e-06 | 1.967e-06  | 2.1458e-06 |   0.0 |  0.08
Neigh   | 4.6015e-05 | 6.5267e-05 | 8.1062e-05 |   0.2 |  2.80
Comm    | 5.9605e-06 | 6.4373e-06 | 6.9141e-06 |   0.0 |  0.28
Output  | 1.8835e-05 | 2.2769e-05 | 2.408e-05  |   0.0 |  0.98
Modify  | 0.0022092  | 0.0022257  | 0.00225    |   0.0 | 95.41
Other   |            | 1.055e-05  |            |       |  0.45

Nlocal:    2.25 ave 3 max 1 min
Histogram: 1 0 0 0 0 1 0 0 0 2
Nghost:    2.25 ave 3 max 1 min
Histogram: 1 0 0 0 0 1 0 0 0 2
Neighs:    0 ave 0 max 0 min
Histogram: 4 0 0 0 0 0 0 0 0 0

Total # of neighbors = 0
Ave neighs/atom = 0
Neighbor list builds = 1
Dangerous builds = 0

##############DEM Run##############
fix_modify k1 demflag yes
fix_modify d1 demflag yes

timestep 1e-3
run 10000
WARNING: EPS is not defined in fix_kinetics/kinetics/monod (../fix_bio_kinetics_monod.cpp:242)
Neighbor list info ...
  2 neighbor list requests
  update every 1 steps, delay 0 steps, check yes
  max neighbors/atom: 2000, page size: 100000
  master list distance cutoff = 2.21437e-06
  ghost atom cutoff = 2.21437e-06
  binsize = 1.10718e-06 -> bins = 19 19 542
Memory usage per processor = 8.39153 Mbytes
Step CPU Atoms biomass c_myPres 
  160017            0        9 3.9177501e-17            0 
  161000 0.0028860569        9 3.9177501e-17            0 
  162000 0.0066990852        9 3.9177501e-17            0 
  163000 0.0093450546        9 3.9177501e-17            0 
  164000  0.012203932        9 3.9177501e-17            0 
  165000  0.015567064        9 3.9177501e-17            0 
  166000  0.018877983        9 3.9177501e-17            0 
  167000   0.02173996        9 3.9177501e-17            0 
  168000  0.024388075        9 3.9177501e-17            0 
  169000  0.027035952        9 3.9177501e-17            0 
  170000   0.02997613        9 3.9177501e-17            0 
  170017  0.030066967        9 3.9177501e-17            0 
Loop time of 0.0300758 on 4 procs for 10000 steps with 9 atoms

Performance: 28727426.384 tau/day, 332493.361 timesteps/s
103.1% CPU use with 4 MPI tasks x no OpenMP threads

MPI task timing breakdown:
Section |  min time  |  avg time  |  max time  |%varavg| %total
---------------------------------------------------------------
Pair    | 0.00070977 | 0.00073701 | 0.00076699 |   0.1 |  2.45
Neigh   | 0          | 0          | 0          |   0.0 |  0.00
Comm    | 0.0076334  | 0.0077953  | 0.0079141  |   0.1 | 25.92
Output  | 9.9421e-05 | 0.00011384 | 0.00014949 |   0.2 |  0.38
Modify  | 0.0054908  | 0.0060001  | 0.0064542  |   0.5 | 19.95
Other   |            | 0.01543    |            |       | 51.30

Nlocal:    2.25 ave 3 max 1 min
Histogram: 1 0 0 0 0 1 0 0 0 2
Nghost:    2.25 ave 3 max 1 min
Histogram: 1 0 0 0 0 1 0 0 0 2
Neighs:    0 ave 0 max 0 min
Histogram: 4 0 0 0 0 0 0 0 0 0

Total # of neighbors = 0
Ave neighs/atom = 0
Neighbor list builds = 0
Dangerous builds = 0

fix_modify k1 demflag no
fix_modify d1 demflag no

next a
jump SELF loopa
variable    a loop 10000

pair_style  gran/hooke/history 1.e-4 NULL 1.e-5 NULL 0.0 1
pair_coeff  * *

timestep 1800

variable kanc equal 50

fix 1 all nve/limit 1e-7
fix fv all viscous 1e-5

fix zw all wall/gran hooke/history 2000 NULL 500.0 NULL 1.5 0 zplane  0.0   6e-04
fix zwa all walladh v_kanc zplane  0.0   6e-04


##############Ibm functions##############

fix k1 all kinetics 1 15 15 450 v_temp v_rth v_gvol v_gasTran v_ph v_diffT v_blThick demflag no
fix kgm all kinetics/growth/monod v_EPSdens v_etaHET 1
#fix g1 all kinetics/diffusion v_shearRate v_tol pp pp nd kg bulk v_Q v_rvol v_Af
fix d1 all divide 1 v_EPSdens v_divMass 31231 demflag no
#fix vf1 all verify 1 bm1 1 demflag no

run 1
WARNING: EPS is not defined in fix_kinetics/kinetics/monod (../fix_bio_kinetics_monod.cpp:242)
Memory usage per processor = 8.39153 Mbytes
Step CPU Atoms biomass c_myPres 
  170017            0        9 3.9177501e-17            0 
  170018 0.0026311874        9 4.308729e-17            0 
Loop time of 0.00265127 on 4 procs for 1 steps with 9 atoms

Performance: 58658587538.949 tau/day, 377.177 timesteps/s
113.2% CPU use with 4 MPI tasks x no OpenMP threads

MPI task timing breakdown:
Section |  min time  |  avg time  |  max time  |%varavg| %total
---------------------------------------------------------------
Pair    | 1.9073e-06 | 1.967e-06  | 2.1458e-06 |   0.0 |  0.07
Neigh   | 4.3869e-05 | 6.3658e-05 | 8.297e-05  |   0.2 |  2.40
Comm    | 7.1526e-06 | 7.1526e-06 | 7.1526e-06 |   0.0 |  0.27
Output  | 3.1948e-05 | 3.7074e-05 | 3.9101e-05 |   0.0 |  1.40
Modify  | 0.002506   | 0.0025288  | 0.0025592  |   0.0 | 95.38
Other   |            | 1.264e-05  |            |       |  0.48

Nlocal:    2.25 ave 3 max 1 min
Histogram: 1 0 0 0 0 1 0 0 0 2
Nghost:    2.25 ave 3 max 1 min
Histogram: 1 0 0 0 0 1 0 0 0 2
Neighs:    0 ave 0 max 0 min
Histogram: 4 0 0 0 0 0 0 0 0 0

Total # of neighbors = 0
Ave neighs/atom = 0
Neighbor list builds = 1
Dangerous builds = 0

##############DEM Run##############
fix_modify k1 demflag yes
fix_modify d1 demflag yes

timestep 1e-3
run 10000
WARNING: EPS is not defined in fix_kinetics/kinetics/monod (../fix_bio_kinetics_monod.cpp:242)
Neighbor list info ...
  2 neighbor list requests
  update every 1 steps, delay 0 steps, check yes
  max neighbors/atom: 2000, page size: 100000
  master list distance cutoff = 2.2696e-06
  ghost atom cutoff = 2.2696e-06
  binsize = 1.1348e-06 -> bins = 18 18 529
Memory usage per processor = 8.39153 Mbytes
Step CPU Atoms biomass c_myPres 
  170018            0        9 4.308729e-17            0 
  171000 0.0031108856        9 4.308729e-17            0 
  172000 0.0061869621        9 4.308729e-17            0 
  173000 0.0088639259        9 4.308729e-17            0 
  174000  0.011543989        9 4.308729e-17            0 
  175000  0.014298916        9 4.308729e-17            0 
  176000  0.016948938        9 4.308729e-17            0 
  177000    0.0195961        9 4.308729e-17            0 
  178000  0.022289991        9 4.308729e-17            0 
  179000  0.025394917        9 4.308729e-17            0 
  180000  0.029639959        9 4.308729e-17            0 
  180018  0.029736996        9 4.308729e-17            0 
Loop time of 0.0297456 on 4 procs for 10000 steps with 9 atoms

Performance: 29046333.467 tau/day, 336184.415 timesteps/s
100.9% CPU use with 4 MPI tasks x no OpenMP threads

MPI task timing breakdown:
Section |  min time  |  avg time  |  max time  |%varavg| %total
---------------------------------------------------------------
Pair    | 0.00071502 | 0.00073493 | 0.00075316 |   0.1 |  2.47
Neigh   | 0          | 0          | 0          |   0.0 |  0.00
Comm    | 0.0072994  | 0.0077156  | 0.0079782  |   0.3 | 25.94
Output  | 9.4414e-05 | 0.00010461 | 0.0001328  |   0.2 |  0.35
Modify  | 0.0053127  | 0.0059998  | 0.0064206  |   0.6 | 20.17
Other   |            | 0.01519    |            |       | 51.07

Nlocal:    2.25 ave 3 max 1 min
Histogram: 1 0 0 0 0 1 0 0 0 2
Nghost:    2.25 ave 3 max 1 min
Histogram: 1 0 0 0 0 1 0 0 0 2
Neighs:    0 ave 0 max 0 min
Histogram: 4 0 0 0 0 0 0 0 0 0

Total # of neighbors = 0
Ave neighs/atom = 0
Neighbor list builds = 0
Dangerous builds = 0

fix_modify k1 demflag no
fix_modify d1 demflag no

next a
jump SELF loopa
variable    a loop 10000

pair_style  gran/hooke/history 1.e-4 NULL 1.e-5 NULL 0.0 1
pair_coeff  * *

timestep 1800

variable kanc equal 50

fix 1 all nve/limit 1e-7
fix fv all viscous 1e-5

fix zw all wall/gran hooke/history 2000 NULL 500.0 NULL 1.5 0 zplane  0.0   6e-04
fix zwa all walladh v_kanc zplane  0.0   6e-04


##############Ibm functions##############

fix k1 all kinetics 1 15 15 450 v_temp v_rth v_gvol v_gasTran v_ph v_diffT v_blThick demflag no
fix kgm all kinetics/growth/monod v_EPSdens v_etaHET 1
#fix g1 all kinetics/diffusion v_shearRate v_tol pp pp nd kg bulk v_Q v_rvol v_Af
fix d1 all divide 1 v_EPSdens v_divMass 31231 demflag no
#fix vf1 all verify 1 bm1 1 demflag no

run 1
WARNING: EPS is not defined in fix_kinetics/kinetics/monod (../fix_bio_kinetics_monod.cpp:242)
Memory usage per processor = 8.39153 Mbytes
Step CPU Atoms biomass c_myPres 
  180018            0        9 4.308729e-17            0 
  180019 0.0022540092        9 4.7387263e-17            0 
[...]
Modify  | 0.044829   | 0.050959   | 0.054277   |   1.6 |  3.90
Other   |            | 0.1013     |            |       |  7.75

Nlocal:    77.75 ave 85 max 63 min
Histogram: 1 0 0 0 0 0 0 0 2 1
Nghost:    756.25 ave 769 max 736 min
Histogram: 1 0 0 0 0 0 1 1 0 1
Neighs:    1208 ave 1304 max 1011 min
Histogram: 1 0 0 0 0 0 0 0 2 1

Total # of neighbors = 4832
Ave neighs/atom = 15.537
Neighbor list builds = 145
Dangerous builds = 0

fix_modify k1 demflag no
fix_modify d1 demflag no

next a
jump SELF loopa
variable    a loop 10000

pair_style  gran/hooke/history 1.e-4 NULL 1.e-5 NULL 0.0 1
pair_coeff  * *

timestep 1800

variable kanc equal 50

fix 1 all nve/limit 1e-7
fix fv all viscous 1e-5

fix zw all wall/gran hooke/history 2000 NULL 500.0 NULL 1.5 0 zplane  0.0   6e-04
fix zwa all walladh v_kanc zplane  0.0   6e-04


##############Ibm functions##############

fix k1 all kinetics 1 15 15 450 v_temp v_rth v_gvol v_gasTran v_ph v_diffT v_blThick demflag no
fix kgm all kinetics/growth/monod v_EPSdens v_etaHET 1
#fix g1 all kinetics/diffusion v_shearRate v_tol pp pp nd kg bulk v_Q v_rvol v_Af
fix d1 all divide 1 v_EPSdens v_divMass 31231 demflag no
#fix vf1 all verify 1 bm1 1 demflag no

run 1
WARNING: EPS is not defined in fix_kinetics/kinetics/monod (../fix_bio_kinetics_monod.cpp:242)
Memory usage per processor = 8.57881 Mbytes
Step CPU Atoms biomass c_myPres 
 1060106            0      311 1.8614217e-13    3.3273353 
 1060107 0.0026340485      338 2.0471857e-13    3.8656312 
Loop time of 0.00264621 on 4 procs for 1 steps with 338 atoms

Performance: 58770894502.207 tau/day, 377.899 timesteps/s
75.6% CPU use with 4 MPI tasks x no OpenMP threads

MPI task timing breakdown:
Section |  min time  |  avg time  |  max time  |%varavg| %total
---------------------------------------------------------------
Pair    | 9.6083e-05 | 0.00013828 | 0.00016403 |   0.2 |  5.23
Neigh   | 0.00012112 | 0.00015926 | 0.00018787 |   0.2 |  6.02
Comm    | 8.297e-05  | 8.8453e-05 | 9.3937e-05 |   0.0 |  3.34
Output  | 1.502e-05  | 3.8505e-05 | 7.2002e-05 |   0.3 |  1.46
Modify  | 0.0021791  | 0.0022131  | 0.0022559  |   0.1 | 83.63
Other   |            | 8.643e-06  |            |       |  0.33

Nlocal:    84.5 ave 97 max 65 min
Histogram: 1 0 0 0 0 0 1 1 0 1
Nghost:    823.5 ave 846 max 806 min
Histogram: 1 0 1 0 0 1 0 0 0 1
Neighs:    1254.75 ave 1452 max 979 min
Histogram: 1 0 0 0 0 1 0 1 0 1

Total # of neighbors = 5019
Ave neighs/atom = 14.8491
Neighbor list builds = 1
Dangerous builds = 0

##############DEM Run##############
fix_modify k1 demflag yes
fix_modify d1 demflag yes

timestep 1e-3
run 10000
WARNING: EPS is not defined in fix_kinetics/kinetics/monod (../fix_bio_kinetics_monod.cpp:242)
Neighbor list info ...
  2 neighbor list requests
  update every 1 steps, delay 0 steps, check yes
  max neighbors/atom: 2000, page size: 100000
  master list distance cutoff = 1.05399e-05
  ghost atom cutoff = 1.05399e-05
  binsize = 5.26997e-06 -> bins = 4 4 114
Memory usage per processor = 8.57895 Mbytes
Step CPU Atoms biomass c_myPres 
 1060107            0      338 2.0471857e-13    4.1393261 
 1061000   0.13167405      338 2.0471857e-13    4.0613534 
 1062000   0.27458715      338 2.0471857e-13     4.016532 
 1063000   0.41823006      338 2.0471857e-13     3.989035 
 1064000   0.56171799      338 2.0471857e-13    3.9720035 
 1065000     0.704952      338 2.0471857e-13    3.9520556 
 1066000   0.84890294      338 2.0471857e-13    3.9317389 
 1067000   0.99125099      338 2.0471857e-13    3.9182898 
 1068000     1.139595      338 2.0471857e-13    3.8936962 
 1069000     1.282948      338 2.0471857e-13    3.8797791 
 1070000    1.4283671      338 2.0471857e-13    3.8792963 
 1070107    1.4452131      338 2.0471857e-13    3.8730926 
Loop time of 1.44523 on 4 procs for 10000 steps with 338 atoms

Performance: 597827.533 tau/day, 6919.300 timesteps/s
100.0% CPU use with 4 MPI tasks x no OpenMP threads

MPI task timing breakdown:
Section |  min time  |  avg time  |  max time  |%varavg| %total
---------------------------------------------------------------
Pair    | 0.90215    | 0.98018    | 1.026      |   4.7 | 67.82
Neigh   | 0.022804   | 0.026302   | 0.027997   |   1.3 |  1.82
Comm    | 0.27974    | 0.2856     | 0.29013    |   0.8 | 19.76
Output  | 0.00018907 | 0.00027996 | 0.00047159 |   0.7 |  0.02
Modify  | 0.048943   | 0.054826   | 0.058177   |   1.5 |  3.79
Other   |            | 0.09804    |            |       |  6.78

Nlocal:    84.5 ave 93 max 73 min
Histogram: 1 0 0 0 0 1 0 1 0 1
Nghost:    817.25 ave 830 max 790 min
Histogram: 1 0 0 0 0 0 0 1 0 2
Neighs:    1409.75 ave 1543 max 1235 min
Histogram: 1 0 0 0 0 1 1 0 0 1

Total # of neighbors = 5639
Ave neighs/atom = 16.6834
Neighbor list builds = 162
Dangerous builds = 0

fix_modify k1 demflag no
fix_modify d1 demflag no

next a
jump SELF loopa
variable    a loop 10000

pair_style  gran/hooke/history 1.e-4 NULL 1.e-5 NULL 0.0 1
pair_coeff  * *

timestep 1800

variable kanc equal 50

fix 1 all nve/limit 1e-7
fix fv all viscous 1e-5

fix zw all wall/gran hooke/history 2000 NULL 500.0 NULL 1.5 0 zplane  0.0   6e-04
fix zwa all walladh v_kanc zplane  0.0   6e-04


##############Ibm functions##############

fix k1 all kinetics 1 15 15 450 v_temp v_rth v_gvol v_gasTran v_ph v_diffT v_blThick demflag no
fix kgm all kinetics/growth/monod v_EPSdens v_etaHET 1
#fix g1 all kinetics/diffusion v_shearRate v_tol pp pp nd kg bulk v_Q v_rvol v_Af
fix d1 all divide 1 v_EPSdens v_divMass 31231 demflag no
#fix vf1 all verify 1 bm1 1 demflag no

run 1
WARNING: EPS is not defined in fix_kinetics/kinetics/monod (../fix_bio_kinetics_monod.cpp:242)
Memory usage per processor = 8.57895 Mbytes
Step CPU Atoms biomass c_myPres 
 1070107            0      338 2.0471857e-13    3.8730926 
 1070108 0.0026640892      373 2.2514882e-13    4.5309514 
Loop time of 0.0026772 on 4 procs for 1 steps with 373 atoms

Performance: 58090494084.959 tau/day, 373.524 timesteps/s
112.1% CPU use with 4 MPI tasks x no OpenMP threads

MPI task timing breakdown:
Section |  min time  |  avg time  |  max time  |%varavg| %total
---------------------------------------------------------------
Pair    | 0.000139   | 0.00015324 | 0.00016499 |   0.1 |  5.72
Neigh   | 0.00014305 | 0.00018173 | 0.00021291 |   0.2 |  6.79
Comm    | 8.5115e-05 | 9.1076e-05 | 9.799e-05  |   0.0 |  3.40
Output  | 1.4067e-05 | 2.3067e-05 | 3.314e-05  |   0.2 |  0.86
Modify  | 0.0021858  | 0.0022174  | 0.0022638  |   0.1 | 82.83
Other   |            | 1.067e-05  |            |       |  0.40

Nlocal:    93.25 ave 106 max 73 min
Histogram: 1 0 0 0 0 0 1 0 1 1
Nghost:    902.5 ave 912 max 878 min
Histogram: 1 0 0 0 0 0 0 0 0 3
Neighs:    1467 ave 1661 max 1178 min
Histogram: 1 0 0 0 0 0 1 1 0 1

Total # of neighbors = 5868
Ave neighs/atom = 15.7319
Neighbor list builds = 1
Dangerous builds = 0

##############DEM Run##############
fix_modify k1 demflag yes
fix_modify d1 demflag yes

timestep 1e-3
run 10000
WARNING: EPS is not defined in fix_kinetics/kinetics/monod (../fix_bio_kinetics_monod.cpp:242)
Neighbor list info ...
  2 neighbor list requests
  update every 1 steps, delay 0 steps, check yes
  max neighbors/atom: 2000, page size: 100000
  master list distance cutoff = 1.05599e-05
  ghost atom cutoff = 1.05599e-05
  binsize = 5.27997e-06 -> bins = 4 4 114
Memory usage per processor = 8.5791 Mbytes
Step CPU Atoms biomass c_myPres 
 1070108            0      373 2.2514882e-13     4.850262 
 1071000     0.155056      373 2.2514882e-13    4.7433118 
 1072000   0.32172203      373 2.2514882e-13    4.6909904 
 1073000    0.4859941      373 2.2514882e-13    4.6474776 
 1074000     0.648283      373 2.2514882e-13    4.6038958 
 1075000   0.81020403      373 2.2514882e-13    4.5731146 
 1076000   0.97347808      373 2.2514882e-13    4.5586022 
 1077000    1.1389282      373 2.2514882e-13    4.5307215 
 1078000     1.301882      373 2.2514882e-13    4.5200914 
 1079000     1.462497      373 2.2514882e-13    4.5006057 
 1080000    1.6287441      373 2.2514882e-13    4.4800148 
 1080108    1.6476541      373 2.2514882e-13    4.4771776 
Loop time of 1.64767 on 4 procs for 10000 steps with 373 atoms

Performance: 524376.250 tau/day, 6069.170 timesteps/s
100.0% CPU use with 4 MPI tasks x no OpenMP threads

MPI task timing breakdown:
Section |  min time  |  avg time  |  max time  |%varavg| %total
---------------------------------------------------------------
Pair    | 0.98653    | 1.1225     | 1.1822     |   7.5 | 68.12
Neigh   | 0.029148   | 0.035501   | 0.038218   |   2.0 |  2.15
Comm    | 0.30706    | 0.31228    | 0.31867    |   0.9 | 18.95
Output  | 0.00017595 | 0.0002898  | 0.00057006 |   1.0 |  0.02
Modify  | 0.050789   | 0.05973    | 0.063759   |   2.1 |  3.63
Other   |            | 0.1174     |            |       |  7.13

Nlocal:    93.25 ave 104 max 73 min
Histogram: 1 0 0 0 0 0 0 0 2 1
Nghost:    902.25 ave 926 max 874 min
Histogram: 1 0 0 1 0 0 0 0 1 1
Neighs:    1600.75 ave 1725 max 1283 min
Histogram: 1 0 0 0 0 0 0 0 0 3

Total # of neighbors = 6403
Ave neighs/atom = 17.1662
Neighbor list builds = 191
Dangerous builds = 0

fix_modify k1 demflag no
fix_modify d1 demflag no

next a
jump SELF loopa
variable    a loop 10000

pair_style  gran/hooke/history 1.e-4 NULL 1.e-5 NULL 0.0 1
pair_coeff  * *

timestep 1800

variable kanc equal 50

fix 1 all nve/limit 1e-7
fix fv all viscous 1e-5

fix zw all wall/gran hooke/history 2000 NULL 500.0 NULL 1.5 0 zplane  0.0   6e-04
fix zwa all walladh v_kanc zplane  0.0   6e-04


##############Ibm functions##############

fix k1 all kinetics 1 15 15 450 v_temp v_rth v_gvol v_gasTran v_ph v_diffT v_blThick demflag no
fix kgm all kinetics/growth/monod v_EPSdens v_etaHET 1
#fix g1 all kinetics/diffusion v_shearRate v_tol pp pp nd kg bulk v_Q v_rvol v_Af
fix d1 all divide 1 v_EPSdens v_divMass 31231 demflag no
#fix vf1 all verify 1 bm1 1 demflag no

run 1
WARNING: EPS is not defined in fix_kinetics/kinetics/monod (../fix_bio_kinetics_monod.cpp:242)
Memory usage per processor = 8.60962 Mbytes
Step CPU Atoms biomass c_myPres 
 1080108            0      373 2.2514882e-13    4.4771776 
 1080109 0.0026700497      405 2.4761796e-13    5.2109948 
Loop time of 0.00268477 on 4 procs for 1 steps with 405 atoms

Performance: 57926706309.970 tau/day, 372.471 timesteps/s
111.7% CPU use with 4 MPI tasks x no OpenMP threads

MPI task timing breakdown:
Section |  min time  |  avg time  |  max time  |%varavg| %total
---------------------------------------------------------------
Pair    | 0.00016308 | 0.00017703 | 0.00018716 |   0.1 |  6.59
Neigh   | 0.00015211 | 0.0002023  | 0.00023198 |   0.2 |  7.54
Comm    | 9.3937e-05 | 9.9003e-05 | 0.000103   |   0.0 |  3.69
Output  | 2.0027e-05 | 3.171e-05  | 4.6968e-05 |   0.2 |  1.18
Modify  | 0.0021226  | 0.0021628  | 0.0022271  |   0.1 | 80.56
Other   |            | 1.192e-05  |            |       |  0.44

Nlocal:    101.25 ave 114 max 74 min
Histogram: 1 0 0 0 0 0 0 1 0 2
Nghost:    988.5 ave 1004 max 966 min
Histogram: 1 0 0 0 0 0 1 1 0 1
Neighs:    1687.25 ave 1862 max 1316 min
Histogram: 1 0 0 0 0 0 0 1 0 2

Total # of neighbors = 6749
Ave neighs/atom = 16.6642
Neighbor list builds = 1
Dangerous builds = 0

##############DEM Run##############
fix_modify k1 demflag yes
fix_modify d1 demflag yes

timestep 1e-3
run 10000
WARNING: EPS is not defined in fix_kinetics/kinetics/monod (../fix_bio_kinetics_monod.cpp:242)
Neighbor list info ...
  2 neighbor list requests
  update every 1 steps, delay 0 steps, check yes
  max neighbors/atom: 2000, page size: 100000
  master list distance cutoff = 1.05559e-05
  ghost atom cutoff = 1.05559e-05
  binsize = 5.27797e-06 -> bins = 4 4 114
Memory usage per processor = 8.60974 Mbytes
Step CPU Atoms biomass c_myPres 
 1080109            0      405 2.4761796e-13    5.5822502 
 1081000   0.17198396      405 2.4761796e-13     5.448823 
 1082000   0.35564494      405 2.4761796e-13    5.3787604 
 1083000   0.54100108      405 2.4761796e-13    5.3462799 
 1084000   0.72695494      405 2.4761796e-13    5.2982204 
 1085000   0.90992188      405 2.4761796e-13    5.2648113 
 1086000     1.091444      405 2.4761796e-13    5.2259652 
 1087000    1.2737441      405 2.4761796e-13    5.1841002 
 1088000    1.4540279      405 2.4761796e-13    5.1584032 
 1089000    1.6331279      405 2.4761796e-13    5.1402654 
 1090000     1.811204      405 2.4761796e-13    5.1245507 
 1090109    1.8321259      405 2.4761796e-13    5.1200393 
Loop time of 1.83214 on 4 procs for 10000 steps with 405 atoms

Performance: 471578.463 tau/day, 5458.084 timesteps/s
99.9% CPU use with 4 MPI tasks x no OpenMP threads

MPI task timing breakdown:
Section |  min time  |  avg time  |  max time  |%varavg| %total
---------------------------------------------------------------
Pair    | 1.0766     | 1.2541     | 1.3312     |   9.2 | 68.45
Neigh   | 0.033214   | 0.041251   | 0.044345   |   2.3 |  2.25
Comm    | 0.33204    | 0.33795    | 0.34373    |   0.9 | 18.45
Output  | 0.000211   | 0.00032204 | 0.00064707 |   1.0 |  0.02
Modify  | 0.052809   | 0.063968   | 0.068239   |   2.6 |  3.49
Other   |            | 0.1346     |            |       |  7.35

Nlocal:    101.25 ave 110 max 82 min
Histogram: 1 0 0 0 0 0 0 0 1 2
Nghost:    981.25 ave 997 max 959 min
Histogram: 1 0 0 0 0 1 0 0 1 1
Neighs:    1826.75 ave 1930 max 1548 min
Histogram: 1 0 0 0 0 0 0 0 0 3

Total # of neighbors = 7307
Ave neighs/atom = 18.042
Neighbor list builds = 200
Dangerous builds = 0

fix_modify k1 demflag no
fix_modify d1 demflag no

next a
jump SELF loopa
variable    a loop 10000

pair_style  gran/hooke/history 1.e-4 NULL 1.e-5 NULL 0.0 1
pair_coeff  * *

timestep 1800

variable kanc equal 50

fix 1 all nve/limit 1e-7
fix fv all viscous 1e-5

fix zw all wall/gran hooke/history 2000 NULL 500.0 NULL 1.5 0 zplane  0.0   6e-04
fix zwa all walladh v_kanc zplane  0.0   6e-04


##############Ibm functions##############

fix k1 all kinetics 1 15 15 450 v_temp v_rth v_gvol v_gasTran v_ph v_diffT v_blThick demflag no
fix kgm all kinetics/growth/monod v_EPSdens v_etaHET 1
#fix g1 all kinetics/diffusion v_shearRate v_tol pp pp nd kg bulk v_Q v_rvol v_Af
fix d1 all divide 1 v_EPSdens v_divMass 31231 demflag no
#fix vf1 all verify 1 bm1 1 demflag no

run 1
WARNING: EPS is not defined in fix_kinetics/kinetics/monod (../fix_bio_kinetics_monod.cpp:242)
Memory usage per processor = 8.60974 Mbytes
Step CPU Atoms biomass c_myPres 
 1090109            0      405 2.4761796e-13    5.1200393 
 1090110 0.0034911633      441 2.7232943e-13    5.9817555 
Loop time of 0.00350398 on 4 procs for 1 steps with 441 atoms

Performance: 44383837112.287 tau/day, 285.390 timesteps/s
114.2% CPU use with 4 MPI tasks x no OpenMP threads

MPI task timing breakdown:
Section |  min time  |  avg time  |  max time  |%varavg| %total
---------------------------------------------------------------
Pair    | 0.00015402 | 0.0002045  | 0.00026703 |   0.3 |  5.84
Neigh   | 0.00017095 | 0.00023204 | 0.00027609 |   0.3 |  6.62
Comm    | 9.203e-05  | 0.00010073 | 0.00010705 |   0.1 |  2.87
Output  | 1.812e-05  | 8.2612e-05 | 0.00013113 |   0.5 |  2.36
Modify  | 0.0028389  | 0.0028737  | 0.0029421  |   0.1 | 82.01
Other   |            | 1.043e-05  |            |       |  0.30

Nlocal:    110.25 ave 129 max 80 min
Histogram: 1 0 0 0 0 0 1 1 0 1
Nghost:    1070.75 ave 1085 max 1055 min
Histogram: 1 0 0 1 0 0 0 1 0 1
Neighs:    1888.5 ave 2149 max 1468 min
Histogram: 1 0 0 0 0 0 0 2 0 1

Total # of neighbors = 7554
Ave neighs/atom = 17.1293
Neighbor list builds = 1
Dangerous builds = 0

##############DEM Run##############
fix_modify k1 demflag yes
fix_modify d1 demflag yes

timestep 1e-3
run 10000
WARNING: EPS is not defined in fix_kinetics/kinetics/monod (../fix_bio_kinetics_monod.cpp:242)
Neighbor list info ...
  2 neighbor list requests
  update every 1 steps, delay 0 steps, check yes
  max neighbors/atom: 2000, page size: 100000
  master list distance cutoff = 1.05586e-05
  ghost atom cutoff = 1.05586e-05
  binsize = 5.27932e-06 -> bins = 4 4 114
Memory usage per processor = 8.61391 Mbytes
Step CPU Atoms biomass c_myPres 
 1090110            0      441 2.7232943e-13    6.3938977 
 1091000   0.19393301      441 2.7232943e-13    6.2413166 
 1092000   0.40081096      441 2.7232943e-13     6.180358 
 1093000   0.60798717      441 2.7232943e-13    6.1424138 
 1094000   0.81163812      441 2.7232943e-13      6.11985 
 1095000     1.014292      441 2.7232943e-13    6.1036545 
 1096000    1.2138731      441 2.7232943e-13    6.1029178 
 1097000        1.415      441 2.7232943e-13    6.0832419 
 1098000     1.617979      441 2.7232943e-13    6.0595244 
 1099000     1.824616      441 2.7232943e-13    6.0347899 
 1100000    2.0285621      441 2.7232943e-13     6.023214 
 1100110    2.0521021      441 2.7232943e-13    6.0222727 
Loop time of 2.05212 on 4 procs for 10000 steps with 441 atoms

Performance: 421027.772 tau/day, 4873.007 timesteps/s
99.9% CPU use with 4 MPI tasks x no OpenMP threads

MPI task timing breakdown:
Section |  min time  |  avg time  |  max time  |%varavg| %total
---------------------------------------------------------------
Pair    | 1.258      | 1.4325     | 1.5226     |   8.8 | 69.81
Neigh   | 0.033046   | 0.040124   | 0.04287    |   2.0 |  1.96
Comm    | 0.35267    | 0.35912    | 0.36487    |   1.0 | 17.50
Output  | 0.00021935 | 0.00033855 | 0.00062799 |   0.9 |  0.02
Modify  | 0.057334   | 0.068572   | 0.073641   |   2.5 |  3.34
Other   |            | 0.1514     |            |       |  7.38

Nlocal:    110.25 ave 118 max 90 min
Histogram: 1 0 0 0 0 0 0 0 0 3
Nghost:    1078.5 ave 1109 max 1056 min
Histogram: 1 0 1 0 1 0 0 0 0 1
Neighs:    2107.25 ave 2247 max 1799 min
Histogram: 1 0 0 0 0 0 0 0 1 2

Total # of neighbors = 8429
Ave neighs/atom = 19.1134
Neighbor list builds = 171
Dangerous builds = 0

fix_modify k1 demflag no
fix_modify d1 demflag no

next a
jump SELF loopa
variable    a loop 10000

pair_style  gran/hooke/history 1.e-4 NULL 1.e-5 NULL 0.0 1
pair_coeff  * *

timestep 1800

variable kanc equal 50

fix 1 all nve/limit 1e-7
fix fv all viscous 1e-5

fix zw all wall/gran hooke/history 2000 NULL 500.0 NULL 1.5 0 zplane  0.0   6e-04
fix zwa all walladh v_kanc zplane  0.0   6e-04


##############Ibm functions##############

fix k1 all kinetics 1 15 15 450 v_temp v_rth v_gvol v_gasTran v_ph v_diffT v_blThick demflag no
fix kgm all kinetics/growth/monod v_EPSdens v_etaHET 1
#fix g1 all kinetics/diffusion v_shearRate v_tol pp pp nd kg bulk v_Q v_rvol v_Af
fix d1 all divide 1 v_EPSdens v_divMass 31231 demflag no
#fix vf1 all verify 1 bm1 1 demflag no

run 1
WARNING: EPS is not defined in fix_kinetics/kinetics/monod (../fix_bio_kinetics_monod.cpp:242)
Memory usage per processor = 8.61395 Mbytes
Step CPU Atoms biomass c_myPres 
 1100110            0      441 2.7232943e-13    6.0222727 
 1100111 0.0035970211      503 2.9950704e-13    7.1090607 
Loop time of 0.0036118 on 4 procs for 1 steps with 503 atoms

Performance: 43058826198.429 tau/day, 276.870 timesteps/s
83.1% CPU use with 4 MPI tasks x no OpenMP threads

MPI task timing breakdown:
Section |  min time  |  avg time  |  max time  |%varavg| %total
---------------------------------------------------------------
Pair    | 0.00017285 | 0.00023794 | 0.00030708 |   0.3 |  6.59
Neigh   | 0.00020003 | 0.00036168 | 0.00058079 |   0.7 | 10.01
Comm    | 0.00016785 | 0.00018328 | 0.00020123 |   0.1 |  5.07
Output  | 1.9073e-05 | 8.5115e-05 | 0.00013709 |   0.5 |  2.36
Modify  | 0.0024829  | 0.00273    | 0.0029252  |   0.3 | 75.58
Other   |            | 1.383e-05  |            |       |  0.38

Nlocal:    125.75 ave 154 max 86 min
Histogram: 1 0 0 0 0 0 1 1 0 1
Nghost:    1228.25 ave 1244 max 1211 min
Histogram: 1 0 0 0 0 2 0 0 0 1
Neighs:    2238.75 ave 2583 max 1673 min
Histogram: 1 0 0 0 0 0 1 1 0 1

Total # of neighbors = 8955
Ave neighs/atom = 17.8032
Neighbor list builds = 1
Dangerous builds = 0
