LAMMPS (5 Nov 2016)
# NUFEB simulation

atom_style	bio
atom_modify	map array sort 1000 5.0e-7
boundary	ff ff ff
newton		off
#processors  2 1 1

comm_modify	vel yes
read_data_bio atom.in
  orthogonal box = (0 0 0) to (0.0001 0.0001 0.0001)
  1 by 1 by 1 MPI processor grid
  reading atoms ...
  3 atoms
  10 nutrients

group AOB type 1
1 atoms in group AOB
group NOB type 2
1 atoms in group NOB
group COMM type 3
1 atoms in group COMM

neighbor	5.0e-7 bin
neigh_modify	delay 0 one 5000

#pair_style none
pair_style  gran/hooke/history 0.000200 NULL 0.000050 NULL 0.0 1

pair_coeff  * *
timestep 36

fix 1 all nve/limit 1e-8

#fix	 2 all gravity 1.47 vector 0 0 -1 # spherical 90.0 -180.0
#fix     3 all fdrag
fix 10 all viscous 0.1


fix xw all wall/gran hooke/history 2000 NULL 500.0 NULL 1.5 0 xplane  0.0   1.0e-04
fix yw all wall/gran hooke/history 2000 NULL 500.0 NULL 1.5 0 yplane  0.0   1.0e-04
fix zw all wall/gran hooke/history 2000 NULL 500.0 NULL 1.5 0 zplane  0.0   1.0e-04

variable kanc equal 50

fix xwa all walladh v_kanc xplane  0.0   1.0e-04
fix ywa all walladh v_kanc yplane  0.0   1.0e-04
fix zwa all walladh v_kanc zplane  0.0   1.0e-04

##############Ibm Variable Definitions##############

#Defining EPS density and ratio variables
variable EPSdens equal 30
variable EPSratio equal 1.25

variable ke equal 5e+10

#Defining kinetics variables
variable temp equal 298.15
variable gasTran equal 0.08205746
variable gvol equal 8e-14
variable rth equal 0.0083144
variable pressure equal 1
variable ph equal 7.0

#Defining diffusion variables
variable diffT equal 1e-7
variable tol equal 1e-11

##############Ibm functions##############

fix k1 all kinetics 25 25 25 v_temp v_rth v_gvol v_gasTran v_ph
fix g1 all diffusion exp v_diffT v_tol pp pp nd
#fix ki3 all kinetics/ph 1
fix ki2 all kinetics/thermo 1 fix open v_pressure
fix ki1 all kinetics/monod 1 v_EPSdens
fix d1 all divide 1 v_EPSdens 1 31231

#fix j1 all epsadh 1 v_ke 1
#fix e1 HET eps_extract 16 v_EPSratio v_EPSdens 1242242

##############Ibm compute##############

compute myMass all biomass
compute myNtypes all ntypes

##############Simulation outputs##############

#dump		id all custom 250 snapshot.bubblemd id type diameter x y z
dump            d0 all bio 500 biomass
thermo_style    custom step cpu atoms biomass c_myNtypes[*] c_myMass[2]
thermo		5
thermo_modify	lost ignore

run  5000
Neighbor list info ...
  2 neighbor list requests
  update every 1 steps, delay 0 steps, check yes
  max neighbors/atom: 5000, page size: 100000
  master list distance cutoff = 1.466e-06
  ghost atom cutoff = 1.466e-06
  binsize = 7.33e-07 -> bins = 137 137 137
Memory usage per processor = 18.9946 Mbytes
Step CPU Atoms biomass c_myNtypes[1] c_myNtypes[2] c_myNtypes[3] c_myMass[2] 
       0            0        3 4.1062866e-16            1            1            1 1.3687622e-16 
       5    2350.4874        3 4.1154505e-16            1            1            1 1.3683706e-16 
      10    2350.6629        3 4.1243547e-16            1            1            1 1.367686e-16 
      15    2350.8347        3 4.1332928e-16            1            1            1 1.3670017e-16 
      20    2351.0097        3 4.1422648e-16            1            1            1 1.3663178e-16 
      25    2351.2081        3 4.1512709e-16            1            1            1 1.3656343e-16 
      30    2358.8875        3 4.160314e-16            1            1            1 1.3649538e-16 
      35    2367.0235        3 4.1694111e-16            1            1            1 1.3642935e-16 
      40    2375.3478        3 4.1785824e-16            1            1            1 1.3636732e-16 
      45      2382.73        3 4.187845e-16            1            1            1 1.3631101e-16 
      50    2391.3579        3 4.1972128e-16            1            1            1 1.3626179e-16 
      55    2399.2465        3 4.2066968e-16            1            1            1 1.3622074e-16 
      60    2407.3566        3 4.2163051e-16            1            1            1 1.3618866e-16 
      65    2415.5142        3 4.2260431e-16            1            1            1 1.361661e-16 
      70    2422.3206        3 4.2359147e-16            1            1            1 1.361534e-16 
      75    2430.5799        3 4.2459189e-16            1            1            1 1.3615049e-16 
      80    2439.1454        3 4.2559874e-16            1            1            1 1.3615049e-16 
      85    2446.0325        3 4.2660779e-16            1            1            1 1.3614918e-16 
      90    2453.4861        3 4.276212e-16            1            1            1 1.361487e-16 
      95    2460.3215        3 4.2863811e-16            1            1            1 1.3614818e-16 
     100    2467.9568        3 4.2965893e-16            1            1            1 1.3614801e-16 
     105    2475.0782        3 4.3068304e-16            1            1            1 1.3614757e-16 
     110    2482.3885        3 4.3171084e-16            1            1            1 1.3614725e-16 
     115    2490.8118        3 4.3274273e-16            1            1            1 1.3614742e-16 
     120    2498.1573        3 4.3377794e-16            1            1            1 1.3614731e-16 
     125    2507.5353        3 4.348174e-16            1            1            1 1.3614784e-16 
     130    2515.8682        3 4.3585951e-16            1            1            1 1.3614738e-16 
     135    2525.0741        3 4.3690574e-16            1            1            1 1.3614741e-16 
     140    2533.4868        3 4.3795601e-16            1            1            1 1.3614782e-16 
     145    2541.7824        3 4.3900995e-16            1            1            1 1.3614823e-16 
     150    2550.4944        4 4.4006803e-16            2            1            1 1.3614911e-16 
     155    2559.0568        5 4.4112985e-16            2            1            2 1.3615003e-16 
     160    2567.0752        5 4.4219493e-16            2            1            2 1.3615051e-16 
     165    2573.3704        5 4.4326423e-16            2            1            2 1.3615149e-16 
     170    2580.6058        5 4.443373e-16            2            1            2 1.3615251e-16 
     175    2587.5524        5 4.4541362e-16            2            1            2 1.3615303e-16 
     180    2594.0307        5 4.4649425e-16            2            1            2 1.3615411e-16 
     185    2601.0393        5 4.4757867e-16            2            1            2 1.3615521e-16 
     190    2606.7809        5 4.4866634e-16            2            1            2 1.3615577e-16 
     195    2613.5953        5 4.4975839e-16            2            1            2 1.3615692e-16 
     200      2620.83        5 4.5085429e-16            2            1            2 1.3615811e-16 
     205    2627.3272        5 4.5195342e-16            2            1            2 1.3615871e-16 
     210    2634.4837        5 4.5305702e-16            2            1            2 1.3615993e-16 
     215    2640.9476        5 4.5416447e-16            2            1            2 1.3616116e-16 
     220     2647.647        5 4.5527543e-16            2            1            2 1.3616204e-16 
     225    2654.3082        5 4.5639073e-16            2            1            2 1.3616338e-16 
     230    2661.1265        5 4.5750949e-16            2            1            2 1.3616429e-16 
     235    2667.9523        5 4.5863263e-16            2            1            2 1.3616567e-16 
     240    2674.6847        5 4.5975924e-16            2            1            2 1.361666e-16 
     245    2681.0308        5 4.6089026e-16            2            1            2 1.3616802e-16 
     250    2687.8505        5 4.6202477e-16            2            1            2 1.3616898e-16 
     255    2694.7667        5 4.6316374e-16            2            1            2 1.3617045e-16 
     260    2700.3928        5 4.6430621e-16            2            1            2 1.3617143e-16 
     265    2706.3707        5 4.6545317e-16            2            1            2 1.3617293e-16 
     270    2712.0127        5 4.6660365e-16            2            1            2 1.3617394e-16 
     275    2718.2653        5 4.6775867e-16            2            1            2 1.3617548e-16 
     280    2724.6314        5 4.6891722e-16            2            1            2 1.3617651e-16 
     285    2730.6935        5 4.7008034e-16            2            1            2 1.3617808e-16 
     290    2737.0776        5 4.7124701e-16            2            1            2 1.3617914e-16 
     295    2743.2115        5 4.7241829e-16            2            1            2 1.3618074e-16 
     300    2749.9102        5 4.7359314e-16            2            1            2 1.3618182e-16 
     305    2756.0177        5 4.7477264e-16            2            1            2 1.3618346e-16 
     310    2762.8653        5 4.7595572e-16            2            1            2 1.3618456e-16 
     315    2768.5657        5 4.7714349e-16            2            1            2 1.3618623e-16 
     320    2774.3308        5 4.7833487e-16            2            1            2 1.3618735e-16 
     325    2781.4824        5 4.7953097e-16            2            1            2 1.3618905e-16 
     330    2787.0985        5 4.8073069e-16            2            1            2 1.3619019e-16 
     335    2792.2482        5 4.8193518e-16            2            1            2 1.3619192e-16 
     340    2798.6506        5 4.8314331e-16            2            1            2 1.3619308e-16 
     345    2804.6968        5 4.8435625e-16            2            1            2 1.3619484e-16 
     350    2811.5963        5 4.8557284e-16            2            1            2 1.3619602e-16 
     355    2817.6802        5 4.8679428e-16            2            1            2 1.3619781e-16 
     360    2824.1934        5 4.8801939e-16            2            1            2 1.3619901e-16 
     365    2830.2127        5 4.8924939e-16            2            1            2 1.3620082e-16 
     370    2835.5192        5 4.9048309e-16            2            1            2 1.3620204e-16 
     375    2841.8227        5 4.9172171e-16            2            1            2 1.3620388e-16 
     380    2847.1696        5 4.9296405e-16            2            1            2 1.3620512e-16 
     385    2852.7789        5 4.9421136e-16            2            1            2 1.3620698e-16 
     390     2858.959        5 4.954624e-16            2            1            2 1.3620824e-16 
     395    2865.5736        5 4.9671844e-16            2            1            2 1.3621013e-16 
     400    2870.8781        5 4.9797824e-16            2            1            2 1.362114e-16 
     405    2876.3706        5 4.9924309e-16            2            1            2 1.3621332e-16 
     410    2882.1175        5 5.0051171e-16            2            1            2 1.362146e-16 
     415    2887.9321        5 5.0178542e-16            2            1            2 1.3621655e-16 
     420    2893.6888        5 5.0306293e-16            2            1            2 1.3621785e-16 
     425      2900.09        5 5.0434556e-16            2            1            2 1.3621981e-16 
     430    2906.8808        5 5.0563201e-16            2            1            2 1.3622113e-16 
     435    2912.7116        5 5.0692363e-16            2            1            2 1.3622312e-16 
     440    2919.0381        5 5.0821909e-16            2            1            2 1.3622446e-16 
     445    2924.8953        5 5.0951976e-16            2            1            2 1.3622647e-16 
     450    2930.7057        5 5.1082429e-16            2            1            2 1.3622782e-16 
     455    2936.4373        5 5.1213407e-16            2            1            2 1.3622986e-16 
     460     2942.376        5 5.1344774e-16            2            1            2 1.3623123e-16 
     465    2947.4013        5 5.1476668e-16            2            1            2 1.3623329e-16 
     470    2953.1011        5 5.1608955e-16            2            1            2 1.3623467e-16 
     475    2959.5592        5 5.1741774e-16            2            1            2 1.3623675e-16 
     480    2965.9865        5 5.1874987e-16            2            1            2 1.3623815e-16 
     485    2971.7939        5 5.2008735e-16            2            1            2 1.3624025e-16 
     490    2977.8412        5 5.2142881e-16            2            1            2 1.3624167e-16 
     495    2983.6978        5 5.2277566e-16            2            1            2 1.3624379e-16 
     500    2989.4921        5 5.2412651e-16            2            1            2 1.3624522e-16 
     505     2996.081        5 5.2548279e-16            2            1            2 1.3624736e-16 
     510    3002.7857        5 5.268431e-16            2            1            2 1.362488e-16 
     515    3008.1134        5 5.2820888e-16            2            1            2 1.3625097e-16 
     520    3013.5451        5 5.295787e-16            2            1            2 1.3625243e-16 
     525    3018.5566        5 5.3095405e-16            2            1            2 1.3625462e-16 
     530    3023.9252        5 5.3233347e-16            2            1            2 1.3625608e-16 
     535    3030.3869        5 5.3371844e-16            2            1            2 1.362583e-16 
     540    3036.6005        5 5.3510752e-16            2            1            2 1.3625978e-16 
     545    3042.3425        5 5.3650219e-16            2            1            2 1.3626202e-16 
     550    3048.0553        5 5.3790099e-16            2            1            2 1.3626351e-16 
     555    3055.0628        5 5.3930543e-16            2            1            2 1.3626577e-16 
     560    3060.6151        5 5.4071401e-16            2            1            2 1.3626728e-16 
     565    3066.2551        5 5.4212828e-16            2            1            2 1.3626955e-16 
     570    3073.0221        5 5.4354673e-16            2            1            2 1.3627108e-16 
     575    3079.7345        5 5.449709e-16            2            1            2 1.3627337e-16 
     580    3085.7145        5 5.4639928e-16            2            1            2 1.3627491e-16 
     585    3092.5137        5 5.4783342e-16            2            1            2 1.3627723e-16 
     590    3098.4372        5 5.492718e-16            2            1            2 1.3627878e-16 
     595    3105.7906        5 5.5071597e-16            2            1            2 1.3628111e-16 
     600    3112.1197        5 5.5216442e-16            2            1            2 1.3628267e-16 
     605     3118.656        5 5.5361871e-16            2            1            2 1.3628503e-16 
     610    3126.2356        5 5.5507729e-16            2            1            2 1.3628661e-16 
     615    3132.1602        5 5.5654176e-16            2            1            2 1.3628898e-16 
     620    3138.7722        5 5.5801055e-16            2            1            2 1.3629057e-16 
     625    3144.3359        5 5.5948527e-16            2            1            2 1.3629297e-16 
     630    3150.2725        5 5.6096434e-16            2            1            2 1.3629457e-16 
     635    3156.2564        5 5.6244939e-16            2            1            2 1.3629699e-16 
     640    3163.1625        5 5.6393881e-16            2            1            2 1.3629861e-16 
     645    3169.4283        5 5.6543425e-16            2            1            2 1.3630104e-16 
     650    3174.9258        5 5.669341e-16            2            1            2 1.3630267e-16 
     655    3180.4283        5   5.6844e-16            2            1            2 1.3630513e-16 
     660    3186.3482        5 5.6995035e-16            2            1            2 1.3630677e-16 
     665    3192.1064        5 5.714668e-16            2            1            2 1.3630924e-16 
     670    3197.4827        5 5.7298772e-16            2            1            2 1.363109e-16 
     675    3204.0645        5 5.7451478e-16            2            1            2 1.3631339e-16 
     680    3209.6667        5 5.7604634e-16            2            1            2 1.3631506e-16 
     685    3214.8201        5 5.7758409e-16            2            1            2 1.3631758e-16 
     690    3220.5026        5 5.7912637e-16            2            1            2 1.3631926e-16 
     695    3226.6939        5 5.8067488e-16            2            1            2 1.363218e-16 
     700    3232.0257        5 5.8222796e-16            2            1            2 1.3632349e-16 
     705    3236.6948        5 5.8378731e-16            2            1            2 1.3632604e-16 
     710    3242.0123        5 5.8535125e-16            2            1            2 1.3632775e-16 
     715    3248.6451        5 5.8692152e-16            2            1            2 1.3633032e-16 
     720    3255.0842        5 5.8849641e-16            2            1            2 1.3633205e-16 
     725    3261.0618        5 5.9007766e-16            2            1            2 1.3633464e-16 
     730    3267.1953        5 5.9166357e-16            2            1            2 1.3633637e-16 
     735    3272.2431        5 5.9325589e-16            2            1            2 1.3633898e-16 
     740    3276.7871        5 5.9485291e-16            2            1            2 1.3634073e-16 
     745     3282.584        5 5.9645637e-16            2            1            2 1.3634336e-16 
     750    3288.3409        5 5.9806456e-16            2            1            2 1.3634512e-16 
     755    3293.5292        5 5.9967925e-16            2            1            2 1.3634777e-16 
     760    3299.4978        5 6.0129869e-16            2            1            2 1.3634955e-16 
     765    3305.3666        5 6.0292468e-16            2            1            2 1.3635222e-16 
     770    3311.2398        5 6.0455546e-16            2            1            2 1.3635401e-16 
     775    3317.1319        5 6.0619283e-16            2            1            2 1.363567e-16 
     780    3321.8098        5 6.0783502e-16            2            1            2 1.363585e-16 
     785    3326.5211        5 6.0948385e-16            2            1            2 1.3636121e-16 
     790    3333.1601        5 6.1113754e-16            2            1            2 1.3636302e-16 
     795    3339.8169        5 6.1279791e-16            2            1            2 1.3636575e-16 
     800    3344.9651        5 6.1446316e-16            2            1            2 1.3636758e-16 
     805    3349.8399        5 6.1613515e-16            2            1            2 1.3637033e-16 
     810    3355.8058        5 6.178124e-16            2            1            2 1.3637251e-16 
     815    3361.3489        5 6.1949576e-16            2            1            2 1.3637495e-16 
     820    3366.4077        5 6.2118497e-16            2            1            2 1.3637736e-16 
     825    3371.6668        5 6.2288008e-16            2            1            2 1.3637979e-16 
     830    3377.0025        5 6.2458111e-16            2            1            2 1.3638222e-16 
     835    3382.3133        5 6.2628808e-16            2            1            2 1.3638466e-16 
     840    3388.9176        5 6.2800102e-16            2            1            2 1.3638711e-16 
     845    3394.2184        5 6.2971993e-16            2            1            2 1.3638957e-16 
     850    3400.4974        5 6.3144485e-16            2            1            2 1.3639203e-16 
     855    3406.8084        5 6.331758e-16            2            1            2 1.363945e-16 
     860    3412.6617        5 6.3491279e-16            2            1            2 1.3639699e-16 
     865    3418.1528        5 6.3665585e-16            2            1            2 1.3639948e-16 
     870    3424.0873        5 6.3840499e-16            2            1            2 1.3640198e-16 
     875    3430.3572        5 6.4016025e-16            2            1            2 1.3640448e-16 
     880    3436.9539        5 6.4192164e-16            2            1            2  1.36407e-16 
     885    3443.1304        5 6.4368918e-16            2            1            2 1.3640952e-16 
     890     3449.334        5 6.4546289e-16            2            1            2 1.3641205e-16 
     895    3455.2989        5 6.472428e-16            2            1            2 1.364146e-16 
     900    3461.6057        5 6.4902893e-16            2            1            2 1.3641715e-16 
     905    3468.7763        5 6.5082129e-16            2            1            2 1.364197e-16 
     910     3474.391        5 6.5261992e-16            2            1            2 1.3642227e-16 
     915    3480.4861        5 6.5442483e-16            2            1            2 1.3642485e-16 
     920    3486.9817        5 6.5623604e-16            2            1            2 1.3642743e-16 
     925     3492.249        5 6.5805358e-16            2            1            2 1.3643002e-16 
     930     3498.296        5 6.5987746e-16            2            1            2 1.3643263e-16 
     935    3504.8459        5 6.6170772e-16            2            1            2 1.3643524e-16 
     940    3510.3838        5 6.6354437e-16            2            1            2 1.3643786e-16 
     945      3516.28        5 6.6538744e-16            2            1            2 1.3644048e-16 
     950    3522.8071        5 6.6723694e-16            2            1            2 1.3644312e-16 
     955    3529.3603        6 6.6909291e-16            2            1            3 1.3644577e-16 
     960    3536.5662        6 6.7095536e-16            2            1            3 1.3644842e-16 
     965    3542.1738        6 6.7282431e-16            2            1            3 1.3645108e-16 
     970     3549.147        6 6.7469979e-16            2            1            3 1.3645376e-16 
     975    3554.5552        6 6.7658182e-16            2            1            3 1.3645644e-16 
     980    3559.7343        6 6.7847043e-16            2            1            3 1.3645913e-16 
     985     3566.562        6 6.8036563e-16            2            1            3 1.3646183e-16 
     990    3572.4606        7 6.8226745e-16            3            1            3 1.3646454e-16 
     995    3577.4855        7 6.8417592e-16            3            1            3 1.3646726e-16 
    1000    3582.7517        7 6.8609105e-16            3            1            3 1.3646998e-16 
    1005    3589.4852        7 6.8801288e-16            3            1            3 1.3647272e-16 
    1010    3596.0852        7 6.8994141e-16            3            1            3 1.3647547e-16 
    1015    3602.1287        7 6.9187668e-16            3            1            3 1.3647822e-16 
    1020    3607.9861        7 6.9381871e-16            3            1            3 1.3648099e-16 
    1025    3613.8498        7 6.9576753e-16            3            1            3 1.3648376e-16 
    1030    3621.9864        7 6.9772315e-16            3            1            3 1.3648654e-16 
    1035    3629.4899        7 6.9968561e-16            3            1            3 1.3648934e-16 
    1040    3636.7869        7 7.0165491e-16            3            1            3 1.3649214e-16 
    1045    3643.6182        7 7.036311e-16            3            1            3 1.3649495e-16 
    1050     3650.654        7 7.0561419e-16            3            1            3 1.3649777e-16 
    1055    3656.7218        7 7.0760421e-16            3            1            3 1.365006e-16 
    1060    3662.9492        7 7.0960118e-16            3            1            3 1.3650344e-16 
    1065    3669.0573        7 7.1160513e-16            3            1            3 1.3650629e-16 
    1070    3675.3233        7 7.1361607e-16            3            1            3 1.3650915e-16 
    1075    3680.9472        7 7.1563404e-16            3            1            3 1.3651202e-16 
    1080    3686.7816        7 7.1765906e-16            3            1            3 1.365149e-16 
    1085    3692.0467        7 7.1969115e-16            3            1            3 1.3651779e-16 
    1090    3698.6665        7 7.2173034e-16            3            1            3 1.3652069e-16 
    1095    3705.0691        7 7.2377666e-16            3            1            3 1.365236e-16 
    1100    3711.2885        7 7.2583012e-16            3            1            3 1.3652652e-16 
    1105    3716.5679        7 7.2789076e-16            3            1            3 1.3652945e-16 
    1110    3721.5905        7 7.2995859e-16            3            1            3 1.3653239e-16 
    1115     3727.365        7 7.3203365e-16            3            1            3 1.3653534e-16 
    1120    3733.7332        7 7.3411595e-16            3            1            3 1.365383e-16 
    1125    3739.8463        7 7.3620554e-16            3            1            3 1.3654127e-16 
    1130    3744.5019        7 7.3830241e-16            3            1            3 1.3654425e-16 
    1135    3750.1981        7 7.4040662e-16            3            1            3 1.3654724e-16 
    1140    3756.2401        7 7.4251817e-16            3            1            3 1.3655024e-16 
    1145    3761.6564        7 7.4463711e-16            3            1            3 1.3655325e-16 
    1150    3767.8392        7 7.4676344e-16            3            1            3 1.3655627e-16 
    1155    3774.7222        7 7.488972e-16            3            1            3 1.365593e-16 
    1160    3779.8606        7 7.5103842e-16            3            1            3 1.3656234e-16 
    1165    3786.3764        7 7.5318711e-16            3            1            3 1.365654e-16 
    1170    3791.3526        7 7.5534332e-16            3            1            3 1.3656846e-16 
    1175    3796.5882        7 7.5750705e-16            3            1            3 1.3657153e-16 
    1180    3802.6109        7 7.5967834e-16            3            1            3 1.3657462e-16 
    1185    3808.2849        7 7.6185722e-16            3            1            3 1.3657772e-16 
    1190    3813.9699        7 7.6404371e-16            3            1            3 1.3658082e-16 
    1195    3820.2931        7 7.6623784e-16            3            1            3 1.3658394e-16 
    1200     3825.857        7 7.6843963e-16            3            1            3 1.3658707e-16 
    1205    3831.8985        7 7.7064912e-16            3            1            3 1.3659021e-16 
    1210    3837.5058        7 7.7286632e-16            3            1            3 1.3659336e-16 
    1215    3843.5852        7 7.7509127e-16            3            1            3 1.3659652e-16 
    1220    3850.3371        7 7.7732399e-16            3            1            3 1.365997e-16 
    1225    3855.4298        7 7.7956452e-16            3            1            3 1.3660288e-16 
    1230    3861.8643        7 7.8181287e-16            3            1            3 1.3660608e-16 
    1235    3867.3407        7 7.8406907e-16            3            1            3 1.3660928e-16 
    1240    3874.0341        7 7.8633316e-16            3            1            3 1.366125e-16 
    1245    3879.8227        7 7.8860515e-16            3            1            3 1.3661573e-16 
    1250    3886.5222        7 7.9088509e-16            3            1            3 1.3661897e-16 
    1255    3892.6997        7 7.9317299e-16            3            1            3 1.3662223e-16 
    1260    3898.4953        7 7.9546888e-16            3            1            3 1.3662549e-16 
    1265    3905.3995        7 7.9777279e-16            3            1            3 1.3662877e-16 
    1270    3911.0681        7 8.0008475e-16            3            1            3 1.3663206e-16 
    1275    3916.0991        8 8.0240479e-16            4            1            3 1.3663536e-16 
    1280    3923.0247        8 8.0473294e-16            4            1            3 1.3663867e-16 
    1285     3929.436        8 8.0706922e-16            4            1            3  1.36642e-16 
    1290    3935.6896        8 8.0941366e-16            4            1            3 1.3664533e-16 
    1295    3941.2936        8 8.1176629e-16            4            1            3 1.3664868e-16 
    1300    3947.3577        8 8.1412714e-16            4            1            3 1.3665204e-16 
    1305    3953.2307        8 8.1649624e-16            4            1            3 1.3665541e-16 
    1310    3959.5734        8 8.1887361e-16            4            1            3 1.366588e-16 
    1315    3966.5635        8 8.2125929e-16            4            1            3 1.366622e-16 
    1320      3973.96        8 8.2365331e-16            4            1            3 1.3666561e-16 
    1325    3981.9082        8 8.2605569e-16            4            1            3 1.3666903e-16 
    1330    3988.9221        8 8.2846647e-16            4            1            3 1.3667247e-16 
    1335    3996.6341        8 8.3088566e-16            4            1            3 1.3667591e-16 
    1340    4001.7321        8 8.3331331e-16            4            1            3 1.3667937e-16 
    1345    4008.2174        8 8.3574944e-16            4            1            3 1.3668285e-16 
    1350    4015.1811        8 8.3819409e-16            4            1            3 1.3668633e-16 
    1355    4021.5381        8 8.4064727e-16            4            1            3 1.3668983e-16 
    1360     4029.769        8 8.4310903e-16            4            1            3 1.3669335e-16 
    1365    4037.8208        8 8.4557938e-16            4            1            3 1.3669687e-16 
    1370      4045.44        8 8.4805837e-16            4            1            3 1.3670041e-16 
    1375    4052.2094        8 8.5054602e-16            4            1            3 1.3670396e-16 
    1380    4059.5596        8 8.5304236e-16            4            1            3 1.3670753e-16 
    1385      4067.72        8 8.5554742e-16            4            1            3 1.367111e-16 
    1390    4075.1563        8 8.5806124e-16            4            1            3 1.367147e-16 
    1395     4082.315        8 8.6058383e-16            4            1            3 1.367183e-16 
    1400    4090.2137        8 8.6311525e-16            4            1            3 1.3672192e-16 
    1405     4097.103        8 8.656555e-16            4            1            3 1.3672555e-16 
    1410    4103.2535        8 8.6820464e-16            4            1            3 1.367292e-16 
    1415    4108.4642        8 8.7076268e-16            4            1            3 1.3673286e-16 
    1420    4115.8027        8 8.7332965e-16            4            1            3 1.3673654e-16 
    1425    4123.0427        8 8.759056e-16            4            1            3 1.3674022e-16 
    1430    4130.4962        9 8.7849055e-16            4            1            4 1.3674393e-16 
    1435    4137.1258        9 8.8108453e-16            4            1            4 1.3674764e-16 
    1440    4143.8274        9 8.8368757e-16            4            1            4 1.3675137e-16 
    1445    4149.8304        9 8.8629971e-16            4            1            4 1.3675512e-16 
    1450    4156.2563        9 8.8892098e-16            4            1            4 1.3675888e-16 
    1455    4162.4509        9 8.915514e-16            4            1            4 1.3676265e-16 
    1460    4168.2948        9 8.9419102e-16            4            1            4 1.3676644e-16 
    1465    4175.3616        9 8.9683986e-16            4            1            4 1.3677025e-16 
    1470    4183.0591        9 8.9949795e-16            4            1            4 1.3677406e-16 
    1475    4190.1797        9 9.0216534e-16            4            1            4 1.367779e-16 
    1480    4197.4369        9 9.0484204e-16            4            1            4 1.3678175e-16 
    1485    4204.8317        9 9.075281e-16            4            1            4 1.3678561e-16 
    1490    4212.4263        9 9.1022354e-16            4            1            4 1.3678949e-16 
    1495    4218.7312        9 9.129284e-16            4            1            4 1.3679338e-16 
    1500    4225.6887        9 9.1564272e-16            4            1            4 1.3679729e-16 
    1505    4232.4384        9 9.1836652e-16            4            1            4 1.3680121e-16 
    1510    4240.5821        9 9.2109983e-16            4            1            4 1.3680515e-16 
    1515    4247.9457        9 9.238427e-16            4            1            4 1.3680911e-16 
    1520    4255.0272        9 9.2659515e-16            4            1            4 1.3681308e-16 
    1525    4262.7901        9 9.2935722e-16            4            1            4 1.3681707e-16 
    1530    4269.8075        9 9.3212894e-16            4            1            4 1.3682107e-16 
    1535    4276.8937        9 9.3491035e-16            4            1            4 1.3682509e-16 
    1540    4283.1936        9 9.3770148e-16            4            1            4 1.3682912e-16 
    1545    4291.3963        9 9.4050236e-16            4            1            4 1.3683317e-16 
    1550    4299.1317        9 9.4331303e-16            4            1            4 1.3683724e-16 
    1555    4306.8441        9 9.4613352e-16            4            1            4 1.3684132e-16 
    1560    4315.3025        9 9.4896387e-16            4            1            4 1.3684542e-16 
    1565    4323.5601        9 9.518041e-16            4            1            4 1.3684954e-16 
    1570    4332.4778        9 9.5465427e-16            4            1            4 1.3685367e-16 
    1575    4340.6394        9 9.5751439e-16            4            1            4 1.3685782e-16 
    1580    4348.0641        9 9.6038451e-16            4            1            4 1.3686199e-16 
    1585    4355.7189        9 9.6326466e-16            4            1            4 1.3686617e-16 
    1590    4362.5518        9 9.6615487e-16            4            1            4 1.3687037e-16 
    1595    4369.9194        9 9.6905518e-16            4            1            4 1.3687459e-16 
    1600    4376.5874        9 9.7196563e-16            4            1            4 1.3687882e-16 
    1605    4384.7358        9 9.7488625e-16            4            1            4 1.3688308e-16 
    1610    4391.1352        9 9.7781708e-16            4            1            4 1.3688735e-16 
    1615    4397.7662        9 9.8075815e-16            4            1            4 1.3689163e-16 
    1620    4405.3776        9 9.8370949e-16            4            1            4 1.3689594e-16 
    1625    4412.8157        9 9.8667115e-16            4            1            4 1.3690026e-16 
    1630    4420.7138        9 9.8964317e-16            4            1            4 1.369046e-16 
    1635    4428.7708        9 9.9262556e-16            4            1            4 1.3690896e-16 
    1640    4436.5804        9 9.9561839e-16            4            1            4 1.3691334e-16 
    1645    4444.1976        9 9.9862167e-16            4            1            4 1.3691773e-16 
    1650    4450.9976        9 1.0016354e-15            4            1            4 1.3692215e-16 
    1655    4457.9357        9 1.0046598e-15            4            1            4 1.3692658e-16 
    1660    4464.9819        9 1.0076946e-15            4            1            4 1.3693103e-16 
    1665    4472.8794        9 1.0107401e-15            4            1            4 1.369355e-16 
    1670    4480.4275        9 1.0137962e-15            4            1            4 1.3693998e-16 
    1675    4488.0843        9 1.0168631e-15            4            1            4 1.3694449e-16 
    1680    4495.6784        9 1.0199406e-15            4            1            4 1.3694902e-16 
    1685    4505.5009        9 1.0230289e-15            4            1            4 1.3695356e-16 
    1690    4514.2428        9 1.0261279e-15            4            1            4 1.3695813e-16 
    1695    4522.5369        9 1.0292379e-15            4            1            4 1.3696271e-16 
    1700    4530.7376        9 1.0323586e-15            4            1            4 1.3696731e-16 
    1705    4538.8206        9 1.0354903e-15            4            1            4 1.3697194e-16 
    1710    4546.6799        9 1.0386329e-15            4            1            4 1.3697658e-16 
    1715    4554.5729        9 1.0417866e-15            4            1            4 1.3698124e-16 
    1720    4561.9369        9 1.0449512e-15            4            1            4 1.3698592e-16 
    1725    4570.6199        9 1.0481269e-15            4            1            4 1.3699062e-16 
    1730    4577.9324        9 1.0513137e-15            4            1            4 1.3699535e-16 
    1735    4585.6381        9 1.0545116e-15            4            1            4 1.3700009e-16 
    1740    4593.3437        9 1.0577207e-15            4            1            4 1.3700485e-16 
    1745    4601.6567        9 1.0609411e-15            4            1            4 1.3700964e-16 
    1750    4610.3323        9 1.0641727e-15            4            1            4 1.3701444e-16 
    1755    4617.4149        9 1.0674155e-15            4            1            4 1.3701927e-16 
    1760    4625.5024        9 1.0706697e-15            4            1            4 1.3702411e-16 
    1765    4633.6773        9 1.0739353e-15            4            1            4 1.3702898e-16 
    1770    4640.6616        9 1.0772123e-15            4            1            4 1.3703387e-16 
    1775    4649.3369        9 1.0805008e-15            4            1            4 1.3703878e-16 
    1780    4657.3799        9 1.0838007e-15            4            1            4 1.3704371e-16 
    1785    4665.3153        9 1.0871122e-15            4            1            4 1.3704866e-16 
    1790    4673.8131        9 1.0904353e-15            4            1            4 1.3705364e-16 
    1795    4682.2112        9  1.09377e-15            4            1            4 1.3705864e-16 
    1800     4689.741        9 1.0971163e-15            4            1            4 1.3706366e-16 
    1805    4698.9784        9 1.1004743e-15            4            1            4 1.370687e-16 
    1810     4709.032        9 1.1038441e-15            4            1            4 1.3707376e-16 
    1815    4718.6105        9 1.1072256e-15            4            1            4 1.3707885e-16 
    1820    4727.4361        9 1.110619e-15            4            1            4 1.3708395e-16 
    1825    4736.2283        9 1.1140242e-15            4            1            4 1.3708909e-16 
    1830    4746.2983        9 1.1174414e-15            4            1            4 1.3709424e-16 
    1835    4754.4384       10 1.1208704e-15            4            1            5 1.3709942e-16 
    1840     4762.841       10 1.1243115e-15            4            1            5 1.3710462e-16 
    1845    4772.3748       10 1.1277646e-15            4            1            5 1.3710984e-16 
    1850    4780.4756       10 1.1312297e-15            4            1            5 1.3711509e-16 
    1855    4788.7266       10 1.134707e-15            4            1            5 1.3712036e-16 
    1860    4796.2279       10 1.1381964e-15            4            1            5 1.3712565e-16 
    1865    4805.2763       10 1.141698e-15            4            1            5 1.3713097e-16 
    1870    4813.8903       10 1.1452119e-15            4            1            5 1.3713632e-16 
    1875    4822.5618       10 1.1487381e-15            4            1            5 1.3714168e-16 
    1880    4831.0916       10 1.1522765e-15            4            1            5 1.3714707e-16 
    1885    4838.9931       10 1.1558274e-15            4            1            5 1.3715249e-16 
    1890    4846.6506       10 1.1593906e-15            4            1            5 1.3715793e-16 
    1895    4853.9855       10 1.1629663e-15            4            1            5 1.3716339e-16 
    1900    4861.4245       10 1.1665545e-15            4            1            5 1.3716889e-16 
    1905    4869.9985       11 1.1701553e-15            5            1            5 1.371744e-16 
    1910    4878.4777       11 1.1737686e-15            5            1            5 1.3717994e-16 
    1915    4887.5208       11 1.1773946e-15            5            1            5 1.3718551e-16 
    1920    4896.3434       11 1.1810333e-15            5            1            5 1.371911e-16 
    1925    4903.9448       11 1.1846846e-15            5            1            5 1.3719672e-16 
    1930     4913.432       11 1.1883488e-15            5            1            5 1.3720236e-16 
    1935     4922.125       11 1.1920257e-15            5            1            5 1.3720803e-16 
    1940    4931.9248       11 1.1957155e-15            5            1            5 1.3721372e-16 
    1945      4941.59       11 1.1994182e-15            5            1            5 1.3721944e-16 
    1950    4952.0706       11 1.2031338e-15            5            1            5 1.3722519e-16 
    1955     4961.551       11 1.2068625e-15            5            1            5 1.3723097e-16 
    1960    4968.6228       11 1.2106041e-15            5            1            5 1.3723677e-16 
    1965    4977.5993       11 1.2143589e-15            5            1            5 1.372426e-16 
    1970    4986.5044       11 1.2181268e-15            5            1            5 1.3724846e-16 
    1975    4994.9292       11 1.2219078e-15            5            1            5 1.3725434e-16 
    1980    5005.5855       11 1.2257021e-15            5            1            5 1.3726025e-16 
    1985    5014.8919       11 1.2295096e-15            5            1            5 1.3726619e-16 
    1990     5025.351       11 1.2333304e-15            5            1            5 1.3727216e-16 
    1995     5033.593       11 1.2371646e-15            5            1            5 1.3727815e-16 
    2000     5041.785       11 1.2410122e-15            5            1            5 1.3728418e-16 
    2005    5049.5142       11 1.2448733e-15            5            1            5 1.3729023e-16 
    2010    5057.2981       11 1.2487478e-15            5            1            5 1.3729631e-16 
    2015    5065.2505       11 1.2526359e-15            5            1            5 1.3730242e-16 
    2020    5073.7467       12 1.2565376e-15            6            1            5 1.3730855e-16 
    2025    5082.5971       12 1.260453e-15            6            1            5 1.3731472e-16 
    2030    5091.5171       12 1.264382e-15            6            1            5 1.3732092e-16 
    2035    5100.5717       12 1.2683247e-15            6            1            5 1.3732714e-16 
    2040    5109.3281       12 1.2722813e-15            6            1            5 1.373334e-16 
    2045    5118.4867       12 1.2762517e-15            6            1            5 1.3733969e-16 
    2050    5126.1362       13 1.2802359e-15            7            1            5  1.37346e-16 
    2055    5134.5454       13 1.2842341e-15            7            1            5 1.3735235e-16 
    2060    5143.8462       13 1.2882463e-15            7            1            5 1.3735872e-16 
    2065    5151.7769       13 1.2922725e-15            7            1            5 1.3736513e-16 
    2070    5159.9167       13 1.2963127e-15            7            1            5 1.3737157e-16 
    2075    5169.3534       13 1.3003671e-15            7            1            5 1.3737804e-16 
    2080    5177.6783       13 1.3044357e-15            7            1            5 1.3738454e-16 
    2085     5186.904       13 1.3085185e-15            7            1            5 1.3739107e-16 
    2090    5194.4757       13 1.3126156e-15            7            1            5 1.3739763e-16 
    2095    5202.0253       13 1.316727e-15            7            1            5 1.3740423e-16 
    2100     5211.775       13 1.3208527e-15            7            1            5 1.3741086e-16 
    2105    5220.3293       13 1.3249929e-15            7            1            5 1.3741752e-16 
    2110    5230.4538       13 1.3291476e-15            7            1            5 1.3742421e-16 
    2115    5239.1497       13 1.3333168e-15            7            1            5 1.3743093e-16 
    2120    5247.8779       13 1.3375006e-15            7            1            5 1.3743769e-16 
    2125    5257.1247       13 1.341699e-15            7            1            5 1.3744448e-16 
    2130    5267.1539       14 1.3459121e-15            7            1            6 1.374513e-16 
    2135    5276.2736       14 1.3501399e-15            7            1            6 1.3745816e-16 
    2140    5285.7343       14 1.3543825e-15            7            1            6 1.3746505e-16 
    2145    5295.3318       14  1.35864e-15            7            1            6 1.3747197e-16 
    2150    5302.9573       14 1.3629123e-15            7            1            6 1.3747893e-16 
    2155     5312.579       14 1.3671995e-15            7            1            6 1.3748592e-16 
    2160    5321.4224       14 1.3715018e-15            7            1            6 1.3749295e-16 
    2165    5329.5217       14 1.3758191e-15            7            1            6 1.3750001e-16 
    2170    5338.6833       14 1.3801515e-15            7            1            6 1.3750711e-16 
    2175     5348.955       14 1.384499e-15            7            1            6 1.3751424e-16 
    2180    5358.3183       14 1.3888618e-15            7            1            6 1.3752141e-16 
    2185    5367.2436       14 1.3932398e-15            7            1            6 1.375286e-16 
    2190    5376.3723       14 1.3976331e-15            7            1            6 1.3753586e-16 
    2195     5387.241       14 1.4020417e-15            7            1            6 1.3754309e-16 
    2200    5395.8544       14 1.4064659e-15            7            1            6 1.375505e-16 
    2205    5405.0671       14 1.4109053e-15            7            1            6 1.3755765e-16 
    2210    5414.5389       15 1.4153608e-15            7            1            7 1.3756542e-16 
    2215    5425.1859       15 1.4198306e-15            7            1            7 1.3757203e-16 
    2220    5436.3315       15 1.4243135e-15            7            1            7 1.375761e-16 
    2225     5445.436       15 1.4288094e-15            7            1            7 1.3757746e-16 
    2230    5454.4749       15 1.4333241e-15            7            1            7 1.3758203e-16 
    2235     5465.143       15 1.4378463e-15            7            1            7 1.3757825e-16 
    2240    5475.6964       15 1.4423917e-15            7            1            7 1.3758186e-16 
    2245     5485.461       15 1.4469501e-15            7            1            7 1.375826e-16 
    2250    5494.2305       15 1.4515276e-15            7            1            7 1.3758655e-16 
    2255    5503.0638       15 1.4561113e-15            7            1            7 1.3758075e-16 
    2260    5513.0213       15 1.4607193e-15            7            1            7 1.3758313e-16 
    2265    5523.7988       15 1.4653403e-15            7            1            7 1.3758242e-16 
    2270    5532.9229       15 1.4699806e-15            7            1            7 1.3758495e-16 
    2275    5541.7506       15 1.4746312e-15            7            1            7 1.3758146e-16 
    2280    5551.5322       15 1.4793058e-15            7            1            7 1.3758577e-16 
    2285    5561.2189       15 1.4839895e-15            7            1            7 1.3758286e-16 
    2290    5570.2828       15 1.4886963e-15            7            1            7 1.3758661e-16 
    2295    5580.1639       15 1.4934148e-15            7            1            7 1.3758578e-16 
    2300    5589.3063       15 1.4981547e-15            7            1            7 1.3758973e-16 
    2305    5599.5805       15 1.5029027e-15            7            1            7 1.3758523e-16 
    2310    5610.0358       15 1.5076749e-15            7            1            7 1.3758834e-16 
    2315    5619.8035       15  1.51246e-15            7            1            7 1.3758771e-16 
    2320    5629.9865       15 1.5172662e-15            7            1            7 1.3759142e-16 
    2325    5639.5556       15 1.5220782e-15            7            1            7 1.3758416e-16 
    2330       5648.6       15 1.5269157e-15            7            1            7 1.3758563e-16 
    2335    5659.8125       15 1.5317664e-15            7            1            7 1.375833e-16 
    2340     5671.159       15 1.5366367e-15            7            1            7 1.3758362e-16 
    2345    5682.1519       15 1.5415196e-15            7            1            7 1.3757958e-16 
    2350    5694.3463       15 1.5464263e-15            7            1            7 1.3758218e-16 
    2355    5704.6914       15 1.5513414e-15            7            1            7 1.3757619e-16 
    2360    5715.4723       15 1.5562818e-15            7            1            7 1.3757812e-16 
    2365      5726.08       15 1.5612332e-15            7            1            7 1.3757397e-16 
    2370    5735.5789       15 1.5662084e-15            7            1            7 1.3757622e-16 
    2375    5744.5873       15 1.5711903e-15            7            1            7 1.375677e-16 
    2380     5753.906       15 1.5761989e-15            7            1            7 1.375686e-16 
    2385    5764.0191       15 1.5812216e-15            7            1            7 1.3756604e-16 
    2390    5776.3364       15 1.5862657e-15            7            1            7 1.3756727e-16 
    2395    5785.4162       15 1.5913155e-15            7            1            7 1.3755657e-16 
    2400    5797.0147       15 1.5963942e-15            7            1            7 1.3755717e-16 
    2405    5807.2835       15 1.6014845e-15            7            1            7 1.3755157e-16 
    2410     5817.803       15 1.6065995e-15            7            1            7 1.3755289e-16 
    2415    5828.1652       15 1.6117186e-15            7            1            7 1.3754042e-16 
    2420    5839.9255       15 1.6168671e-15            7            1            7 1.375394e-16 
    2425    5850.0839       15 1.6220288e-15            7            1            7 1.3753367e-16 
    2430     5861.281       15 1.6272145e-15            7            1            7 1.3753379e-16 
    2435    5871.9019       15 1.6324079e-15            7            1            7 1.3752351e-16 
    2440     5884.508       15 1.6376291e-15            7            1            7 1.3752291e-16 
    2445    5897.4901       15 1.6428605e-15            7            1            7 1.3751416e-16 
    2450     5908.753       15 1.6481187e-15            7            1            7 1.3751395e-16 
    2455    5920.3358       15 1.6533816e-15            7            1            7 1.3750007e-16 
    2460    5931.4677       15 1.6586746e-15            7            1            7 1.3749783e-16 
    2465    5942.6877       15 1.6639822e-15            7            1            7 1.3749166e-16 
    2470    5954.1902       15 1.6693132e-15            7            1            7 1.3749037e-16 
    2475    5964.7841       15 1.6746445e-15            7            1            7 1.3747071e-16 
    2480    5975.0439       16 1.6800114e-15            8            1            7 1.3746805e-16 
    2485    5986.8679       16 1.685394e-15            8            1            7 1.3746225e-16 
    2490    5998.3471       16 1.6908003e-15            8            1            7 1.3746124e-16 
    2495    6009.7628       16 1.6962069e-15            8            1            7 1.3744176e-16 
    2500    6022.1402       16 1.7016496e-15            8            1            7 1.374394e-16 
    2505    6031.5799       16 1.7071081e-15            8            1            7 1.3743377e-16 
    2510    6041.9984       16 1.7125904e-15            8            1            7 1.3743281e-16 
    2515    6054.0871       16 1.7180731e-15            8            1            7 1.3741313e-16 
    2520    6064.9097       16 1.7235921e-15            8            1            7 1.3741049e-16 
    2525    6076.1544       16 1.7291256e-15            8            1            7 1.3740315e-16 
    2530    6086.0021       16 1.734684e-15            8            1            7 1.3740124e-16 
    2535    6096.7419       16 1.740243e-15            8            1            7 1.3738058e-16 
    2540     6106.972       16 1.7458387e-15            8            1            7 1.3737705e-16 
    2545     6118.242       16 1.7514479e-15            8            1            7 1.3736753e-16 
    2550    6130.5737       16 1.7570833e-15            8            1            7 1.373