  Granular Flow Simulation 

       1 atoms 
       1 atom types 
       4 nutrients

   0.0   1.0e-04  xlo xhi 
   0.0   1.0e-04  ylo yhi 
   0.0   1.0e-04  zlo zhi 

 Atoms

     1 1 9.66e-7 290 5e-5 0.25e-4 5e-7 9.66e-7 aob


 Nutrients

     1 nh3 l 0.002 0.002 0.002 0.002 0.002 0.002 0.002
     2 no2 l 0 0 0 0 0 0 0
     3 o2 l 2.81e-4 2.81e-4 2.81e-4 2.81e-4 2.81e-4 2.81e-4 2.81e-4
     4 co2 l 0.005 0.005 0.005 0.005 0.005 0.005 0.005

 Diffusion Coeffs
     
     nh3 1.639e-9
     no2 1.7e-9
     o2 2e-9
     co2 1.919e-9

 Ks
     
     aob 2e-6 0 9.38e-6 0

 Growth

     aob 0.0002725

 Yield
    
     aob 0.0759150138
  
 Maintenance
 
     aob 0.00125

 Decay

     aob 2.78e-6

 Catabolism Coeffs
         
     aob -1 1 -1.5 0

 Anabolism Coeffs
          
     aob -0.9 0.7 0 -1
 
 Decay Coeffs
           
     aob 0 0 0 1
 
 Nutrient Energy

    nh3 inf -79.37 -26.57 inf inf 3
    no2 inf -50.60 -32.20 inf inf 3
    o2 inf 16.4 inf inf inf 2
    co2 -386.00	-623.16	-586.85	-527.80	inf 3

 Type Energy

    aob inf -67 inf inf inf 2

