  Granular Flow Simulation 

       2 atoms 
       2 atom types 
       2 nutrients

   0.0   1e-04  xlo xhi 
   0.0   1e-04  ylo yhi 
   0.0   1e-04  zlo zhi 

 Atoms

     1 1 5e-7 150 5e-5 5e-5 5e-5 10e-7 het
     1 2 5e-7 150 5e-5 4e-5 5e-5 5e-7 aob

 Nutrients

     1 cod l 0.03 0.03 0.03 0.03 0.03 0.03 0.03
     1 o2 g 0.02 0.02 0.02 0.02 0.02 0.02 0.02

 Diffusion Coeffs
     
     cod 1e-9
     o2 0

 Ks
     
     het 4e-3
     aob 0.001

 Growth

     het 0.000069444
     aob 0.0000088

 Yield
    
     het 0.63
     aob 0.33
  
 Catabolism Coeffs
         
    het -1 0

 Anabolism Coeffs
          
    het 0 1
