LAMMPS (5 Nov 2016)
# NUFEB simulation

atom_style	bio
atom_modify	map array sort 1000 5.0e-7
boundary	ff ff ff
newton		off
#processors  2 1 1

comm_modify	vel yes
read_data_bio atom.in
  orthogonal box = (0 0 0) to (0.0001 0.0001 0.0001)
  1 by 1 by 1 MPI processor grid
  reading atoms ...
  3 atoms
  10 nutrients

group AOB type 1
1 atoms in group AOB
group NOB type 2
1 atoms in group NOB
group COMM type 3
1 atoms in group COMM

neighbor	5.0e-7 bin
neigh_modify	delay 0 one 5000

#pair_style none
pair_style  gran/hooke/history 0.000200 NULL 0.000050 NULL 0.0 1

pair_coeff  * *
timestep 36

fix 1 all nve/limit 1e-8

#fix	 2 all gravity 1.47 vector 0 0 -1 # spherical 90.0 -180.0
#fix     3 all fdrag
fix 10 all viscous 0.1


fix xw all wall/gran hooke/history 2000 NULL 500.0 NULL 1.5 0 xplane  0.0   1.0e-04
fix yw all wall/gran hooke/history 2000 NULL 500.0 NULL 1.5 0 yplane  0.0   1.0e-04
fix zw all wall/gran hooke/history 2000 NULL 500.0 NULL 1.5 0 zplane  0.0   1.0e-04

variable kanc equal 50

fix xwa all walladh v_kanc xplane  0.0   1.0e-04
fix ywa all walladh v_kanc yplane  0.0   1.0e-04
fix zwa all walladh v_kanc zplane  0.0   1.0e-04

##############Ibm Variable Definitions##############

#Defining EPS density and ratio variables
variable EPSdens equal 30
variable EPSratio equal 1.25

variable ke equal 5e+10

#Defining kinetics variables
variable temp equal 298.15
variable gasTran equal 0.08205746
variable gvol equal 8e-14
variable rth equal 0.0083144
variable pressure equal 1
variable ph equal 7.0

#Defining diffusion variables
variable diffT equal 1e-6
variable tol equal 1e-7

##############Ibm functions##############

fix k1 all kinetics 25 25 25 v_temp v_rth v_gvol v_gasTran v_ph
fix g1 all diffusion exp v_diffT v_tol pp pp nd
#fix ki3 all kinetics/ph 1
fix ki2 all kinetics/thermo 1 fix open v_pressure
fix ki1 all kinetics/monod 1 v_EPSdens
fix d1 all divide 1 v_EPSdens 1 31231

#fix j1 all epsadh 1 v_ke 1
#fix e1 HET eps_extract 16 v_EPSratio v_EPSdens 1242242

##############Ibm compute##############

compute myMass all biomass
compute myNtypes all ntypes

##############Simulation outputs##############

#dump		id all custom 250 snapshot.bubblemd id type diameter x y z
dump            d0 all bio 500 biomass
thermo_style    custom step cpu atoms biomass c_myNtypes[*] c_myMass[2]
thermo		5
thermo_modify	lost ignore

run  5000
Neighbor list info ...
  2 neighbor list requests
  update every 1 steps, delay 0 steps, check yes
  max neighbors/atom: 5000, page size: 100000
  master list distance cutoff = 1.466e-06
  ghost atom cutoff = 1.466e-06
  binsize = 7.33e-07 -> bins = 137 137 137
Memory usage per processor = 18.9946 Mbytes
Step CPU Atoms biomass c_myNtypes[1] c_myNtypes[2] c_myNtypes[3] c_myMass[2] 
       0            0        3 4.1062866e-16            1            1            1 1.3687622e-16 
       5   0.17949891        3 4.1151573e-16            1            1            1 1.3680774e-16 
      10   0.28168797        3 4.1240618e-16            1            1            1 1.3673929e-16 
      15      0.38255        3 4.1330002e-16            1            1            1 1.3667088e-16 
      20   0.48305488        3 4.1419724e-16            1            1            1 1.3660251e-16 
      25     0.582412        3 4.1509788e-16            1            1            1 1.3653417e-16 
      30   0.68877482        3 4.1600193e-16            1            1            1 1.3646586e-16 
      35   0.79617786        3 4.1690941e-16            1            1            1 1.3639758e-16 
      40   0.89990282        3 4.1782033e-16            1            1            1 1.3632934e-16 
      45   0.99690986        3 4.1873471e-16            1            1            1 1.3626114e-16 
      50     1.099721        3 4.1965255e-16            1            1            1 1.3619297e-16 
      55    1.2010548        3 4.2057387e-16            1            1            1 1.3612483e-16 
      60    1.3030338        3 4.2149867e-16            1            1            1 1.3605673e-16 
      65    1.4056599        3 4.2242698e-16            1            1            1 1.3598866e-16 
      70     1.508348        3 4.2335881e-16            1            1            1 1.3592062e-16 
      75    1.6110339        3 4.2429416e-16            1            1            1 1.3585262e-16 
      80    1.7113359        3 4.2523305e-16            1            1            1 1.3578465e-16 
      85    1.8117468        3 4.2617548e-16            1            1            1 1.3571672e-16 
      90    1.9155169        3 4.2712148e-16            1            1            1 1.3564882e-16 
      95    2.0164289        3 4.2807106e-16            1            1            1 1.3558096e-16 
     100    2.1213319        3 4.2902422e-16            1            1            1 1.3551313e-16 
     105    2.2239139        3 4.2998098e-16            1            1            1 1.3544533e-16 
     110    2.3255818        3 4.3094136e-16            1            1            1 1.3537757e-16 
     115     2.433625        3 4.3190535e-16            1            1            1 1.3530984e-16 
     120    2.5399799        3 4.3287299e-16            1            1            1 1.3524214e-16 
     125    2.6483688        3 4.3384427e-16            1            1            1 1.3517448e-16 
     130     2.751684        3 4.3481922e-16            1            1            1 1.3510685e-16 
     135    2.8519478        3 4.3579784e-16            1            1            1 1.3503926e-16 
     140    2.9578488        3 4.3678015e-16            1            1            1 1.349717e-16 
     145    3.0582478        3 4.3776616e-16            1            1            1 1.3490417e-16 
     150     3.161181        4 4.3875588e-16            2            1            1 1.3483668e-16 
     155     3.263119        5 4.3974933e-16            2            1            2 1.3476922e-16 
     160    3.3650699        5 4.4074652e-16            2            1            2 1.3470179e-16 
     165    3.4699948        5 4.4174746e-16            2            1            2 1.346344e-16 
     170    3.5681088        5 4.4275216e-16            2            1            2 1.3456705e-16 
     175    3.6782899        5 4.4376064e-16            2            1            2 1.3449972e-16 
     180      3.78089        5 4.4477292e-16            2            1            2 1.3443243e-16 
     185    3.8848429        5 4.4578899e-16            2            1            2 1.3436517e-16 
     190    3.9936569        5 4.4680889e-16            2            1            2 1.3429795e-16 
     195    4.0965829        5 4.4783261e-16            2            1            2 1.3423076e-16 
     200    4.1993229        5 4.4886018e-16            2            1            2 1.3416361e-16 
     205    4.3040528        5 4.498916e-16            2            1            2 1.3409649e-16 
     210    4.4031248        5 4.5092689e-16            2            1            2 1.340294e-16 
     215    4.5057509        5 4.5196607e-16            2            1            2 1.3396234e-16 
     220    4.6079409        5 4.5300915e-16            2            1            2 1.3389532e-16 
     225    4.7064989        5 4.5405613e-16            2            1            2 1.3382833e-16 
     230     4.806973        5 4.5510704e-16            2            1            2 1.3376138e-16 
     235    4.9129658        5 4.5616189e-16            2            1            2 1.3369446e-16 
     240     5.013119        5 4.5722068e-16            2            1            2 1.3362757e-16 
     245    5.1133518        5 4.5828345e-16            2            1            2 1.3356072e-16 
     250    5.2136359        5 4.5935019e-16            2            1            2 1.334939e-16 
     255    5.3156729        5 4.6042092e-16            2            1            2 1.3342711e-16 
     260    5.4144149        5 4.6149566e-16            2            1            2 1.3336036e-16 
     265    5.5142789        5 4.6257442e-16            2            1            2 1.3329364e-16 
     270      5.61693        5 4.6365721e-16            2            1            2 1.3322695e-16 
     275    5.7207198        5 4.6474405e-16            2            1            2 1.3316029e-16 
     280    5.8197458        5 4.6583496e-16            2            1            2 1.3309367e-16 
     285    5.9207759        5 4.6692994e-16            2            1            2 1.3302709e-16 
     290      6.02229        5 4.6802901e-16            2            1            2 1.3296053e-16 
     295     6.122494        5 4.6913218e-16            2            1            2 1.3289401e-16 
     300     6.225894        5 4.7023947e-16            2            1            2 1.3282753e-16 
     305    6.3265748        5 4.713509e-16            2            1            2 1.3276107e-16 
     310    6.4259989        5 4.7246647e-16            2            1            2 1.3269465e-16 
     315    6.5278559        5 4.735862e-16            2            1            2 1.3262827e-16 
     320    6.6310399        5 4.7471011e-16            2            1            2 1.3256191e-16 
     325     6.732281        5 4.7583821e-16            2            1            2 1.3249559e-16 
     330    6.8302138        5 4.7697051e-16            2            1            2 1.324293e-16 
     335    6.9290929        5 4.7810703e-16            2            1            2 1.3236305e-16 
     340     7.044837        5 4.7924779e-16            2            1            2 1.3229683e-16 
     345    7.1420698        5 4.803928e-16            2            1            2 1.3223064e-16 
     350    7.2437298        5 4.8154207e-16            2            1            2 1.3216449e-16 
     355      7.36833        5 4.8269561e-16            2            1            2 1.3209836e-16 
     360     7.485647        5 4.8385345e-16            2            1            2 1.3203228e-16 
     365    7.5936069        5 4.850156e-16            2            1            2 1.3196622e-16 
     370     7.723948        5 4.8618207e-16            2            1            2 1.319002e-16 
     375    7.8295808        5 4.8735288e-16            2            1            2 1.3183421e-16 
     380    7.9409618        5 4.8852804e-16            2            1            2 1.3176825e-16 
     385    8.0651078        5 4.8970756e-16            2            1            2 1.3170233e-16 
     390    8.1788528        5 4.9089147e-16            2            1            2 1.3163644e-16 
     395    8.3017378        5 4.9207978e-16            2            1            2 1.3157058e-16 
     400    8.4249539        5 4.9327251e-16            2            1            2 1.3150475e-16 
     405    8.5576439        5 4.9446966e-16            2            1            2 1.3143896e-16 
     410    8.6743989        5 4.9567125e-16            2            1            2 1.313732e-16 
     415    8.7973249        5 4.968773e-16            2            1            2 1.3130748e-16 
     420     8.943064        5 4.9808783e-16            2            1            2 1.3124178e-16 
     425    9.0722249        5 4.9930285e-16            2            1            2 1.3117612e-16 
     430     9.202286        5 5.0052238e-16            2            1            2 1.311105e-16 
     435     9.326849        5 5.0174642e-16            2            1            2 1.310449e-16 
     440    9.4736938        5  5.02975e-16            2            1            2 1.3097934e-16 
     445    9.6060338        5 5.0420814e-16            2            1            2 1.3091381e-16 
     450    9.7295229        5 5.0544584e-16            2            1            2 1.3084831e-16 
     455    9.8471649        5 5.0668813e-16            2            1            2 1.3078285e-16 
     460    9.9749718        5 5.0793502e-16            2            1            2 1.3071742e-16 
     465    10.098888        5 5.0918653e-16            2            1            2 1.3065202e-16 
     470    10.234324        5 5.1044266e-16            2            1            2 1.3058666e-16 
     475    10.364978        5 5.1170345e-16            2            1            2 1.3052133e-16 
     480    10.508404        5 5.129689e-16            2            1            2 1.3045603e-16 
     485    10.640196        5 5.1423903e-16            2            1            2 1.3039076e-16 
     490    10.758272        5 5.1551386e-16            2            1            2 1.3032552e-16 
     495    10.890967        5 5.167934e-16            2            1            2 1.3026032e-16 
     500    11.025503        5 5.1807767e-16            2            1            2 1.3019515e-16 
     505    11.153709        5 5.1936668e-16            2            1            2 1.3013002e-16 
     510    11.277937        5 5.2066046e-16            2            1            2 1.3006491e-16 
     515    11.410703        5 5.2195902e-16            2            1            2 1.2999984e-16 
     520    11.532884        5 5.2326237e-16            2            1            2 1.299348e-16 
     525    11.653456        5 5.2457054e-16            2            1            2 1.298698e-16 
     530    11.778481        5 5.2588353e-16            2            1            2 1.2980482e-16 
     535    11.894129        5 5.2720137e-16            2            1            2 1.2973988e-16 
     540    12.015565        5 5.2852407e-16            2            1            2 1.2967497e-16 
     545    12.132389        5 5.2985165e-16            2            1            2 1.296101e-16 
     550    12.259878        5 5.3118412e-16            2            1            2 1.2954525e-16 
     555    12.376088        5 5.3252151e-16            2            1            2 1.2948044e-16 
     560    12.503728        5 5.3386383e-16            2            1            2 1.2941566e-16 
     565    12.622805        5 5.3521109e-16            2            1            2 1.2935091e-16 
     570    12.747775        5 5.3656332e-16            2            1            2 1.292862e-16 
     575    12.871562        5 5.3792054e-16            2            1            2 1.2922152e-16 
     580    12.981508        5 5.3928275e-16            2            1            2 1.2915687e-16 
     585    13.093282        5 5.4064997e-16            2            1            2 1.2909225e-16 
     590    13.205903        5 5.4202223e-16            2            1            2 1.2902767e-16 
     595    13.317454        5 5.4339954e-16            2            1            2 1.2896311e-16 
     600    13.429044        5 5.4478192e-16            2            1            2 1.2889859e-16 
     605    13.538611        5 5.4616939e-16            2            1            2 1.2883411e-16 
     610     13.65567        5 5.4756195e-16            2            1            2 1.2876965e-16 
     615    13.768576        5 5.4895964e-16            2            1            2 1.2870523e-16 
     620    13.874872        5 5.5036247e-16            2            1            2 1.2864084e-16 
     625    13.989119        5 5.5177046e-16            2            1            2 1.2857648e-16 
     630    14.116165        5 5.5318362e-16            2            1            2 1.2851215e-16 
     635    14.239787        5 5.5460197e-16            2            1            2 1.2844786e-16 
     640    14.377278        5 5.5602554e-16            2            1            2 1.2838359e-16 
     645    14.510863        5 5.5745433e-16            2            1            2 1.2831936e-16 
     650    14.641511        5 5.5888837e-16            2            1            2 1.2825516e-16 
     655    14.769999        5 5.6032768e-16            2            1            2  1.28191e-16 
     660     14.89724        5 5.6177227e-16            2            1            2 1.2812686e-16 
     665    15.042932        5 5.6322216e-16            2            1            2 1.2806276e-16 
     670    15.214305        5 5.6467737e-16            2            1            2 1.2799869e-16 
     675    15.384338        5 5.6613792e-16            2            1            2 1.2793465e-16 
     680    15.552961        5 5.6760383e-16            2            1            2 1.2787065e-16 
     685    15.717179        5 5.6907512e-16            2            1            2 1.2780668e-16 
     690     15.88513        5 5.7055179e-16            2            1            2 1.2774273e-16 
     695    16.051371        5 5.7203388e-16            2            1            2 1.2767882e-16 
     700    16.216229        5 5.7352141e-16            2            1            2 1.2761495e-16 
     705    16.392813        5 5.7501438e-16            2            1            2 1.275511e-16 
     710    16.561229        5 5.7651283e-16            2            1            2 1.2748729e-16 
     715     16.74837        5 5.7801676e-16            2            1            2 1.2742351e-16 
     720    16.939531        5 5.795262e-16            2            1            2 1.2735976e-16 
     725    17.140648        5 5.8104117e-16            2            1            2 1.2729604e-16 
     730    17.349331        5 5.8256168e-16            2            1            2 1.2723235e-16 
     735    17.540334        5 5.8408776e-16            2            1            2 1.271687e-16 
     740    17.736019        5 5.8561943e-16            2            1            2 1.2710507e-16 
     745     17.92773        5 5.8715669e-16            2            1            2 1.2704148e-16 
     750     18.10857        5 5.8869959e-16            2            1            2 1.2697792e-16 
     755    18.252354        5 5.9024812e-16            2            1            2 1.269144e-16 
     760    18.416113        5 5.9180232e-16            2            1            2 1.268509e-16 
     765    18.587005        5 5.933622e-16            2            1            2 1.2678744e-16 
     770    18.762221        5 5.9492778e-16            2            1            2 1.2672401e-16 
     775     18.93466        5 5.9649908e-16            2            1            2 1.2666061e-16 
     780    19.090715        5 5.9807613e-16            2            1            2 1.2659724e-16 
     785    19.256928        5 5.9965894e-16            2            1            2 1.265339e-16 
     790    19.445463        5 6.0124753e-16            2            1            2 1.264706e-16 
     795    19.622206        5 6.0284192e-16            2            1            2 1.2640732e-16 
     800     19.77331        5 6.0444213e-16            2            1            2 1.2634408e-16 
     805    19.935059        5 6.0604819e-16            2            1            2 1.2628087e-16 
     810    20.102217        5 6.076601e-16            2            1            2 1.2621769e-16 
     815    20.266378        5 6.092779e-16            2            1            2 1.2615455e-16 
     820    20.418994        5 6.1090161e-16            2            1            2 1.2609143e-16 
     825     20.59018        5 6.1253123e-16            2            1            2 1.2602835e-16 
     830    20.759699        5 6.1416681e-16            2            1            2 1.259653e-16 
     835    20.936026        5 6.1580834e-16            2            1            2 1.2590228e-16 
     840    21.117304        5 6.1745586e-16            2            1            2 1.2583929e-16 
     845    21.275573        5 6.1910939e-16            2            1            2 1.2577633e-16 
     850    21.447946        5 6.2076895e-16            2            1            2 1.257134e-16 
     855    21.615672        5 6.2243455e-16            2            1            2 1.2565051e-16 
     860    21.781187        5 6.2410623e-16            2            1            2 1.2558765e-16 
     865    21.960494        5 6.2578399e-16            2            1            2 1.2552482e-16 
     870    22.134356        5 6.2746786e-16            2            1            2 1.2546202e-16 
     875    22.294522        5 6.2915787e-16            2            1            2 1.2539925e-16 
     880    22.458869        5 6.3085403e-16            2            1            2 1.2533651e-16 
     885    22.617366        5 6.3255637e-16            2            1            2 1.252738e-16 
     890    22.788263        5 6.3426491e-16            2            1            2 1.2521113e-16 
     895    22.953213        5 6.3597966e-16            2            1            2 1.2514849e-16 
     900    23.108699        5 6.3770065e-16            2            1            2 1.2508587e-16 
     905    23.261083        5 6.3942791e-16            2            1            2 1.2502329e-16 
     910    23.424723        5 6.4116144e-16            2            1            2 1.2496075e-16 
     915    23.567739        5 6.4290129e-16            2            1            2 1.2489823e-16 
     920    23.706639        5 6.4464746e-16            2            1            2 1.2483574e-16 
     925    23.868388        5 6.4639998e-16            2            1            2 1.2477329e-16 
     930    24.021205        5 6.4815887e-16            2            1            2 1.2471086e-16 
     935    24.166735        5 6.4992415e-16            2            1            2 1.2464847e-16 
     940    24.313751        5 6.5169585e-16            2            1            2 1.2458611e-16 
     945    24.470081        5 6.5347399e-16            2            1            2 1.2452378e-16 
     950    24.613485        5 6.5525859e-16            2            1            2 1.2446148e-16 
     955     24.74702        6 6.5704967e-16            2            1            3 1.2439921e-16 
     960    24.891175        6 6.5884726e-16            2            1            3 1.2433697e-16 
     965    25.050233        6 6.6065137e-16            2            1            3 1.2427477e-16 
     970    25.214198        6 6.6246204e-16            2            1            3 1.2421259e-16 
     975    25.386941        6 6.6427927e-16            2            1            3 1.2415045e-16 
     980    25.561015        6 6.6610311e-16            2            1            3 1.2408834e-16 
     985    25.741336        6 6.6793356e-16            2            1            3 1.2402625e-16 
     990    25.906722        7 6.6977066e-16            3            1            3 1.239642e-16 
     995    26.078173        7 6.7161442e-16            3            1            3 1.2390218e-16 
    1000    26.256417        7 6.7346487e-16            3            1            3 1.238402e-16 
    1005    26.432092        7 6.7532203e-16            3            1            3 1.2377824e-16 
    1010    26.592343        7 6.7718592e-16            3            1            3 1.2371631e-16 
    1015    26.759207        7 6.7905658e-16            3            1            3 1.2365442e-16 
    1020    26.904424        7 6.8093401e-16            3            1            3 1.2359255e-16 
    1025    27.067521        7 6.8281825e-16            3            1            3 1.2353072e-16 
    1030    27.208562        7 6.8470932e-16            3            1            3 1.2346892e-16 
    1035    27.370063        7 6.8660725e-16            3            1            3 1.2340715e-16 
    1040    27.518608        7 6.8851205e-16            3            1            3 1.2334541e-16 
    1045    27.671503        7 6.9042375e-16            3            1            3 1.232837e-16 
    1050    27.814916        7 6.9234237e-16            3            1            3 1.2322202e-16 
    1055     27.98896        7 6.9426794e-16            3            1            3 1.2316037e-16 
    1060    28.158497        7 6.9620049e-16            3            1            3 1.2309875e-16 
    1065    28.316905        7 6.9814003e-16            3            1            3 1.2303717e-16 
    1070    28.492404        7 7.000866e-16            3            1            3 1.2297561e-16 
    1075    28.657263        7 7.0204021e-16            3            1            3 1.2291409e-16 
    1080    28.827017        7 7.0400089e-16            3            1            3 1.2285259e-16 
    1085     28.99165        7 7.0596867e-16            3            1            3 1.2279113e-16 
    1090    29.164997        7 7.0794356e-16            3            1            3 1.227297e-16 
    1095    29.337725        7 7.099256e-16            3            1            3 1.2266829e-16 
    1100    29.529426        7 7.1191481e-16            3            1            3 1.2260692e-16 
    1105    29.709306        7 7.1391121e-16            3            1            3 1.2254558e-16 
    1110    29.886979        7 7.1591483e-16            3            1            3 1.2248427e-16 
    1115    30.032413        7 7.179257e-16            3            1            3  1.22423e-16 
    1120    30.187817        7 7.1994384e-16            3            1            3 1.2236175e-16 
    1125    30.332895        7 7.2196927e-16            3            1            3 1.2230053e-16 
    1130    30.477695        7 7.2400202e-16            3            1            3 1.2223934e-16 
    1135    30.628935        7 7.2604211e-16            3            1            3 1.2217819e-16 
    1140    30.765707        7 7.2808958e-16            3            1            3 1.2211706e-16 
    1145    30.902268        7 7.3014444e-16            3            1            3 1.2205597e-16 
    1150    31.048367        7 7.3220673e-16            3            1            3 1.219949e-16 
    1155    31.177777        7 7.3427646e-16            3            1            3 1.2193387e-16 
    1160    31.322345        7 7.3635367e-16            3            1            3 1.2187286e-16 
    1165    31.473652        7 7.3843838e-16            3            1            3 1.2181189e-16 
    1170    31.640168        7 7.4053062e-16            3            1            3 1.2175095e-16 
    1175    31.805534        7 7.426304e-16            3            1            3 1.2169004e-16 
    1180    31.967233        7 7.4473777e-16            3            1            3 1.2162915e-16 
    1185    32.107116        7 7.4685274e-16            3            1            3 1.215683e-16 
    1190    32.236016        7 7.4897535e-16            3            1            3 1.2150748e-16 
    1195    32.372552        7 7.5110561e-16            3            1            3 1.2144669e-16 
    1200    32.505724        7 7.5324355e-16            3            1            3 1.2138593e-16 
    1205     32.64973        7 7.5538921e-16            3            1            3 1.213252e-16 
    1210    32.792125        7 7.575426e-16            3            1            3 1.212645e-16 
    1215    32.937325        7 7.5970377e-16            3            1            3 1.2120384e-16 
    1220     33.08113        7 7.6187272e-16            3            1            3 1.211432e-16 
    1225    33.220268        7 7.6404949e-16            3            1            3 1.2108259e-16 
    1230    33.353774        7 7.6623411e-16            3            1            3 1.2102201e-16 
    1235    33.494162        7 7.684266e-16            3            1            3 1.2096147e-16 
    1240    33.655016        7  7.70627e-16            3            1            3 1.2090095e-16 
    1245     33.81219        7 7.7283532e-16            3            1            3 1.2084046e-16 
    1250    33.970903        7 7.750516e-16            3            1            3 1.2078001e-16 
    1255    34.145112        7 7.7727586e-16            3            1            3 1.2071958e-16 
    1260    34.331867        7 7.7950814e-16            3            1            3 1.2065918e-16 
    1265    34.533141        7 7.8174845e-16            3            1            3 1.2059882e-16 
    1270    34.718897        7 7.8399683e-16            3            1            3 1.2053848e-16 
    1275    34.899901        8 7.8625331e-16            4            1            3 1.2047818e-16 
    1280    35.091422        8 7.8851791e-16            4            1            3 1.204179e-16 
    1285    35.294395        8 7.9079067e-16            4            1            3 1.2035766e-16 
    1290    35.489197        8 7.930716e-16            4            1            3 1.2029744e-16 
    1295    35.674326        8 7.9536075e-16            4            1            3 1.2023726e-16 
    1300    35.859946        8 7.9765813e-16            4            1            3 1.201771e-16 
    1305    36.043872        8 7.9996377e-16            4            1            3 1.2011698e-16 
    1310    36.232079        8 8.0227772e-16            4            1            3 1.2005688e-16 
    1315    36.421553        8 8.0459998e-16            4            1            3 1.1999682e-16 
    1320    36.604019        8 8.069306e-16            4            1            3 1.1993678e-16 
    1325    36.774426        8 8.092696e-16            4            1            3 1.1987678e-16 
    1330    36.962173        8 8.1161702e-16            4            1            3 1.1981681e-16 
    1335    37.133301        8 8.1397287e-16            4            1            3 1.1975686e-16 
    1340    37.288882        8 8.1633719e-16            4            1            3 1.1969695e-16 
    1345    37.444762        8 8.1871001e-16            4            1            3 1.1963706e-16 
    1350    37.576917        8 8.2109137e-16            4            1            3 1.1957721e-16 
    1355    37.719858        8 8.2348127e-16            4            1            3 1.1951738e-16 
    1360    37.886866        8 8.2587977e-16            4            1            3 1.1945759e-16 
    1365    38.046728        8 8.2828689e-16            4            1            3 1.1939782e-16 
    1370     38.19194        8 8.3070265e-16            4            1            3 1.1933809e-16 
    1375    38.350581        8 8.331271e-16            4            1            3 1.1927839e-16 
    1380      38.5496        8 8.3556025e-16            4            1            3 1.1921871e-16 
    1385    38.742652        8 8.3800214e-16            4            1            3 1.1915907e-16 
    1390    38.924862        8 8.404528e-16            4            1            3 1.1909945e-16 
    1395    39.120723        8 8.4291226e-16            4            1            3 1.1903986e-16 
    1400     39.30723        8 8.4538054e-16            4            1            3 1.1898031e-16 
    1405    39.479961        8 8.478577e-16            4            1            3 1.1892078e-16 
    1410    39.653644        8 8.5034374e-16            4            1            3 1.1886129e-16 
    1415    39.813246        8 8.528387e-16            4            1            3 1.1880182e-16 
    1420    39.994514        8 8.5534262e-16            4            1            3 1.1874238e-16 
    1425    40.154891        8 8.5785553e-16            4            1            3 1.1868298e-16 
    1430    40.331793        9 8.6037745e-16            4            1            4 1.186236e-16 
    1435    40.488725        9 8.6290842e-16            4            1            4 1.1856425e-16 
    1440     40.65683        9 8.6544847e-16            4            1            4 1.1850494e-16 
    1445     40.80746        9 8.6799763e-16            4            1            4 1.1844565e-16 
    1450    40.986711        9 8.7055593e-16            4            1            4 1.1838639e-16 
    1455    41.153301        9 8.7312341e-16            4            1            4 1.1832716e-16 
    1460    41.303975        9 8.757001e-16            4            1            4 1.1826796e-16 
    1465    41.452743        9 8.7828602e-16            4            1            4 1.1820879e-16 
    1470    41.625497        9 8.8088121e-16            4            1            4 1.1814965e-16 
    1475     41.77965        9 8.8348571e-16            4            1            4 1.1809054e-16 
    1480    41.914664        9 8.8609954e-16            4            1            4 1.1803146e-16 
    1485     42.05214        9 8.8872274e-16            4            1            4 1.1797241e-16 
    1490    42.208891        9 8.9135535e-16            4            1            4 1.1791339e-16 
    1495    42.374359        9 8.9399738e-16            4            1            4 1.178544e-16 
    1500    42.529422        9 8.9664888e-16            4            1            4 1.1779544e-16 
    1505    42.688005        9 8.9930988e-16            4            1            4 1.177365e-16 
    1510    42.844697        9 9.0198041e-16            4            1            4 1.176776e-16 
    1515    43.007907        9 9.0466051e-16            4            1            4 1.1761872e-16 
    1520    43.175195        9 9.0735021e-16            4            1            4 1.1755988e-16 
    1525    43.351236        9 9.1004954e-16            4            1            4 1.1750107e-16 
    1530    43.496666        9 9.1275853e-16            4            1            4 1.1744228e-16 
    1535    43.664694        9 9.1547722e-16            4            1            4 1.1738352e-16 
    1540    43.825937        9 9.1820565e-16            4            1            4 1.173248e-16 
    1545    43.986519        9 9.2094385e-16            4            1            4 1.172661e-16 
    1550    44.130396        9 9.2369184e-16            4            1            4 1.1720743e-16 
    1555    44.272608        9 9.2644967e-16            4            1            4 1.1714879e-16 
    1560    44.424189        9 9.2921737e-16            4            1            4 1.1709018e-16 
    1565    44.568994        9 9.3199498e-16            4            1            4 1.170316e-16 
    1570    44.731207        9 9.3478252e-16            4            1            4 1.1697305e-16 
    1575    44.891965        9 9.3758003e-16            4            1            4 1.1691453e-16 
    1580    45.038482        9 9.4038756e-16            4            1            4 1.1685604e-16 
    1585    45.200964        9 9.4320512e-16            4            1            4 1.1679757e-16 
    1590    45.358077        9 9.4603277e-16            4            1            4 1.1673914e-16 
    1595    45.519614        9 9.4887052e-16            4            1            4 1.1668074e-16 
    1600    45.694102        9 9.5171843e-16            4            1            4 1.1662236e-16 
    1605    45.845219        9 9.5457652e-16            4            1            4 1.1656402e-16 
    1610    45.991646        9 9.5744482e-16            4            1            4 1.165057e-16 
    1615    46.148273        9 9.6032338e-16            4            1            4 1.1644741e-16 
    1620    46.369439        9 9.6321224e-16            4            1            4 1.1638915e-16 
    1625    46.559268        9 9.6611141e-16            4            1            4 1.1633092e-16 
    1630    46.779005        9 9.6902095e-16            4            1            4 1.1627272e-16 
    1635    46.979707        9 9.7194089e-16            4            1            4 1.1621455e-16 
    1640    47.187428        9 9.7487126e-16            4            1            4 1.1615641e-16 
    1645    47.407716        9 9.778121e-16            4            1            4 1.160983e-16 
    1650    47.607163        9 9.8076345e-16            4            1            4 1.1604021e-16 
    1655    47.800229        9 9.8372535e-16            4            1            4 1.1598216e-16 
    1660    47.986281        9 9.8669782e-16            4            1            4 1.1592413e-16 
    1665     48.19673        9 9.8968091e-16            4            1            4 1.1586614e-16 
    1670    48.403219        9 9.9267465e-16            4            1            4 1.1580817e-16 
    1675    48.603222        9 9.9567909e-16            4            1            4 1.1575023e-16 
    1680    48.833207        9 9.9869426e-16            4            1            4 1.1569232e-16 
    1685    49.037197        9 1.0017202e-15            4            1            4 1.1563444e-16 
    1690    49.227785        9 1.0047569e-15            4            1            4 1.1557659e-16 
    1695    49.428093        9 1.0078045e-15            4            1            4 1.1551876e-16 
    1700    49.636298        9 1.010863e-15            4            1            4 1.1546097e-16 
    1705    49.845589        9 1.0139323e-15            4            1            4 1.1540321e-16 
    1710    50.054264        9 1.0170127e-15            4            1            4 1.1534547e-16 
    1715    50.264032        9 1.020104e-15            4            1            4 1.1528776e-16 
    1720    50.458607        9 1.0232063e-15            4            1            4 1.1523008e-16 
    1725    50.678975        9 1.0263197e-15            4            1            4 1.1517244e-16 
    1730    50.895985        9 1.0294443e-15            4            1            4 1.1511481e-16 
    1735    51.087684        9  1.03258e-15            4            1            4 1.1505722e-16 
    1740    51.284438        9 1.0357268e-15            4            1            4 1.1499966e-16 
    1745    51.480455        9 1.0388849e-15            4            1            4 1.1494213e-16 
    1750    51.680334        9 1.0420543e-15            4            1            4 1.1488462e-16 
    1755    51.872429        9 1.0452349e-15            4            1            4 1.1482714e-16 
    1760     52.06821        9 1.0484269e-15            4            1            4 1.147697e-16 
    1765    52.255771        9 1.0516303e-15            4            1            4 1.1471228e-16 
    1770    52.443208        9 1.0548451e-15            4            1            4 1.1465489e-16 
    1775    52.641598        9 1.0580714e-15            4            1            4 1.1459753e-16 
    1780    52.839261        9 1.0613091e-15            4            1            4 1.1454019e-16 
    1785    53.032037        9 1.0645584e-15            4            1            4 1.1448289e-16 
    1790    53.228509        9 1.0678193e-15            4            1            4 1.1442561e-16 
    1795    53.426111        9 1.0710918e-15            4            1            4 1.1436837e-16 
    1800    53.611843        9 1.074376e-15            4            1            4 1.1431115e-16 
    1805    53.799441        9 1.0776719e-15            4            1            4 1.1425396e-16 
    1810    53.984302        9 1.0809795e-15            4            1            4 1.141968e-16 
    1815    54.169897        9 1.0842989e-15            4            1            4 1.1413966e-16 
    1820    54.364705        9 1.0876302e-15            4            1            4 1.1408256e-16 
    1825    54.546039        9 1.0909733e-15            4            1            4 1.1402549e-16 
    1830    54.713451        9 1.0943283e-15            4            1            4 1.1396844e-16 
    1835    54.865494       10 1.0976953e-15            4            1            5 1.1391142e-16 
    1840    55.012147       10 1.1010742e-15            4            1            5 1.1385443e-16 
    1845    55.176851       10 1.1044652e-15            4            1            5 1.1379747e-16 
    1850    55.333445       10 1.1078683e-15            4            1            5 1.1374054e-16 
    1855    55.487441       10 1.1112834e-15            4            1            5 1.1368363e-16 
    1860    55.654347       10 1.1147108e-15            4            1            5 1.1362676e-16 
    1865    55.833978       10 1.1181503e-15            4            1            5 1.1356991e-16 
    1870    56.000606       10 1.1216021e-15            4            1            5 1.1351309e-16 
    1875    56.180418       10 1.1250662e-15            4            1            5 1.134563e-16 
    1880    56.357877       10 1.1285426e-15            4            1            5 1.1339954e-16 
    1885    56.521289       10 1.1320314e-15            4            1            5 1.1334281e-16 
    1890    56.698763       10 1.1355326e-15            4            1            5 1.132861e-16 
    1895    56.887648       10 1.1390463e-15            4            1            5 1.1322943e-16 
    1900    57.052549       10 1.1425724e-15            4            1            5 1.1317278e-16 
    1905    57.230966       11 1.1461111e-15            5            1            5 1.1311616e-16 
    1910    57.387357       11 1.1496625e-15            5            1            5 1.1305957e-16 
    1915    57.564867       11 1.1532264e-15            5            1            5  1.13003e-16 
    1920    57.750681       11 1.156803e-15            5            1            5 1.1294647e-16 
    1925    57.898491       11 1.1603923e-15            5            1            5 1.1288996e-16 
    1930    58.054152       11 1.1639945e-15            5            1            5 1.1283348e-16 
    1935    58.216943       11 1.1676094e-15            5            1            5 1.1277703e-16 
    1940    58.372333       11 1.1712372e-15            5            1            5 1.1272061e-16 
    1945    58.536041       11 1.1748778e-15            5            1            5 1.1266422e-16 
    1950    58.692339       11 1.1785315e-15            5            1            5 1.1260785e-16 
    1955    58.880123       11 1.1821981e-15            5            1            5 1.1255151e-16 
    1960    59.079907       11 1.1858777e-15            5            1            5 1.124952e-16 
    1965     59.26962       11 1.1895705e-15            5            1            5 1.1243892e-16 
    1970    59.461643       11 1.1932763e-15            5            1            5 1.1238267e-16 
    1975    59.663512       11 1.1969954e-15            5            1            5 1.1232645e-16 
    1980     59.86579       11 1.2007276e-15            5            1            5 1.1227025e-16 
    1985    60.056012       11 1.2044731e-15            5            1            5 1.1221408e-16 
    1990    60.257085       11 1.208232e-15            5            1            5 1.1215794e-16 
    1995    60.487724       11 1.2120042e-15            5            1            5 1.1210183e-16 
    2000    60.689347       11 1.2157898e-15            5            1            5 1.1204574e-16 
    2005    60.863553       11 1.2195888e-15            5            1            5 1.1198969e-16 
    2010    61.024653       11 1.2234014e-15            5            1            5 1.1193366e-16 
    2015    61.193722       11 1.2272275e-15            5            1            5 1.1187766e-16 
    2020    61.373523       12 1.2310671e-15            6            1            5 1.1182169e-16 
    2025    61.554405       12 1.2349205e-15            6            1            5 1.1176575e-16 
    2030    61.718729       12 1.2387875e-15            6            1            5 1.1170983e-16 
    2035    61.895445       12 1.2426682e-15            6            1            5 1.1165394e-16 
    2040    62.060303       12 1.2465628e-15            6            1            5 1.1159808e-16 
    2045    62.226362       12 1.2504712e-15            6            1            5 1.1154225e-16 
    2050    62.417079       13 1.2543934e-15            7            1            5 1.1148645e-16 
    2055    62.619206       13 1.2583296e-15            7            1            5 1.1143067e-16 
    2060    62.831253       13 1.2622797e-15            7            1            5 1.1137492e-16 
    2065    63.026038       13 1.2662439e-15            7            1            5 1.113192e-16 
    2070    63.221816       13 1.2702222e-15            7            1            5 1.1126351e-16 
    2075    63.423258       13 1.2742145e-15            7            1            5 1.1120784e-16 
    2080     63.62318       13 1.2782211e-15            7            1            5 1.1115221e-16 
    2085    63.838846       13 1.2822419e-15            7            1            5 1.110966e-16 
    2090    64.047937       13 1.2862769e-15            7            1            5 1.1104102e-16 
    2095    64.252948       13 1.2903263e-15            7            1            5 1.1098546e-16 
    2100     64.46399       13  1.29439e-15            7            1            5 1.1092994e-16 
    2105    64.673152       13 1.2984682e-15            7            1            5 1.1087444e-16 
    2110     64.86544       13 1.3025608e-15            7            1            5 1.1081897e-16 
    2115    65.086932       13 1.306668e-15            7            1            5 1.1076353e-16 
    2120    65.299947       13 1.3107897e-15            7            1            5 1.1070812e-16 
    2125    65.513275       13 1.314926e-15            7            1            5 1.1065273e-16 
    2130    65.717941       14 1.3190771e-15            7            1            6 1.1059737e-16 
    2135    65.925857       14 1.3232428e-15            7            1            6 1.1054204e-16 
    2140    66.141957       14 1.3274233e-15            7            1            6 1.1048674e-16 
    2145    66.349916       14 1.3316187e-15            7            1            6 1.1043146e-16 
    2150    66.592393       14 1.3358289e-15            7            1            6 1.1037621e-16 
    2155    66.824468       14 1.3400541e-15            7            1            6 1.1032099e-16 
    2160    67.027109       14 1.3442943e-15            7            1            6 1.102658e-16 
    2165    67.220099       14 1.3485495e-15            7            1            6 1.1021063e-16 
    2170    67.419032       14 1.3528198e-15            7            1            6 1.101555e-16 
    2175    67.612645       14 1.3571052e-15            7            1            6 1.1010039e-16 
    2180    67.806391       14 1.3614058e-15            7            1            6 1.100453e-16 
    2185     68.00476       14 1.3657217e-15            7            1            6 1.0999025e-16 
    2190    68.201171       14 1.3700529e-15            7            1            6 1.0993522e-16 
    2195    68.391087       14 1.3743994e-15            7            1            6 1.0988022e-16 
    2200    68.561049       14 1.3787613e-15            7            1            6 1.0982525e-16 
    2205     68.74001       14 1.3831387e-15            7            1            6 1.097703e-16 
    2210    68.930523       15 1.3875316e-15            7            1            7 1.0971539e-16 
    2215    69.101266       15 1.3919401e-15            7            1            7 1.096605e-16 
    2220    69.281189       15 1.3963642e-15            7            1            7 1.0960564e-16 
    2225    69.459805       15 1.400804e-15            7            1            7 1.095508e-16 
    2230    69.642395       15 1.4052595e-15            7            1            7 1.0949599e-16 
    2235    69.819437       15 1.4097309e-15            7            1            7 1.0944121e-16 
    2240    70.008504       15 1.414218e-15            7            1            7 1.0938646e-16 
    2245    70.203286       15 1.4187211e-15            7            1            7 1.0933174e-16 
    2250    70.394519       15 1.4232401e-15            7            1            7 1.0927704e-16 
    2255    70.573876       15 1.4277751e-15            7            1            7 1.0922237e-16 
    2260    70.772569       15 1.4323262e-15            7            1            7 1.0916773e-16 
    2265    70.959708       15 1.4368934e-15            7            1            7 1.0911311e-16 
    2270    71.161933       15 1.4414768e-15            7            1            7 1.0905852e-16 
    2275    71.359049       15 1.4460764e-15            7            1            7 1.0900396e-16 
    2280    71.555732       15 1.4506923e-15            7            1            7 1.0894943e-16 
    2285    71.753971       15 1.4553246e-15            7            1            7 1.0889492e-16 
    2290    71.951931       15 1.4599732e-15            7            1            7 1.0884044e-16 
    2295    72.166006       15 1.4646383e-15            7            1            7 1.0878599e-16 
    2300    72.368312       15  1.46932e-15            7            1            7 1.0873157e-16 
    2305    72.592078       15 1.4740182e-15            7            1            7 1.0867717e-16 
    2310    72.793119       15 1.4787331e-15            7            1            7 1.086228e-16 
    2315    72.971114       15 1.4834646e-15            7            1            7 1.0856846e-16 
    2320    73.145467       15 1.4882129e-15            7            1            7 1.0851414e-16 
    2325    73.321546       15 1.492978e-15            7            1            7 1.0845985e-16 
    2330    73.501324       15  1.49776e-15            7            1            7 1.0840559e-16 
    2335     73.67723       15 1.5025589e-15            7            1            7 1.0835136e-16 
    2340     73.85284       15 1.5073748e-15            7            1            7 1.0829715e-16 
    2345    74.046982       15 1.5122078e-15            7            1            7 1.0824297e-16 
    2350    74.251744       15 1.5170578e-15            7            1            7 1.0818882e-16 
    2355    74.462524       15 1.521925e-15            7            1            7 1.0813469e-16 
    2360    74.661738       15 1.5268095e-15            7            1            7 1.0808059e-16 
    2365    74.860444       15 1.5317112e-15            7            1            7 1.0802652e-16 
    2370     75.06298       15 1.5366303e-15            7            1            7 1.0797248e-16 
    2375    75.221209       15 1.5415667e-15            7            1            7 1.0791846e-16 
    2380     75.37412       15 1.5465207e-15            7            1            7 1.0786447e-16 
    2385    75.523849       15 1.5514922e-15            7            1            7 1.0781051e-16 
    2390    75.684073       15 1.5564812e-15            7            1            7 1.0775657e-16 
    2395    75.830285       15 1.5614879e-15            7            1            7 1.0770266e-16 
    2400     75.97242       15 1.5665123e-15            7            1            7 1.0764878e-16 
    2405    76.114472       15 1.5715545e-15            7            1            7 1.0759492e-16 
    2410    76.294501       15 1.5766146e-15            7            1            7 1.075411e-16 
    2415    76.495374       15 1.5816925e-15            7            1            7 1.0748729e-16 
    2420    76.694237       15 1.5867884e-15            7            1            7 1.0743352e-16 
    2425    76.902848       15 1.5919023e-15            7            1            7 1.0737977e-16 
    2430    77.101009       15 1.5970343e-15            7            1            7 1.0732605e-16 
    2435    77.307866       15 1.6021844e-15            7            1            7 1.0727236e-16 
    2440    77.506317       15 1.6073528e-15            7            1            7 1.0721869e-16 
    2445    77.716743       15 1.6125394e-15            7            1            7 1.0716505e-16 
    2450    77.903362       15 1.6177444e-15            7            1            7 1.0711144e-16 
    2455    78.084855       15 1.6229678e-15            7            1            7 1.0705785e-16 
    2460    78.251006       15 1.6282096e-15            7            1            7 1.0700429e-16 
    2465    78.420136       15  1.63347e-15            7            1            7 1.0695076e-16 
    2470    78.601818       15 1.638749e-15            7            1            7 1.0689725e-16 
    2475    78.794611       15 1.6440466e-15            7            1            7 1.0684378e-16 
    2480    78.977109       16 1.649363e-15            8            1            7 1.0679032e-16 
    2485    79.132338       16 1.6546981e-15            8            1            7 1.067369e-16 
    2490    79.297107       16 1.6600522e-15            8            1            7 1.066835e-16 
    2495    79.459656       16 1.6654251e-15            8            1            7 1.0663013e-16 
    2500    79.604062       16 1.670817e-15            8            1            7 1.0657678e-16 
    2505     79.78686       16 1.676228e-15            8            1            7 1.0652346e-16 
    2510    79.960699       16 1.6816581e-15            8            1            7 1.0647017e-16 
    2515    80.148233       16 1.6871074e-15            8            1            7 1.0641691e-16 
    2520    80.316733       16 1.692576e-15            8            1            7 1.0636367e-16 
    2525    80.502173       16 1.6980638e-15            8            1            7 1.0631046e-16 
    2530    80.683445       16 1.7035711e-15            8            1            7 1.0625727e-16 
    2535    80.878684       16 1.7090978e-15            8            1            7 1.0620411e-16 
    2540    81.076698       16 1.7146441e-15            8            1            7 1.0615098e-16 
    2545    81.275883       16 1.7202099e-15            8            1            7 1.0609788e-16 
    2550     81.48826       16 1.7257955e-15            8            1            7 1.060448e-16 
    2555     81.70127       16 1.7314007e-15            8            1            7 1.0599175e-16 
    2560    81.903972       16 1.7370258e-15            8            1            7 1.0593872e-16 
    2565     82.10637       16 1.7426707e-15            8            1            7 1.0588572e-16 
    2570    82.309909       16 1.7483355e-15            8            1            7 1.0583275e-16 
    2575    82.520067       16 1.7540204e-15            8            1            7 1.057798e-16 
    2580    82.725356       16 1.7597253e-15            8            1            7 1.0572688e-16 
    2585    82.933366       16 1.7654504e-15            8            1            7 1.0567399e-16 
    2590     83.14993       16 1.7711957e-15            8            1            7 1.0562112e-16 
    2595    83.353366       16 1.7769613e-15            8            1            7 1.0556828e-16 
    2600    83.579226       16 1.7827473e-15            8            1            7 1.0551547e-16 
    2605    83.771508       16 1.7885537e-15            8            1            7 1.0546268e-16 
    2610    83.948637       16 1.7943806e-15            8            1            7 1.0540992e-16 
    2615    84.121548       16 1.8002281e-15            8            1            7 1.0535719e-16 
    2620    84.300578       16 1.8060962e-15            8            1            7 1.0530448e-16 
    2625    84.467752       16 1.811985e-15            8            1            7 1.052518e-16 
    2630     84.62105       16 1.8178946e-15            8            1            7 1.0519915e-16 
    2635    84.778124       16 1.8238251e-15            8            1            7 1.0514652e-16 
    2640    84.929576       16 1.8297765e-15            8            1            7 1.0509392e-16 
    2645    85.085046       16 1.835749e-15            8            1            7 1.0504134e-16 
    2650    85.254946       16 1.8417425e-15            8            1            7 1.0498879e-16 
    2655    85.440487       16 1.8477572e-15            8            1            7 1.0493627e-16 
    2660    85.614571       16 1.8537931e-15            8            1            7 1.0488377e-16 
    2665    85.778252       16 1.8598503e-15            8            1            7 1.048313e-16 
    2670    85.953766       16 1.8659289e-15            8            1            7 1.0477885e-16 
    2675    86.156707       16 1.8720289e-15            8            1            7 1.0472644e-16 
    2680    86.363882       16 1.8781505e-15            8            1            7 1.0467405e-16 
    2685    86.599053       16 1.8842937e-15            8            1            7 1.0462168e-16 
    2690    86.821162       16 1.8904585e-15            8            1            7 1.0456934e-16 
    2695    87.037302       16 1.8966451e-15            8            1            7 1.0451703e-16 
    2700    87.254352       16 1.9028535e-15            8            1            7 1.0446474e-16 
    2705    87.472894       16 1.9090839e-15            8            1            7 1.0441248e-16 
    2710    87.708717       16 1.9153362e-15            8            1            7 1.0436024e-16 
    2715    87.936037       16 1.9216106e-15            8            1            7 1.0430804e-16 
    2720    88.154456       16 1.9279071e-15            8            1            7 1.0425585e-16 
    2725    88.387334       17 1.9342259e-15            8            1            8 1.042037e-16 
    2730    88.604182       17 1.9405669e-15            8            1            8 1.0415157e-16 
    2735    88.823112       17 1.9469303e-15            8            1            8 1.0409946e-16 
    2740    89.048558       17 1.9533161e-15            8            1            8 1.0404739e-16 
    2745    89.262302       17 1.9597245e-15            8            1            8 1.0399534e-16 
    2750    89.429777       17 1.9661555e-15            8            1            8 1.0394331e-16 
    2755    89.625266       17 1.9726091e-15            8            1            8 1.0389131e-16 
    2760    89.817846       17 1.9790855e-15            8            1            8 1.0383934e-16 
    2765    90.006249       17 1.9855848e-15            8            1            8 1.0378739e-16 
    2770    90.182151       17 1.992107e-15            8            1            8 1.0373547e-16 
    2775    90.380544       17 1.9986522e-15            8            1            8 1.0368357e-16 
    2780    90.545838       17 2.0052204e-15            8            1            8 1.036317e-16 
    2785    90.733052       17 2.0118119e-15            8            1            8 1.0357986e-16 
    2790    90.880683       17 2.0184265e-15            8            1            8 1.0352804e-16 
    2795    91.027033       17 2.0250645e-15            8            1            8 1.0347625e-16 
    2800    91.211747       17 2.031726e-15            8            1            8 1.0342449e-16 
    2805    91.390105       17 2.0384108e-15            8            1            8 1.0337275e-16 
    2810    91.574552       17 2.0451193e-15            8            1            8 1.0332103e-16 
    2815    91.789046       17 2.0518514e-15            8            1            8 1.0326935e-16 
    2820    92.006881       18 2.0586073e-15            9            1            8 1.0321768e-16 
    2825     92.27153       19 2.065387e-15            9            1            9 1.0316605e-16 
    2830    92.455747       19 2.0721905e-15            9            1            9 1.0311444e-16 
    2835     92.66162       19 2.0790181e-15            9            1            9 1.0306285e-16 
    2840    92.843394       19 2.0858698e-15            9            1            9 1.0301129e-16 
    2845    93.045453       19 2.0927455e-15            9            1            9 1.0295976e-16 
    2850    93.250547       19 2.0996456e-15            9            1            9 1.0290826e-16 
    2855    93.440696       19 2.1065699e-15            9            1            9 1.0285677e-16 
    2860     93.61689       19 2.1135187e-15            9            1            9 1.0280532e-16 
    2865    93.788451       19 2.1204919e-15            9            1            9 1.0275389e-16 
    2870    93.974625       19 2.1274897e-15            9            1            9 1.0270249e-16 
    2875    94.152009       19 2.1345122e-15            9            1            9 1.0265111e-16 
    2880    94.323446       20 2.1415595e-15            9            1           10 1.0259976e-16 
    2885    94.527027       20 2.1486315e-15            9            1           10 1.0254843e-16 
    2890    94.692613       20 2.1557285e-15            9            1           10 1.0249713e-16 
    2895    94.851026       20 2.1628505e-15            9            1           10 1.0244586e-16 
    2900    95.036952       20 2.1699976e-15            9            1           10 1.0239461e-16 
    2905    95.220464       20 2.1771699e-15            9            1           10 1.0234338e-16 
    2910    95.372018       20 2.1843675e-15            9            1           10 1.0229219e-16 
    2915    95.543964       20 2.1915904e-15            9            1           10 1.0224101e-16 
    2920    95.709402       21 2.1988388e-15           10            1           10 1.0218987e-16 
    2925    95.865723       21 2.2061127e-15           10            1           10 1.0213875e-16 
    2930     96.01396       21 2.2134122e-15           10            1           10 1.0208765e-16 
    2935    96.170278       22 2.2207375e-15           11            1           10 1.0203658e-16 
    2940     96.29439       22 2.2280886e-15           11            1           10 1.0198554e-16 
    2945     96.42241       22 2.2354655e-15           11            1           10 1.0193452e-16 
    2950    96.567694       22 2.2428685e-15           11            1           10 1.0188353e-16 
    2955     96.70739       22 2.2502975e-15           11            1           10 1.0183256e-16 
    2960    96.836042       22 2.2577527e-15           11            1           10 1.0178162e-16 
    2965    97.005559       22 2.2652342e-15           11            1           10 1.017307e-16 
    2970    97.183654       22 2.272742e-15           11            1           10 1.0167981e-16 
    2975    97.367534       22 2.2802763e-15           11            1           10 1.0162895e-16 
    2980    97.540928       22 2.2878371e-15           11            1           10 1.0157811e-16 
    2985     97.71887       22 2.2954245e-15           11            1           10 1.0152729e-16 
    2990    97.899189       22 2.3030387e-15           11            1           10 1.014765e-16 
    2995    98.073788       23 2.3106797e-15           11            1           11 1.0142574e-16 
    3000    98.280153       24 2.3183476e-15           12            1           11  1.01375e-16 
    3005    98.461916       24 2.3260425e-15           12            1           11 1.0132429e-16 
    3010    98.648162       24 2.3337645e-15           12            1           11 1.012736e-16 
    3015    98.855728       24 2.3415137e-15           12            1           11 1.0122294e-16 
    3020    99.067701       24 2.3492901e-15           12            1           11 1.0117231e-16 
    3025    99.277543       24 2.357094e-15           12            1           11 1.011217e-16 
    3030    99.482914       24 2.3649253e-15           12            1           11 1.0107111e-16 
    3035    99.693776       24 2.3727842e-15           12            1           11 1.0102055e-16 
    3040    99.906505       24 2.3806708e-15           12            1           11 1.0097002e-16 
    3045    100.11007       24 2.3885852e-15           12            1           11 1.0091951e-16 
    3050    100.31553       25 2.3965274e-15           13            1           11 1.0086902e-16 
    3055    100.53881       25 2.4044976e-15           13            1           11 1.0081856e-16 
    3060    100.75744       25 2.4124958e-15           13            1           11 1.0076813e-16 
    3065    100.96185       25 2.4205222e-15           13            1           11 1.0071772e-16 
    3070     101.1665       25 2.4285768e-15           13            1           11 1.0066734e-16 
    3075    101.36861       26 2.4366598e-15           14            1           11 1.0061698e-16 
    3080    101.58439       26 2.4447713e-15           14            1           11 1.0056665e-16 
    3085    101.80788       26 2.4529113e-15           14            1           11 1.0051634e-16 
    3090    102.02804       26  2.46108e-15           14            1           11 1.0046606e-16 
    3095    102.24762       26 2.4692774e-15           14            1           11 1.0041581e-16 
    3100    102.48074       26 2.4775036e-15           14            1           11 1.0036557e-16 
    3105    102.72601       26 2.4857589e-15           14            1           11 1.0031537e-16 
    3110    102.96504       26 2.4940431e-15           14            1           11 1.0026519e-16 
    3115    103.18479       26 2.5023566e-15           14            1           11 1.0021503e-16 
    3120    103.41328       26 2.5106992e-15           14            1           11 1.001649e-16 
    3125    103.64671       26 2.5190713e-15           14            1           11 1.001148e-16 
    3130    103.87782       26 2.5274728e-15           14            1           11 1.0006472e-16 
    3135    104.10236       26 2.5359039e-15           14            1           11 1.0001466e-16 
    3140    104.33354       26 2.5443646e-15           14            1           11 9.996463e-17 
    3145    104.57003       26 2.5528551e-15           14            1           11 9.9914625e-17 
    3150    104.79748       27 2.5613755e-15           14            1           12 9.9864645e-17 
    3155    105.02995       27 2.5699259e-15           14            1           12 9.981469e-17 
    3160    105.24797       27 2.5785063e-15           14            1           12 9.9764761e-17 
    3165    105.48147       27 2.587117e-15           14            1           12 9.9714856e-17 
    3170    105.70292       27 2.5957579e-15           14            1           12 9.9664976e-17 
    3175    105.86604       27 2.6044293e-15           14            1           12 9.9615122e-17 
    3180    106.04971       27 2.6131311e-15           14            1           12 9.9565292e-17 
    3185    106.25771       27 2.6218636e-15           14            1           12 9.9515488e-17 
    3190    106.47154       27 2.6306268e-15           14            1           12 9.9465708e-17 
    3195    106.64907       27 2.6394208e-15           14            1           12 9.9415953e-17 
    3200    106.82957       27 2.6482458e-15           14            1           12 9.9366224e-17 
    3205    106.99502       27 2.6571018e-15           14            1           12 9.9316519e-17 
    3210    107.14789       27 2.6659889e-15           14            1           12 9.9266839e-17 
    3215    107.34392       27 2.6749073e-15           14            1           12 9.9217184e-17 
    3220    107.53575       27 2.6838571e-15           14            1           12 9.9167555e-17 
    3225    107.73102       27 2.6928384e-15           14            1           12 9.911795e-17 
    3230    107.95533       28 2.7018512e-15           15            1           12 9.9068369e-17 
    3235    108.18449       28 2.7108958e-15           15            1           12 9.9018814e-17 
    3240    108.41401       28 2.7199721e-15           15            1           12 9.8969284e-17 
    3245    108.64622       28 2.7290804e-15           15            1           12 9.8919778e-17 
    3250    108.83963       28 2.7382208e-15           15            1           12 9.8870298e-17 
    3255    109.04647       28 2.7473932e-15           15            1           12 9.8820842e-17 
    3260    109.26136       28 2.756598e-15           15            1           12 9.8771411e-17 
    3265     109.4746       28 2.7658351e-15           15            1           12 9.8722005e-17 
    3270      109.647       28 2.7751046e-15           15            1           12 9.8672624e-17 
    3275    109.83129       28 2.7844068e-15           15            1           12 9.8623267e-17 
    3280    110.01682       28 2.7937417e-15           15            1           12 9.8573935e-17 
    3285    110.21861       28 2.8031094e-15           15            1           12 9.8524628e-17 
    3290    110.44205       28 2.8125101e-15           15            1           12 9.8475346e-17 
    3295    110.61301       28 2.8219438e-15           15            1           12 9.8426088e-17 
    3300    110.79454       28 2.8314107e-15           15            1           12 9.8376855e-17 
    3305    110.98179       28 2.8409109e-15           15            1           12 9.8327647e-17 
    3310     111.3163       30 2.8504445e-15           15            1           14 9.8278464e-17 
    3315    111.49524       30 2.8600116e-15           15            1           14 9.8229305e-17 
    3320    111.67862       30 2.8696123e-15           15            1           14 9.8180171e-17 
    3325    111.86993       30 2.8792468e-15           15            1           14 9.8131062e-17 
    3330    112.10798       30 2.8889152e-15           15            1           14 9.8081977e-17 
    3335     112.3471       30 2.8986176e-15           15            1           14 9.8032917e-17 
    3340    112.56967       30 2.908354e-15           15            1           14 9.7983882e-17 
    3345    112.80446       30 2.9181247e-15           15            1           14 9.7934871e-17 
    3350    113.05205       30 2.9279298e-15           15            1           14 9.7885885e-17 
    3355    113.32932       30 2.9377693e-15           15            1           14 9.7836923e-17 
    3360    113.56566       30 2.9476434e-15           15            1           14 9.7787986e-17 
    3365    113.80449       30 2.9575523e-15           15            1           14 9.7739074e-17 
    3370    114.02121       30 2.9674959e-15           15            1           14 9.7690186e-17 
    3375    114.22379       30 2.9774745e-15           15            1           14 9.7641323e-17 
    3380    114.43314       30 2.9874882e-15           15            1           14 9.7592484e-17 
    3385    114.66089       30 2.9975371e-15           15            1           14 9.754367e-17 
    3390    114.88823       30 3.0076213e-15           15            1           14 9.749488e-17 
    3395    115.13019       30 3.017741e-15           15            1           14 9.7446115e-17 
    3400    115.37358       30 3.0278962e-15           15            1           14 9.7397375e-17 
    3405    115.60817       30 3.0380871e-15           15            1           14 9.7348658e-17 
    3410    115.81236       30 3.0483138e-15           15            1           14 9.7299967e-17 
    3415      115.991       30 3.0585765e-15           15            1           14 9.7251299e-17 
    3420    116.18926       30 3.0688752e-15           15            1           14 9.7202657e-17 
    3425    116.39544       30 3.0792102e-15           15            1           14 9.7154038e-17 
    3430    116.60206       30 3.0895814e-15           15            1           14 9.7105444e-17 
    3435    116.83529       30 3.0999891e-15           15            1           14 9.7056875e-17 
    3440    117.04761       30 3.1104334e-15           15            1           14 9.700833e-17 
    3445    117.23361       30 3.1209143e-15           15            1           14 9.6959809e-17 
    3450    117.44541       30 3.1314321e-15           15            1           14 9.6911313e-17 
    3455    117.67084       30 3.1419869e-15           15            1           14 9.6862841e-17 
    3460    117.89502       30 3.1525788e-15           15            1           14 9.6814393e-17 
    3465    118.09448       30 3.1632078e-15           15            1           14 9.676597e-17 
    3470    118.33494       30 3.1738742e-15           15            1           14 9.6717571e-17 
    3475      118.581       30 3.1845781e-15           15            1           14 9.6669196e-17 
    3480    118.82505       30 3.1953196e-15           15            1           14 9.6620846e-17 
    3485    119.03295       30 3.2060989e-15           15            1           14 9.657252e-17 
    3490    119.23462       30 3.216916e-15           15            1           14 9.6524218e-17 
    3495    119.44007       30 3.2277711e-15           15            1           14 9.6475941e-17 
    3500    119.59827       30 3.2386644e-15           15            1           14 9.6427688e-17 
    3505      119.764       30 3.2495959e-15           15            1           14 9.6379459e-17 
    3510    119.93529       30 3.2605658e-15           15            1           14 9.6331254e-17 
    3515    120.08247       30 3.2715743e-15           15            1           14 9.6283074e-17 
    3520    120.23205       30 3.2826214e-15           15            1           14 9.6234918e-17 
    3525       120.36       31 3.2937074e-15           15            1           15 9.6186786e-17 
    3530    120.49052       31 3.3048323e-15           15            1           15 9.6138678e-17 
    3535    120.62157       31 3.3159962e-15           15            1           15 9.6090594e-17 
    3540    120.75613       31 3.3271994e-15           15            1           15 9.6042535e-17 
    3545    120.88621       31 3.338442e-15           15            1           15  9.59945e-17 
    3550    121.01275       31 3.349724e-15           15            1           15 9.5946489e-17 
    3555    121.14201       31 3.3610457e-15           15            1           15 9.5898502e-17 
    3560    121.27491       31 3.3724071e-15           15            1           15 9.5850539e-17 
    3565    121.40509       31 3.3838084e-15           15            1           15  9.58026e-17 
    3570    121.53516       31 3.3952498e-15           15            1           15 9.5754686e-17 
    3575    121.67077       31 3.4067314e-15           15            1           15 9.5706795e-17 
    3580      121.806       31 3.4182533e-15           15            1           15 9.5658929e-17 
    3585    121.93322       31 3.4298156e-15           15            1           15 9.5611086e-17 
    3590    122.06631       31 3.4414186e-15           15            1           15 9.5563268e-17 
    3595    122.19527       31 3.4530623e-15           15            1           15 9.5515474e-17 
    3600    122.32282       32 3.4647469e-15           15            1           16 9.5467704e-17 
    3605    122.45414       32 3.4764726e-15           15            1           16 9.5419958e-17 
    3610    122.58504       32 3.4882394e-15           15            1           16 9.5372235e-17 
    3615    122.71963       32 3.5000476e-15           15            1           16 9.5324537e-17 
    3620    122.85125       32 3.5118972e-15           15            1           16 9.5276863e-17 
    3625    122.98171       32 3.5237884e-15           15            1           16 9.5229213e-17 
    3630    123.11394       33 3.5357214e-15           15            1           17 9.5181587e-17 
    3635    123.24395       33 3.5476963e-15           15            1           17 9.5133985e-17 
    3640    123.37632       33 3.5597132e-15           15            1           17 9.5086407e-17 
    3645    123.51065       33 3.5717724e-15           15            1           17 9.5038852e-17 
    3650    123.64711       33 3.5838739e-15           15            1           17 9.4991322e-17 
    3655    123.78304       34 3.5960178e-15           16            1           17 9.4943815e-17 
    3660    123.91344       34 3.6082044e-15           16            1           17 9.4896333e-17 
    3665    124.04458       34 3.6204338e-15           16            1           17 9.4848874e-17 
    3670     124.1798       34 3.6327062e-15           16            1           17 9.480144e-17 
    3675     124.3108       34 3.6450216e-15           16            1           17 9.4754029e-17 
    3680     124.4441       34 3.6573803e-15           16            1           17 9.4706642e-17 
    3685    124.57789       34 3.6697824e-15           16            1           17 9.4659279e-17 
    3690     124.7191       34 3.682228e-15           16            1           17 9.4611939e-17 
    3695    124.85002       34 3.6947173e-15           16            1           17 9.4564624e-17 
    3700    124.98062       34 3.7072504e-15           16            1           17 9.4517332e-17 
    3705    125.11364       34 3.7198276e-15           16            1           17 9.4470064e-17 
    3710    125.24435       34 3.7324489e-15           16            1           17 9.442282e-17 
    3715    125.37894       34 3.7451145e-15           16            1           17  9.43756e-17 
    3720    125.51274       34 3.7578245e-15           16            1           17 9.4328403e-17 
    3725    125.64813       35 3.7705792e-15           17            1           17 9.4281231e-17 
    3730    125.78462       35 3.7833787e-15           17            1           17 9.4234082e-17 
    3735    126.17191       35 3.7962231e-15           17            1           17 9.4186957e-17 
    3740    126.33269       35 3.8091126e-15           17            1           17 9.4139855e-17 
    3745    126.45733       36 3.8220473e-15           18            1           17 9.4092777e-17 
    3750     126.5735       37 3.8350275e-15           19            1           17 9.4045723e-17 
    3755    126.68461       37 3.8480532e-15           19            1           17 9.3998693e-17 
    3760    126.79007       37 3.8611246e-15           19            1           17 9.3951686e-17 
    3765     126.9001       37 3.874242e-15           19            1           17 9.3904703e-17 
    3770    127.00763       37 3.8874054e-15           19            1           17 9.3857744e-17 
    3775    127.11152       37 3.9006149e-15           19            1           17 9.3810808e-17 
    3780    127.21509       37 3.9138709e-15           19            1           17 9.3763896e-17 
    3785    127.31994       37 3.9271734e-15           19            1           17 9.3717008e-17 
    3790    127.42451       37 3.9405226e-15           19            1           17 9.3670143e-17 
    3795    127.53811       37 3.9539186e-15           19            1           17 9.3623302e-17 
    3800    127.66622       37 3.9673617e-15           19            1           17 9.3576484e-17 
    3805    127.79333       37 3.9808519e-15           19            1           17 9.352969e-17 
    3810    127.91764       37 3.9943895e-15           19            1           17 9.348292e-17 
    3815    128.04779       38 4.0079746e-15           20            1           17 9.3436173e-17 
    3820    128.19427       38 4.0216074e-15           20            1           17 9.338945e-17 
    3825    128.33059       39 4.035288e-15           21            1           17 9.334275e-17 
    3830    128.46368       39 4.0490166e-15           21            1           17 9.3296074e-17 
    3835    128.59914       39 4.0627934e-15           21            1           17 9.3249422e-17 
    3840    128.73477       39 4.0766186e-15           21            1           17 9.3202793e-17 
    3845    128.86042       39 4.0904923e-15           21            1           17 9.3156187e-17 
    3850    128.98992       40 4.1044146e-15           22            1           17 9.3109605e-17 
    3855    129.12032       40 4.1183858e-15           22            1           17 9.3063046e-17 
    3860    129.24993       40 4.1324061e-15           22            1           17 9.3016511e-17 
    3865    129.38481       40 4.1464755e-15           22            1           17    9.297e-17 
    3870     129.5268       40 4.1605943e-15           22            1           17 9.2923511e-17 
    3875     129.6722       40 4.1747627e-15           22            1           17 9.2877047e-17 
    3880    129.82242       40 4.1889808e-15           22            1           17 9.2830605e-17 
    3885    129.96119       40 4.2032487e-15           22            1           17 9.2784187e-17 
    3890    130.10317       40 4.2175667e-15           22            1           17 9.2737793e-17 
    3895    130.23991       41 4.231935e-15           22            1           18 9.2691422e-17 
    3900    130.52717       41 4.2463537e-15           22            1           18 9.2645074e-17 
[...]
    4045    134.74445       44 4.687238e-15           23            1           20 9.1311118e-17 
    4050    134.86186       44 4.7032539e-15           23            1           20 9.1265467e-17 
    4055    134.97659       44 4.719326e-15           23            1           20 9.1219839e-17 
    4060    135.11499       44 4.7354545e-15           23            1           20 9.1174235e-17 
    4065    135.25584       44 4.7516396e-15           23            1           20 9.1128653e-17 
    4070    135.39726       44 4.7678814e-15           23            1           20 9.1083094e-17 
    4075    135.54319       44 4.7841802e-15           23            1           20 9.1037559e-17 
    4080     135.6966       44 4.8005362e-15           23            1           20 9.0992046e-17 
    4085    135.84913       45 4.8169495e-15           24            1           20 9.0946556e-17 
    4090    135.99355       45 4.8334204e-15           24            1           20 9.090109e-17 
    4095    136.14189       45 4.849949e-15           24            1           20 9.0855646e-17 
    4100    136.29744       45 4.8665356e-15           24            1           20 9.0810226e-17 
    4105     136.4504       45 4.8831804e-15           24            1           20 9.0764828e-17 
    4110    136.60331       46 4.8998835e-15           24            1           21 9.0719453e-17 
    4115    136.75327       46 4.9166452e-15           24            1           21 9.0674101e-17 
    4120    136.91476       46 4.9334657e-15           24            1           21 9.0628773e-17 
    4125    137.06959       46 4.9503452e-15           24            1           21 9.0583467e-17 
    4130    137.22625       47 4.9672839e-15           24            1           22 9.0538184e-17 
    4135    137.38436       49 4.984282e-15           24            1           24 9.0492924e-17 
    4140    137.84122       50 5.0013396e-15           25            1           24 9.0447687e-17 
    4145    137.99475       50 5.0184571e-15           25            1           24 9.0402472e-17 
    4150     138.1431       51 5.0356345e-15           26            1           24 9.0357281e-17 
    4155    138.29109       51 5.0528722e-15           26            1           24 9.0312112e-17 
    4160    138.43605       51 5.0701703e-15           26            1           24 9.0266967e-17 
    4165    138.58143       51 5.0875291e-15           26            1           24 9.0221844e-17 
    4170    138.73058       51 5.1049487e-15           26            1           24 9.0176744e-17 
    4175      138.881       51 5.1224294e-15           26            1           24 9.0131667e-17 
    4180    139.02705       53 5.1399715e-15           28            1           24 9.0086612e-17 
    4185    139.17123       53 5.157575e-15           28            1           24 9.0041581e-17 
    4190    139.31849       53 5.1752402e-15           28            1           24 8.9996572e-17 
    4195    139.47295       53 5.1929674e-15           28            1           24 8.9951586e-17 
    4200    139.61927       53 5.2107568e-15           28            1           24 8.9906623e-17 
    4205    139.77156       53 5.2286085e-15           28            1           24 8.9861682e-17 
    4210    139.92025       53 5.2465228e-15           28            1           24 8.9816765e-17 
    4215    140.06687       53 5.2644999e-15           28            1           24 8.977187e-17 
    4220    140.21283       54  5.28254e-15           28            1           25 8.9726997e-17 
    4225    140.36056       55 5.3006434e-15           29            1           25 8.9682148e-17 
    4230    140.51104       55 5.3188102e-15           29            1           25 8.9637321e-17 
    4235    140.66138       55 5.3370408e-15           29            1           25 8.9592517e-17 
    4240    140.81014       55 5.3553352e-15           29            1           25 8.9547736e-17 
    4245    140.96214       55 5.3736938e-15           29            1           25 8.9502977e-17 
    4250    141.11173       55 5.3921168e-15           29            1           25 8.9458241e-17 
    4255    141.26372       55 5.4106043e-15           29            1           25 8.9413528e-17 
    4260    141.41415       55 5.4291567e-15           29            1           25 8.9368837e-17 
    4265    141.56519       55 5.447774e-15           29            1           25 8.9324169e-17 
    4270    141.71431       55 5.4664567e-15           29            1           25 8.9279524e-17 
    4275    141.86454       55 5.4852048e-15           29            1           25 8.9234901e-17 
    4280    142.01648       55 5.5040187e-15           29            1           25 8.9190301e-17 
    4285    142.16896       55 5.5228985e-15           29            1           25 8.9145724e-17 
    4290    142.32198       55 5.5418445e-15           29            1           25 8.9101169e-17 
    4295    142.47859       55 5.5608569e-15           29            1           25 8.9056636e-17 
    4300    142.63302       55 5.579936e-15           29            1           25 8.9012127e-17 
    4305     142.7922       55 5.5990819e-15           29            1           25 8.8967639e-17 
    4310    142.94435       55 5.618295e-15           29            1           25 8.8923175e-17 
    4315    143.09443       56 5.6375754e-15           29            1           26 8.8878733e-17 
    4320    143.24555       56 5.6569233e-15           29            1           26 8.8834313e-17 
    4325     143.4015       56 5.6763391e-15           29            1           26 8.8789916e-17 
    4330    143.55533       56 5.695823e-15           29            1           26 8.8745542e-17 
    4335    143.71687       57 5.7153751e-15           30            1           26 8.870119e-17 
    4340    143.87592       57 5.7349958e-15           30            1           26 8.8656861e-17 
    4345    144.03293       57 5.7546852e-15           30            1           26 8.8612554e-17 
    4350    144.18814       57 5.7744437e-15           30            1           26 8.8568269e-17 
    4355    144.34986       57 5.7942714e-15           30            1           26 8.8524007e-17 
    4360    144.50312       57 5.8141686e-15           30            1           26 8.8479768e-17 
    4365    144.66011       57 5.8341355e-15           30            1           26 8.8435551e-17 
    4370    144.81666       57 5.8541725e-15           30            1           26 8.8391356e-17 
    4375    144.98303       57 5.8742796e-15           30            1           26 8.8347184e-17 
    4380    145.16651       57 5.8944572e-15           30            1           26 8.8303034e-17 
    4385    145.34476       57 5.9147056e-15           30            1           26 8.8258907e-17 
    4390    145.51657       57 5.9350249e-15           30            1           26 8.8214802e-17 
    4395    145.69433       57 5.9554154e-15           30            1           26 8.817072e-17 
    4400    145.87536       57 5.9758774e-15           30            1           26 8.812666e-17 
    4405    146.09785       57 5.9964111e-15           30            1           26 8.8082622e-17 
    4410    146.29739       57 6.0170167e-15           30            1           26 8.8038606e-17 
    4415    146.51849       57 6.0376946e-15           30            1           26 8.7994614e-17 
    4420    146.74657       59 6.0584449e-15           31            1           27 8.7950643e-17 
    4425    146.96333       59 6.079268e-15           31            1           27 8.7906695e-17 
    4430    147.19798       59 6.100164e-15           31            1           27 8.7862769e-17 
    4435     147.4252       59 6.1211333e-15           31            1           27 8.7818865e-17 
    4440    147.67063       59 6.142176e-15           31            1           27 8.7774984e-17 
    4445    147.89619       59 6.1632925e-15           31            1           27 8.7731125e-17 
    4450    148.12053       59 6.184483e-15           31            1           27 8.7687288e-17 
    4455    148.33411       59 6.2057477e-15           31            1           27 8.7643474e-17 
    4460    148.57499       59 6.227087e-15           31            1           27 8.7599681e-17 
    4465    148.80866       61 6.248501e-15           32            1           28 8.7555912e-17 
    4470    149.04677       61 6.2699901e-15           32            1           28 8.7512164e-17 
    4475    149.25125       61 6.2915544e-15           32            1           28 8.7468439e-17 
    4480    149.48104       61 6.3131944e-15           32            1           28 8.7424736e-17 
    4485      149.695       61 6.3349102e-15           32            1           28 8.7381055e-17 
    4490    149.90658       61 6.356702e-15           32            1           28 8.7337396e-17 
    4495    150.14857       61 6.3785702e-15           32            1           28 8.729376e-17 
    4500    150.37723       61 6.4005151e-15           32            1           28 8.7250145e-17 
    4505    150.59582       61 6.4225368e-15           32            1           28 8.7206553e-17 
    4510    150.81987       61 6.4446357e-15           32            1           28 8.7162983e-17 
    4515     151.0159       61 6.4668121e-15           32            1           28 8.7119436e-17 
    4520     151.2214       61 6.4890661e-15           32            1           28 8.707591e-17 
    4525    151.42746       61 6.5113981e-15           32            1           28 8.7032407e-17 
    4530    151.65005       61 6.5338084e-15           32            1           28 8.6988926e-17 
    4535    151.85865       61 6.5562972e-15           32            1           28 8.6945467e-17 
    4540    152.06478       61 6.5788648e-15           32            1           28 8.690203e-17 
    4545    152.26838       61 6.6015114e-15           32            1           28 8.6858615e-17 
    4550    152.46282       62 6.6242374e-15           32            1           29 8.6815222e-17 
    4555    152.88943       63 6.647043e-15           32            1           30 8.6771852e-17 
    4560    153.07332       64 6.6699285e-15           33            1           30 8.6728503e-17 
    4565    153.25559       65 6.6928942e-15           34            1           30 8.6685177e-17 
    4570     153.4381       65 6.7159403e-15           34            1           30 8.6641872e-17 
    4575    153.61753       66 6.7390672e-15           34            1           31 8.659859e-17 
    4580    153.81831       66 6.7622751e-15           34            1           31 8.655533e-17 
    4585    154.00685       66 6.7855643e-15           34            1           31 8.6512092e-17 
    4590    154.21318       66 6.8089351e-15           34            1           31 8.6468876e-17 
    4595    154.43119       66 6.8323878e-15           34            1           31 8.6425682e-17 
    4600    154.64921       66 6.8559226e-15           34            1           31 8.638251e-17 
    4605    154.84254       66 6.8795399e-15           34            1           31 8.633936e-17 
    4610    155.04106       66 6.9032399e-15           34            1           31 8.6296232e-17 
    4615     155.2489       67 6.927023e-15           35            1           31 8.6253126e-17 
    4620    155.46121       67 6.9508894e-15           35            1           31 8.6210042e-17 
    4625    155.65887       67 6.9748394e-15           35            1           31 8.616698e-17 
    4630    155.86774       67 6.9988733e-15           35            1           31 8.6123939e-17 
    4635    156.07343       67 7.0229914e-15           35            1           31 8.6080921e-17 
    4640    156.28137       67 7.047194e-15           35            1           31 8.6037925e-17 
    4645    156.48247       67 7.0714813e-15           35            1           31 8.5994951e-17 
    4650    156.68464       67 7.0958538e-15           35            1           31 8.5951999e-17 
    4655    157.09774       67 7.1203116e-15           35            1           31 8.5909068e-17 
    4660    157.27797       67 7.1448551e-15           35            1           31 8.586616e-17 
    4665    157.39596       67 7.1694847e-15           35            1           31 8.5823273e-17 
    4670    157.64706       67 7.1942005e-15           35            1           31 8.5780409e-17 
    4675    157.78823       68 7.2190029e-15           35            1           32 8.5737566e-17 
    4680    157.92907       69 7.2438922e-15           35            1           33 8.5694745e-17 
    4685    158.06406       69 7.2688688e-15           35            1           33 8.5651946e-17 
    4690     158.2086       69 7.2939328e-15           35            1           33 8.5609169e-17 
    4695    158.34129       69 7.3190846e-15           35            1           33 8.5566414e-17 
    4700    158.48028       69 7.3443246e-15           35            1           33 8.5523681e-17 
    4705    158.66691       69 7.369653e-15           35            1           33 8.5480969e-17 
    4710    158.86658       69 7.3950701e-15           35            1           33 8.5438279e-17 
    4715    159.09039       69 7.4205762e-15           35            1           33 8.5395611e-17 
    4720    159.30059       70 7.4461717e-15           36            1           33 8.5352965e-17 
    4725    159.50815       70 7.4718569e-15           36            1           33 8.5310341e-17 
    4730    159.73165       70 7.497632e-15           36            1           33 8.5267739e-17 
    4735    159.96262       70 7.5234973e-15           36            1           33 8.5225158e-17 
    4740    160.42824       71 7.5494533e-15           36            1           34 8.5182599e-17 
    4745    160.61284       71 7.5755001e-15           36            1           34 8.5140062e-17 
    4750    160.82154       71 7.6016382e-15           36            1           34 8.5097546e-17 
    4755    161.01988       71 7.6278678e-15           36            1           34 8.5055053e-17 
    4760    161.21488       71 7.6541893e-15           36            1           34 8.5012581e-17 
    4765    161.41815       71 7.680603e-15           36            1           34 8.4970131e-17 
    4770    161.62308       72 7.7071092e-15           37            1           34 8.4927702e-17 
    4775     161.8282       72 7.7337082e-15           37            1           34 8.4885296e-17 
    4780    162.04763       72 7.7604005e-15           37            1           34 8.4842911e-17 
    4785     162.2683       73 7.7871861e-15           37            1           35 8.4800547e-17 
    4790    162.47318       74 7.8140657e-15           38            1           35 8.4758206e-17 
    4795    162.67595       74 7.8410393e-15           38            1           35 8.4715886e-17 
    4800    162.90589       74 7.8681074e-15           38            1           35 8.4673588e-17 
    4805    163.11407       74 7.8952703e-15           38            1           35 8.4631311e-17 
    4810    163.32189       74 7.9225284e-15           38            1           35 8.4589056e-17 
    4815    163.53101       74 7.9498819e-15           38            1           35 8.4546823e-17 
    4820    163.75452       74 7.9773312e-15           38            1           35 8.4504612e-17 
    4825    163.96782       74 8.0048767e-15           38            1           35 8.4462422e-17 
    4830    164.18141       75 8.0325186e-15           39            1           35 8.4420253e-17 
    4835     164.4051       75 8.0602573e-15           39            1           35 8.4378107e-17 
    4840    164.62048       75 8.0880932e-15           39            1           35 8.4335982e-17 
    4845    164.84642       75 8.1160266e-15           39            1           35 8.4293878e-17 
    4850    165.07241       75 8.1440577e-15           39            1           35 8.4251796e-17 
    4855    165.28281       75 8.1721871e-15           39            1           35 8.4209736e-17 
    4860      165.498       75 8.200415e-15           39            1           35 8.4167697e-17 
    4865    165.73519       75 8.2287417e-15           39            1           35 8.412568e-17 
    4870    165.96851       75 8.2571676e-15           39            1           35 8.4083685e-17 
    4875    166.17969       75 8.285693e-15           39            1           35 8.4041711e-17 
    4880    166.49712       77 8.3143184e-15           41            1           35 8.3999758e-17 
    4885    166.65312       78 8.343044e-15           42            1           35 8.3957827e-17 
    4890    166.88337       78 8.3718703e-15           42            1           35 8.3915918e-17 
    4895     167.1064       78 8.4007974e-15           42            1           35 8.387403e-17 
    4900    167.35495       79 8.4298259e-15           43            1           35 8.3832163e-17 
    4905    167.57576       79 8.458956e-15           43            1           35 8.3790319e-17 
    4910     167.8231       81 8.4881882e-15           44            1           36 8.3748495e-17 
    4915    168.04169       82 8.5175227e-15           44            1           37 8.3706693e-17 
    4920    168.27692       82 8.5469599e-15           44            1           37 8.3664913e-17 
    4925    168.49888       83 8.5765003e-15           44            1           38 8.3623154e-17 
    4930    168.71465       83 8.606144e-15           44            1           38 8.3581417e-17 
    4935    168.95488       83 8.6358916e-15           44            1           38 8.3539701e-17 
    4940    169.16968       84 8.6657433e-15           44            1           39 8.3498006e-17 
    4945    169.38979       84 8.6956996e-15           44            1           39 8.3456333e-17 
    4950     169.6116       84 8.7257608e-15           44            1           39 8.3414681e-17 
    4955    169.84727       84 8.7559272e-15           44            1           39 8.3373051e-17 
    4960    170.06792       84 8.7861992e-15           44            1           39 8.3331442e-17 
    4965    170.30925       84 8.8165773e-15           44            1           39 8.3289855e-17 
    4970    170.53146       84 8.8470617e-15           44            1           39 8.3248289e-17 
    4975    170.77781       86 8.8776529e-15           45            1           40 8.3206744e-17 
    4980    171.00634       87 8.9083512e-15           46            1           40 8.3165221e-17 
    4985    171.24604       87 8.939157e-15           46            1           40 8.3123719e-17 
    4990    171.48558       87 8.9700706e-15           46            1           40 8.3082239e-17 
    4995    171.71172       87 9.0010925e-15           46            1           40 8.304078e-17 
    5000    171.94634       87 9.032223e-15           46            1           40 8.2999342e-17 
Loop time of 171.946 on 1 procs for 5000 steps with 87 atoms

Performance: 90446812.004 tau/day, 29.079 timesteps/s
96.0% CPU use with 1 MPI tasks x no OpenMP threads

MPI task timing breakdown:
Section |  min time  |  avg time  |  max time  |%varavg| %total
---------------------------------------------------------------
Pair    | 0.054614   | 0.054614   | 0.054614   |   0.0 |  0.03
Neigh   | 12.621     | 12.621     | 12.621     |   0.0 |  7.34
Comm    | 0.085197   | 0.085197   | 0.085197   |   0.0 |  0.05
Output  | 0.0582     | 0.0582     | 0.0582     |   0.0 |  0.03
Modify  | 159.1      | 159.1      | 159.1      |   0.0 | 92.53
Other   |            | 0.03039    |            |       |  0.02

Nlocal:    87 ave 87 max 87 min
Histogram: 1 0 0 0 0 0 0 0 0 0
Nghost:    0 ave 0 max 0 min
Histogram: 1 0 0 0 0 0 0 0 0 0
Neighs:    367 ave 367 max 367 min
Histogram: 1 0 0 0 0 0 0 0 0 0

Total # of neighbors = 367
Ave neighs/atom = 4.21839
Neighbor list builds = 5000
Dangerous builds = 0


Total wall time: 0:02:55
