LAMMPS (5 Nov 2016)
# NUFEB simulation

atom_style	bio
atom_modify	map array sort 1000 5.0e-7
boundary	ff ff ff
newton		off
#processors  2 1 1

comm_modify	vel yes
read_data_bio atom.in
  orthogonal box = (0 0 0) to (0.0001 0.0001 0.0001)
  1 by 1 by 1 MPI processor grid
  reading atoms ...
  12 atoms
  10 nutrients

group AOB type 1
4 atoms in group AOB
group NOB type 2
4 atoms in group NOB
group COMM type 3
4 atoms in group COMM

neighbor	5.0e-7 bin
neigh_modify	delay 0 one 5000

#pair_style none
pair_style  gran/hooke/history 0.000200 NULL 0.000050 NULL 0.0 1

pair_coeff  * *
timestep 36

fix 1 all nve/limit 1e-8

#fix	 2 all gravity 1.47 vector 0 0 -1 # spherical 90.0 -180.0
#fix     3 all fdrag
fix 10 all viscous 0.1


fix xw all wall/gran hooke/history 2000 NULL 500.0 NULL 1.5 0 xplane  0.0   1.0e-04
fix yw all wall/gran hooke/history 2000 NULL 500.0 NULL 1.5 0 yplane  0.0   1.0e-04
fix zw all wall/gran hooke/history 2000 NULL 500.0 NULL 1.5 0 zplane  0.0   1.0e-04

variable kanc equal 50

fix xwa all walladh v_kanc xplane  0.0   1.0e-04
fix ywa all walladh v_kanc yplane  0.0   1.0e-04
fix zwa all walladh v_kanc zplane  0.0   1.0e-04

##############Ibm Variable Definitions##############

#Defining EPS density and ratio variables
variable EPSdens equal 30
variable EPSratio equal 1.25

variable ke equal 5e+10

#Defining kinetics variables
variable temp equal 298.15
variable gasTran equal 0.08205746
variable gvol equal 8e-14
variable rth equal 0.0083144
variable pressure equal 1
variable ph equal 7.0

#Defining diffusion variables
variable diffT equal 1e-3
variable tol equal 1e-8

##############Ibm functions##############

fix k1 all kinetics 25 25 25 v_temp v_rth v_gvol v_gasTran v_ph
fix g1 all diffusion exp v_diffT v_tol pp pp nd
fix ki3 all kinetics/ph 1
fix ki2 all kinetics/thermo 1 unfix open v_pressure
fix ki1 all kinetics/monod 1 v_EPSdens
fix d1 all divide 1 v_EPSdens 1 31231

#fix j1 all epsadh 1 v_ke 1
#fix e1 HET eps_extract 16 v_EPSratio v_EPSdens 1242242

##############Ibm compute##############

compute myMass all biomass
compute myNtypes all ntypes

##############Simulation outputs##############

dump		id all custom 250 snapshot.bubblemd id type diameter x y z
dump            d0 all bio 500 Conc DGRAn DGRCat ph biomass gas
thermo_style    custom step cpu atoms biomass c_myNtypes[*]
thermo		10
thermo_modify	lost ignore

run  10000
Neighbor list info ...
  2 neighbor list requests
  update every 1 steps, delay 0 steps, check yes
  max neighbors/atom: 5000, page size: 100000
  master list distance cutoff = 1.466e-06
  ghost atom cutoff = 1.466e-06
  binsize = 7.33e-07 -> bins = 137 137 137
Memory usage per processor = 20.2453 Mbytes
Step CPU Atoms biomass c_myNtypes[1] c_myNtypes[2] c_myNtypes[3] 
       0            0       12 1.6425146e-15            4            4            4 
      10    4.9354699       12 1.6522155e-15            4            4            4 
      20     5.801801       12 1.6617795e-15            4            4            4 
      30     6.646744       12 1.6714085e-15            4            4            4 
      40     7.483784       12 1.6811053e-15            4            4            4 
      50    8.3122518       12 1.6908718e-15            4            4            4 
      60    9.1336889       12 1.7007085e-15            4            4            4 
      70    9.9480278       12 1.7106165e-15            4            4            4 
      80    10.761499       12 1.7205962e-15            4            4            4 
      90    11.580814       12 1.7306485e-15            4            4            4 
     100    12.385645       12 1.7407728e-15            4            4            4 
     110    13.190227       12 1.7509725e-15            4            4            4 
     120    13.992374       12 1.7612459e-15            4            4            4 
     130    14.791242       16 1.7715933e-15            8            4            4 
     140    15.586136       16 1.7820162e-15            8            4            4 
     150    16.377043       20 1.7925174e-15            8            4            8 
     160    17.184352       20 1.8030998e-15            8            4            8 
     170    17.976085       20 1.8137675e-15            8            4            8 
     180     18.82565       20 1.8245132e-15            8            4            8 
     190    19.637493       20 1.8353374e-15            8            4            8 
     200    20.441885       20 1.8462404e-15            8            4            8 
     210    21.239661       20 1.8572229e-15            8            4            8 
     220    22.082068       20 1.8682855e-15            8            4            8 
     230    22.915904       20 1.879429e-15            8            4            8 
     240    23.727568       20 1.890655e-15            8            4            8 
     250    24.531541       20 1.9019651e-15            8            4            8 
     260    25.323069       20 1.9133596e-15            8            4            8 
     270    26.112405       20 1.924838e-15            8            4            8 
     280    26.903295       20 1.9364009e-15            8            4            8 
     290    27.692233       20 1.9480487e-15            8            4            8 
     300    28.478953       20 1.9597821e-15            8            4            8 
     310    29.272227       20 1.9716017e-15            8            4            8 
     320    30.085816       20 1.9835083e-15            8            4            8 
     330    30.878134       20 1.9955024e-15            8            4            8 
     340    31.672417       20 2.0075847e-15            8            4            8 
     350    32.499544       20 2.019756e-15            8            4            8 
     360    33.292509       20 2.0320168e-15            8            4            8 
     370    34.083954       20 2.0443679e-15            8            4            8 
     380    34.923737       20 2.0568167e-15            8            4            8 
     390     35.73147       20 2.0693599e-15            8            4            8 
     400    36.551094       20 2.0819958e-15            8            4            8 
     410    37.342418       20 2.094725e-15            8            4            8 
     420    38.133462       20 2.1075481e-15            8            4            8 
     430    38.924803       20 2.1204659e-15            8            4            8 
     440    39.716034       20 2.1334789e-15            8            4            8 
     450    40.507535       20 2.1465879e-15            8            4            8 
     460    41.307864       20 2.1597937e-15            8            4            8 
     470    42.096733       20 2.1730968e-15            8            4            8 
     480    42.885106       20 2.1864981e-15            8            4            8 
     490    43.674934       20 2.1999983e-15            8            4            8 
     500    44.686293       20 2.213598e-15            8            4            8 
     510    45.496432       20 2.2272982e-15            8            4            8 
     520    46.289639       20 2.2410994e-15            8            4            8 
     530    47.082244       20 2.2550025e-15            8            4            8 
     540    47.876558       20 2.2690083e-15            8            4            8 
     550     48.67355       20 2.2831174e-15            8            4            8 
     560    49.471245       20 2.2973307e-15            8            4            8 
     570    50.268916       20 2.311649e-15            8            4            8 
     580    51.068869       20 2.326073e-15            8            4            8 
     590    51.862054       24 2.3406035e-15            8            8            8 
     600    52.655099       24 2.3552414e-15            8            8            8 
     610    53.455956       24 2.3699874e-15            8            8            8 
     620    54.249951       24 2.3848424e-15            8            8            8 
     630    55.048117       24 2.3998072e-15            8            8            8 
     640    55.842244       24 2.4148826e-15            8            8            8 
     650    56.635735       24 2.4300694e-15            8            8            8 
     660    57.430293       24 2.4453685e-15            8            8            8 
     670    58.226018       24 2.4607808e-15            8            8            8 
     680    59.024579       24 2.476307e-15            8            8            8 
     690    59.820518       24 2.4919481e-15            8            8            8 
     700    60.618918       24 2.5077049e-15            8            8            8 
     710    61.416249       24 2.5235782e-15            8            8            8 
     720    62.210178       24 2.539569e-15            8            8            8 
     730    63.009121       24 2.5556814e-15            8            8            8 
     740    63.880445       24 2.5719147e-15            8            8            8 
     750    64.720475       24 2.5882696e-15            8            8            8 
     760    65.523643       24 2.6047459e-15            8            8            8 
     770    66.348643       24 2.6213442e-15            8            8            8 
     780    67.154592       24 2.6380655e-15            8            8            8 
     790    67.964879       24 2.6549106e-15            8            8            8 
     800    68.773125       25 2.6718804e-15            9            8            8 
     810    69.582046       25 2.6889759e-15            9            8            8 
     820    70.391001       25 2.706198e-15            9            8            8 
     830     71.19836       25 2.7236273e-15            9            8            8 
     840    72.006562       25 2.7411854e-15            9            8            8 
     850    72.858326       25 2.7588733e-15            9            8            8 
     860    73.663791       26 2.776692e-15           10            8            8 
     870     74.47077       28 2.7946423e-15           11            8            9 
     880    75.277393       28 2.8128059e-15           11            8            9 
     890    76.084957       28 2.8311842e-15           11            8            9 
     900    76.893062       29 2.8496979e-15           11            8           10 
     910    77.704332       29 2.868348e-15           11            8           10 
     920    78.525901       29 2.8871356e-15           11            8           10 
     930    79.336343       30 2.9060616e-15           12            8           10 
     940     80.14344       30 2.9251271e-15           12            8           10 
     950     80.95258       30 2.9443331e-15           12            8           10 
     960    81.771322       30 2.963712e-15           12            8           10 
     970    82.604024       30 2.9832493e-15           12            8           10 
     980    83.416171       30 3.0029622e-15           12            8           10 
     990    84.213381       30 3.0228204e-15           12            8           10 
    1000    85.253107       30 3.0428249e-15           12            8           10 
    1010    86.045796       30 3.0629768e-15           12            8           10 
    1020     86.83867       30 3.0832771e-15           12            8           10 
    1030    87.633625       30 3.103727e-15           12            8           10 
    1040    88.430017       32 3.1243276e-15           13            8           11 
    1050    89.224111       32 3.1450801e-15           13            8           11 
    1060    90.015928       32 3.1659856e-15           13            8           11 
    1070    90.810199       33 3.1870453e-15           13            8           12 
    1080    91.602348       33 3.2082604e-15           13            8           12 
    1090    92.397735       33 3.2296319e-15           13            8           12 
    1100    93.194748       33 3.2511611e-15           13            8           12 
    1110    93.993389       34 3.2728491e-15           14            8           12 
    1120    94.791703       36 3.2946972e-15           15            8           13 
    1130    95.605304       36 3.3167066e-15           15            8           13 
    1140    96.449528       36 3.3388784e-15           15            8           13 
    1150    97.241281       37 3.3612139e-15           15            8           14 
    1160    98.035259       37 3.3837143e-15           15            8           14 
    1170    98.828656       37 3.4063809e-15           15            8           14 
    1180    99.622682       37 3.4292142e-15           15            8           14 
    1190    100.41843       37 3.4522156e-15           15            8           14 
    1200    101.23305       38 3.4753869e-15           16            8           14 
    1210    102.07167       38 3.4987292e-15           16            8           14 
    1220    102.86945       38 3.5222436e-15           16            8           14 
    1230    103.70447       38 3.5459311e-15           16            8           14 
    1240    104.50747       38 3.5697934e-15           16            8           14 
    1250    105.30987       38 3.593832e-15           16            8           14 
    1260    106.11399       38 3.6180482e-15           16            8           14 
    1270    106.92356       38 3.6424434e-15           16            8           14 
    1280    107.73552       38 3.6670188e-15           16            8           14 
    1290    108.54758       38 3.6917776e-15           16            8           14 
    1300    109.36194       38 3.7167205e-15           16            8           14 
    1310    110.19254       39 3.7418489e-15           16            8           15 
    1320    111.00955       39 3.7671643e-15           16            8           15 
    1330    111.82554       39 3.7926671e-15           16            8           15 
    1340    112.63582       39 3.8183588e-15           16            8           15 
    1350    113.44505       40 3.8442408e-15           16            8           16 
    1360    114.25481       40 3.8703143e-15           16            8           16 
    1370    115.06923       40 3.896581e-15           16            8           16 
    1380    115.88581       40 3.9230421e-15           16            8           16 
    1390    116.69349       40 3.9496992e-15           16            8           16 
    1400    117.50123       40 3.9765538e-15           16            8           16 
    1410    118.30921       40 4.0036073e-15           16            8           16 
    1420    119.13138       40 4.0308612e-15           16            8           16 
    1430     119.9732       40 4.058317e-15           16            8           16 
    1440     120.8173       40 4.0859763e-15           16            8           16 
    1450    121.63936       40 4.1138406e-15           16            8           16 
    1460    122.49965       41 4.1419114e-15           17            8           16 
    1470    123.31664       41 4.1701903e-15           17            8           16 
    1480    124.13192       41 4.1986789e-15           17            8           16 
    1490     124.9474       41 4.2273786e-15           17            8           16 
    1500    125.98752       41 4.2562912e-15           17            8           16 
    1510    126.80258       41 4.2854182e-15           17            8           16 
    1520    127.62425       41 4.3147613e-15           17            8           16 
    1530    128.46893       41 4.344322e-15           17            8           16 
    1540    129.31371       42 4.374102e-15           18            8           16 
    1550    130.15389       42 4.4041029e-15           18            8           16 
    1560    130.96593       42 4.4343265e-15           18            8           16 
    1570    131.77898       42 4.4647744e-15           18            8           16 
    1580    132.59244       43 4.4954483e-15           19            8           16 
    1590    133.40623       44 4.5263498e-15           19            8           17 
    1600     134.2171       45 4.5574808e-15           19            8           18 
    1610     135.0303       45 4.588843e-15           19            8           18 
    1620    135.84566       45 4.620438e-15           19            8           18 
    1630    136.65756       45 4.6522676e-15           19            8           18 
    1640    137.47174       45 4.6843337e-15           19            8           18 
    1650    138.34267       45 4.716638e-15           19            8           18 
    1660    139.15447       45 4.7491823e-15           19            8           18 
    1670    139.96636       45 4.7819684e-15           19            8           18 
    1680    140.77877       46 4.8149981e-15           20            8           18 
    1690    141.59113       46 4.8482733e-15           20            8           18 
    1700    142.40376       46 4.8817957e-15           20            8           18 
    1710    143.27388       46 4.915567e-15           20            8           18 
    1720    144.12796       46 4.9495891e-15           20            8           18 
    1730    144.96092       46 4.9838641e-15           20            8           18 
    1740    145.78367       46 5.0183937e-15           20            8           18 
    1750    146.61619       46 5.0531798e-15           20            8           18 
    1760    147.44789       47 5.0882245e-15           21            8           18 
    1770    148.30195       48 5.1235298e-15           22            8           18 
    1780     149.1332       48 5.1590976e-15           22            8           18 
    1790    149.96604       48 5.1949301e-15           22            8           18 
    1800    150.83358       48 5.2310291e-15           22            8           18 
    1810    151.65827       48 5.2673967e-15           22            8           18 
    1820     152.5035       48 5.304035e-15           22            8           18 
    1830    153.41982       49 5.340946e-15           22            8           19 
    1840    154.28926       49 5.3781318e-15           22            8           19 
    1850    155.10532       49 5.4155944e-15           22            8           19 
    1860    155.94149       50 5.453336e-15           23            8           19 
    1870    156.78237       53 5.4913595e-15           25            8           20 
    1880    157.60863       54 5.5296665e-15           25            8           21 
    1890    158.44342       55 5.5682593e-15           26            8           21 
    1900    159.27477       55 5.6071406e-15           26            8           21 
    1910    160.12321       55 5.6463119e-15           26            8           21 
    1920    160.94722       55 5.6857751e-15           26            8           21 
    1930    161.77199       56 5.7255325e-15           27            8           21 
    1940    162.59383       56 5.7655862e-15           27            8           21 
    1950    163.42052       56 5.8059385e-15           27            8           21 
    1960    164.25383       56 5.8465917e-15           27            8           21 
    1970    165.08856       56 5.887548e-15           27            8           21 
    1980     165.9115       56 5.9288097e-15           27            8           21 
    1990    166.73718       56 5.9703791e-15           27            8           21 
    2000    167.79324       56 6.0122586e-15           27            8           21 
    2010    168.60413       56 6.0544504e-15           27            8           21 
    2020    169.44019       56 6.096957e-15           27            8           21 
    2030    170.26241       56 6.1397807e-15           27            8           21 
    2040     171.1106       57 6.182924e-15           28            8           21 
    2050    171.95173       58 6.2263892e-15           29            8           21 
    2060    172.79772       58 6.2701787e-15           29            8           21 
    2070    173.62705       59 6.3142951e-15           29            8           22 
    2080    174.45157       61 6.3587409e-15           30            8           23 
    2090    175.27647       62 6.4035184e-15           30            8           24 
    2100    176.10595       64 6.4486302e-15           31            8           25 
    2110    176.94324       65 6.4940789e-15           31            8           26 
    2120    177.77113       65 6.539867e-15           31            8           26 
    2130     178.5984       65 6.585997e-15           31            8           26 
    2140    179.42156       65 6.6324716e-15           31            8           26 
    2150    180.24679       66 6.6792949e-15           31            8           27 
    2160    181.06958       66 6.7264683e-15           31            8           27 
    2170    181.89394       67 6.7739941e-15           31            8           28 
    2180    182.71253       68 6.8218748e-15           31            8           29 
    2190    183.52827       69 6.8701132e-15           32            8           29 
    2200    184.35621       69 6.918712e-15           32            8           29 
    2210    185.18671       69 6.9676739e-15           32            8           29 
    2220    186.01831       69 7.0170016e-15           32            8           29 
    2230     186.8504       69 7.0666979e-15           32            8           29 
    2240    187.68241       69 7.1167658e-15           32            8           29 
    2250    188.51459       70 7.1672079e-15           33            8           29 
    2260    189.35237       70 7.2180272e-15           33            8           29 
    2270    190.18281       71 7.2692265e-15           34            8           29 
    2280    191.01354       71 7.3208087e-15           34            8           29 
    2290    191.85171       71 7.3727768e-15           34            8           29 
    2300    192.68966       71 7.4251335e-15           34            8           29 
    2310    193.52018       71 7.477882e-15           34            8           29 
    2320    194.34959       73 7.5310251e-15           35            8           30 
    2330    195.18028       73 7.5845659e-15           35            8           30 
    2340    196.01042       74 7.6385073e-15           35            8           31 
    2350    196.84329       74 7.6928525e-15           35            8           31 
    2360    197.67671       74 7.7476044e-15           35            8           31 
    2370    198.50905       74 7.8027662e-15           35            8           31 
    2380    199.35394       74 7.8583409e-15           35            8           31 
    2390    200.18429       75 7.9143317e-15           36            8           31 
    2400    201.01662       75 7.9707418e-15           36            8           31 
    2410    201.92635       75 8.0275743e-15           36            8           31 
    2420    202.75829       77 8.0848324e-15           37            8           32 
    2430    203.59157       77 8.1425194e-15           37            8           32 
    2440    204.43395       78 8.2006388e-15           37            8           33 
    2450    205.27206       78 8.259194e-15           37            8           33 
    2460    206.11581       79 8.3182044e-15           38            8           33 
    2470    206.95199       80 8.3777952e-15           38            8           34 
    2480    207.79122       81 8.4378372e-15           39            8           34 
    2490    208.63157       81 8.4984875e-15           39            8           34 
    2500    209.69653       81 8.5595278e-15           39            8           34 
    2510     210.5315       81 8.6212475e-15           39            8           34 
    2520     211.3716       82 8.6833378e-15           40            8           34 
    2530    212.24959       82 8.7460853e-15           40            8           34 
    2540    213.09161       82 8.8091848e-15           40            8           34 
    2550    213.93086       82 8.8729652e-15           40            8           34 
    2560    214.78897       83 8.9370984e-15           41            8           34 
    2570    215.63211       83 9.0019024e-15           41            8           34 
    2580    216.50975       83 9.0670772e-15           41            8           34 
    2590    217.36568       83 9.1328777e-15           41            8           34 
    2600    218.22133       84 9.1992265e-15           42            8           34 
    2610    219.06721       84 9.2660037e-15           42            8           34 
    2620    219.92481       84 9.3334216e-15           42            8           34 
    2630    220.74109       85 9.4013968e-15           43            8           34 
    2640    221.54982       85 9.470039e-15           43            8           34 
    2650    222.46548       86 9.539137e-15           44            8           34 
    2660    223.27044       88 9.6087585e-15           45            8           35 
    2670    224.07647       89 9.6789424e-15           45            8           36 
    2680    224.91168       89 9.7496586e-15           45            8           36 
    2690    225.75107       89 9.8209829e-15           45            8           36 
    2700    226.54013       90  9.89286e-15           46            8           36 
    2710    227.32618       92 9.9652992e-15           48            8           36 
    2720    228.11928       93 1.0038303e-14           49            8           36 
    2730    228.94199       94 1.011176e-14           49            8           37 
    2740    229.73136       95 1.0185958e-14           50            8           37 
    2750    230.52714       95 1.0260672e-14           50            8           37 
    2760    231.31888       95 1.0336003e-14           50            8           37 
    2770    232.10178       96 1.0411929e-14           51            8           37 
    2780    232.88485       97 1.048843e-14           51            8           38 
    2790    233.66575       97 1.0565536e-14           51            8           38 
    2800    234.47927       97 1.0643251e-14           51            8           38 
    2810    235.24883       99 1.0721613e-14           52            8           39 
    2820    236.01938      100 1.0800594e-14           52            9           39 
    2830    236.78658      101 1.088019e-14           52            9           40 
    2840    237.55193      102 1.096041e-14           53            9           40 
    2850    238.32871      105 1.104128e-14           55            9           41 
    2860    239.08363      106 1.1122771e-14           55            9           42 
    2870    239.81908      106 1.1204906e-14           55            9           42 
    2880     240.5506      106 1.128768e-14           55            9           42 
    2890    241.24568      106 1.1371083e-14           55            9           42 
    2900     241.9403      107 1.1455116e-14           56            9           42 
    2910    242.64012      108 1.1539784e-14           57            9           42 
    2920    243.32387      108 1.1625094e-14           57            9           42 
    2930    244.01832      108 1.1711051e-14           57            9           42 
    2940    244.71615      109 1.1797661e-14           57           10           42 
    2950    245.41595      111 1.1884929e-14           58           10           43 
    2960    246.11689      116 1.1972859e-14           59           11           46 
    2970    246.84193      116 1.2061459e-14           59           11           46 
    2980    247.57397      118 1.2150731e-14           59           11           48 
    2990    248.27328      118 1.2240684e-14           59           11           48 
    3000    249.20815      120 1.233132e-14           60           11           49 
    3010    249.91504      120 1.2422647e-14           60           11           49 
    3020    250.62111      122 1.2514669e-14           62           11           49 
    3030    251.32387      125 1.2607391e-14           63           12           50 
    3040    252.02485      125 1.2700819e-14           63           12           50 
    3050    252.77815      125 1.2794959e-14           63           12           50 
    3060    253.48891      126 1.2889815e-14           63           12           51 
    3070    254.18235      127 1.2985394e-14           64           12           51 
    3080    254.88036      127 1.3081701e-14           64           12           51 
    3090    255.58619      127 1.3178742e-14           64           12           51 
    3100    256.29061      129 1.3276522e-14           64           12           53 
    3110     256.9927      131 1.3375047e-14           65           13           53 
    3120    257.67943      133 1.3474323e-14           66           13           54 
    3130    258.38913      133 1.3574355e-14           66           13           54 
    3140    259.08822      133 1.367515e-14           66           13           54 
    3150    259.80468      134 1.3776713e-14           66           13           55 
    3160    260.51377      135 1.3879082e-14           67           13           55 
    3170    261.21313      136 1.3982255e-14           67           13           56 
    3180    261.91143      137 1.4086212e-14           68           13           56 
    3190    262.61196      139 1.4190961e-14           69           14           56 
    3200    263.31391      140 1.4296507e-14           69           15           56 
    3210    264.01691      142 1.4402856e-14           70           15           57 
    3220    264.71907      144 1.4510016e-14           71           15           58 
    3230    265.42393      144 1.461799e-14           71           15           58 
    3240    266.12745      144 1.4726787e-14           71           15           58 
    3250    266.84174      145 1.4836412e-14           71           15           59 
    3260    267.59087      146 1.4946874e-14           71           15           60 
    3270    268.39194      146 1.5058191e-14           71           15           60 
    3280    269.16753      147 1.5170361e-14           72           15           60 
    3290    269.94352      148 1.5283391e-14           73           15           60 
    3300    270.72195      150 1.5397285e-14           75           15           60 
    3310    271.50781      151 1.5512047e-14           75           16           60 
    3320    272.28647      153 1.5627687e-14           75           16           62 
    3330    273.05706      155 1.5744211e-14           76           16           63 
    3340    273.82196      156 1.5861624e-14           77           16           63 
    3350    274.52545      156 1.5979928e-14           77           16           63 
    3360    275.22968      157 1.6099127e-14           77           16           64 
    3370    275.96841      158 1.6219229e-14           77           16           65 
    3380    276.72454      159 1.634024e-14           78           16           65 
    3390    277.43337      160 1.6462169e-14           79           16           65 
    3400    278.12306      162 1.6585021e-14           81           16           65 
    3410    278.82375      163 1.6708804e-14           82           16           65 
    3420    279.53012      163 1.6833525e-14           82           16           65 
    3430    280.32295      164 1.6959196e-14           83           16           65 
    3440    281.08859      165 1.7085825e-14           84           16           65 
    3450    281.79384      167 1.7213413e-14           86           16           65 
    3460    282.49629      169 1.7341965e-14           87           16           66 
    3470    283.26151      170 1.7471491e-14           88           16           66 
    3480    283.96226      171 1.7601998e-14           88           16           67 
    3490    284.67235      172 1.7733521e-14           89           16           67 
    3500     285.5884      172 1.7866046e-14           89           16           67 
    3510    286.29431      174 1.7999574e-14           90           16           68 
    3520    287.00596      175 1.8134113e-14           90           16           69 
    3530     287.7145      175 1.826967e-14           90           16           69 
    3540    288.43612      175 1.8406254e-14           90           16           69 
    3550    289.14461      177 1.8543872e-14           91           16           70 
    3560    289.85559      178 1.8682532e-14           92           16           70 
    3570     290.5691      179 1.8822242e-14           92           16           71 
    3580    291.27967      179 1.8963009e-14           92           16           71 
    3590     291.9888      180 1.9104842e-14           93           16           71 
    3600    292.70262      185 1.9247749e-14           97           16           72 
    3610    293.46491      186 1.9391737e-14           97           16           73 
    3620    294.15428      188 1.9536814e-14           99           16           73 
    3630    294.85917      189 1.9682989e-14          100           16           73 
    3640    295.56685      189 1.983027e-14          100           16           73 
    3650    296.28218      190 1.9978666e-14          101           16           73 
    3660    297.01099      191 2.0128184e-14          102           16           73 
    3670    297.71105      192 2.0278833e-14          102           16           74 
    3680    298.42044      192 2.0430622e-14          102           16           74 
    3690    299.16341      193 2.058356e-14          102           16           75 
    3700    299.95328      197 2.0737659e-14          105           16           76 
    3710     300.7526      201 2.0892929e-14          106           16           79 
    3720    301.51304      203 2.1049375e-14          107           16           80 
    3730    302.21903      204 2.1207005e-14          108           16           80 
    3740    302.93267      206 2.1365832e-14          109           16           81 
    3750    303.67631      207 2.1525871e-14          110           16           81 
    3760     304.3867      207 2.1687119e-14          110           16           81 
    3770    305.11309      210 2.1849586e-14          111           16           83 
    3780     305.8272      211 2.2013281e-14          111           16           84 
    3790     306.5366      212 2.2178214e-14          111           16           85 
    3800    307.24858      213 2.2344393e-14          112           16           85 
    3810    308.00059      213 2.2511828e-14          112           16           85 
    3820    308.72073      217 2.2680531e-14          115           16           86 
    3830    309.46091      218 2.2850511e-14          115           16           87 
    3840    310.17404      221 2.3021776e-14          118           16           87 
    3850     310.9123      222 2.3194338e-14          118           16           88 
    3860    311.62357      225 2.3368208e-14          120           16           89 
    3870    312.34071      227 2.3543392e-14          122           16           89 
    3880    313.06021      229 2.3719899e-14          123           16           90 
    3890    313.77593      231 2.3897741e-14          124           16           91 
    3900    314.49268      232 2.4076926e-14          125           16           91 
    3910    315.21003      234 2.4257466e-14          126           16           92 
    3920    315.93078      236 2.443937e-14          128           16           92 
    3930    316.65138      237 2.4622648e-14          129           16           92 
    3940    317.37364      237 2.4807311e-14          129           16           92 
    3950    318.10565      239 2.499337e-14          130           16           93 
    3960     318.8259      241 2.5180834e-14          131           16           94 
    3970    319.55061      243 2.5369714e-14          132           16           95 
    3980    320.28955      245 2.5560022e-14          133           16           96 
    3990     321.0146      245 2.5751767e-14          133           16           96 
    4000    321.98293      246 2.594496e-14          133           16           97 
    4010     322.7082      247 2.6139613e-14          133           16           98 
    4020    323.42559      250 2.6335736e-14          134           16          100 
    4030    324.13911      250 2.653334e-14          134           16          100 
    4040    324.85348      251 2.6732438e-14          134           16          101 
    4050    325.62002      251 2.6933041e-14          134           16          101 
    4060    326.35217      256 2.7135159e-14          137           16          103 
    4070     327.0719      257 2.7338802e-14          138           16          103 
    4080     327.7897      259 2.7543984e-14          140           16          103 
    4090    328.53411      261 2.7750715e-14          141           16          104 
    4100    329.27479      262 2.7959013e-14          141           16          105 
    4110    329.98709      262 2.8168883e-14          141           16          105 
    4120    330.69004      266 2.8380338e-14          142           17          107 
    4130    331.40807      269 2.8593389e-14          144           17          108 
    4140      332.124      273 2.8808048e-14          146           17          110 
    4150    332.84202      274 2.9024329e-14          147           17          110 
    4160    333.55976      276 2.9242242e-14          147           17          112 
    4170    334.28027      276  2.94618e-14          147           17          112 
    4180    335.00406      277 2.9683015e-14          148           17          112 
    4190    335.79361      281 2.9905902e-14          150           18          113 
    4200    336.57297      285 3.0130474e-14          152           18          115 
    4210    337.36728      286 3.0356742e-14          152           18          116 
    4220    338.15285      288 3.0584716e-14          154           18          116 
    4230    338.92723      288 3.081441e-14          154           18          116 
    4240    339.70866      292 3.1045834e-14          157           18          117 
    4250    340.49242      294 3.1279002e-14          158           18          118 
    4260    341.29293      296 3.1513933e-14          160           18          118 
    4270    342.09304      298 3.1750636e-14          161           18          119 
    4280     342.8964      301 3.198911e-14          163           18          120 
    4290    343.68476      306 3.2229381e-14          167           19          120 
    4300    344.42285      312 3.2471473e-14          172           19          121 
    4310    345.16778      312 3.2715409e-14          172           19          121 
    4320    345.96362      312 3.2961187e-14          172           19          121 
    4330    346.72898      313 3.3208817e-14          172           19          122 
    4340    347.45127      317 3.3458319e-14          175           19          123 
    4350    348.20918      322 3.3709707e-14          176           19          127 
    4360     348.9696      325 3.3962995e-14          178           19          128 
    4370    349.70148      326 3.4218196e-14          178           19          129 
    4380    350.42351      329 3.4475321e-14          180           20          129 
    4390    351.16223      331 3.4734386e-14          180           21          130 
    4400    351.88339      334 3.4995411e-14          181           21          132 
    4410    352.61545      338 3.5258409e-14          184           21          133 
    4420    353.36842      342 3.5523398e-14          186           22          134 
    4430    354.15843      344 3.5790381e-14          188           22          134 
    4440    354.93487      347 3.6059378e-14          190           22          135 
    4450    355.66153      349 3.6330409e-14          192           22          135 
    4460    356.39105      352 3.6603488e-14          194           22          136 
    4470    357.17356      356 3.687863e-14          196           22          138 
    4480    357.96033      357 3.7155845e-14          196           22          139 
    4490    358.74747      359 3.743515e-14          196           22          141 
    4500    359.76861      360 3.7716559e-14          196           23          141 
    4510    360.53943      363 3.800009e-14          197           25          141 
    4520    361.26304      369 3.8285761e-14          200           26          143 
    4530    362.02444      374 3.8573588e-14          204           26          144 
    4540    362.80053      376 3.8863589e-14          206           26          144 
    4550    363.52792      377 3.9155779e-14          206           27          144 
    4560    364.24593      381 3.9450174e-14          207           28          146 
    4570    364.98015      382 3.9746789e-14          208           28          146 
    4580    365.74341      384 4.0045646e-14          209           28          147 
    4590    366.47741      387 4.0346756e-14          211           28          148 
    4600    367.21866      395 4.0650139e-14          215           28          152 
    4610    368.00926      400 4.0955815e-14          218           28          154 
    4620    368.77933      401 4.1263803e-14          218           28          155 
    4630    369.56377      402 4.1574114e-14          218           28          156 
    4640    370.29835      406 4.1886767e-14          219           28          159 
    4650    371.03195      410 4.2201777e-14          222           28          160 
    4660    371.79271      413 4.2519166e-14          224           28          161 
    4670    372.53922      414 4.2838958e-14          224           29          161 
    4680    373.32123      421 4.3161172e-14          229           30          162 
    4690    374.05934      421 4.3485826e-14          229           30          162 
    4700    374.80928      423 4.3812929e-14          230           30          163 
    4710    375.54999      428  4.41425e-14          234           30          164 
    4720    376.28952      429 4.447456e-14          234           30          165 
    4730    377.03419      431 4.4809123e-14          235           30          166 
    4740    377.79065      435 4.5146209e-14          239           30          166 
    4750    378.54001      435 4.5485838e-14          239           30          166 
    4760    379.31925      436 4.5828027e-14          239           30          167 
    4770     380.0596      441 4.6172794e-14          243           30          168 
    4780    380.81043      447 4.6520162e-14          248           30          169 
    4790    381.54058      449 4.6870149e-14          249           30          170 
    4800    382.31232      453 4.7222775e-14          250           30          173 
    4810    383.07434      458 4.7578059e-14          254           30          174 
    4820    383.82666      461 4.7936021e-14          254           31          176 
    4830    384.64099      462 4.8296681e-14          255           31          176 
    4840    385.42909      470 4.8660059e-14          258           31          181 
    4850    386.19846      474 4.9026187e-14          259           31          184 
    4860    387.01878      477 4.9395084e-14          262           31          184 
    4870    387.77071      479 4.9766769e-14          264           31          184 
    4880    388.52148      486 5.0141257e-14          267           31          188 
    4890    389.29076      488 5.051857e-14          268           31          189 
    4900    390.12124      492 5.0898724e-14          270           31          191 
    4910    390.95959      500 5.1281741e-14          277           31          192 
    4920     391.7728      503 5.1667639e-14          278           31          194 
    4930    392.60268      508 5.2056445e-14          283           31          194 
    4940    393.44111      512 5.2448184e-14          286           31          195 
    4950     394.2698      518 5.284288e-14          289           32          197 
    4960    395.04814      520 5.3240552e-14          291           32          197 
    4970    395.81043      522 5.3641228e-14          291           32          199 
    4980    396.59714      524 5.4044924e-14          293           32          199 
    4990    397.37952      528 5.4451664e-14          297           32          199 
    5000    398.35465      532 5.4861472e-14          299           32          201 
    5010    399.11011      534 5.5274371e-14          300           32          202 
    5020     399.8752      537 5.5690382e-14          301           32          204 
    5030    400.64629      541 5.6109535e-14          304           32          205 
    5040    401.41349      544 5.6531856e-14          306           32          206 
    5050    402.18585      548 5.6957363e-14          308           32          208 
    5060    402.98366      551 5.7386083e-14          310           32          209 
    5070     403.7906      553 5.7818032e-14          310           32          211 
    5080    404.60614      556 5.8253238e-14          311           32          213 
    5090    405.43042      557 5.8691717e-14          312           32          213 
    5100    406.26769      566 5.9133503e-14          318           32          216 
    5110    407.10123      571 5.9578625e-14          319           32          220 
    5120    407.92323      577 6.0027104e-14          321           32          224 
    5130    408.66708      582 6.0478968e-14          323           32          227 
    5140    409.41237      588 6.0934235e-14          328           32          228 
    5150    410.20792      591 6.139294e-14          329           32          230 
    5160    411.04795      595 6.1855103e-14          333           32          230 
    5170    411.89636      598 6.232075e-14          334           32          232 
    5180    412.73177      599 6.2789906e-14          335           32          232 
    5190     413.5497      604 6.3262608e-14          337           33          234 
    5200    414.35824      610 6.3738869e-14          340           33          237 
    5210    415.15866      610 6.4218716e-14          340           33          237 
    5220    415.96567      617 6.4702179e-14          347           33          237 
    5230    416.78235      620 6.5189289e-14          350           33          237 
    5240    417.60274      624 6.5680074e-14          354           33          237 
    5250    418.42187      630 6.6174553e-14          359           33          238 
    5260    419.26261      634 6.6672759e-14          360           33          241 
    5270    420.09018      638 6.7174718e-14          362           33          243 
    5280     420.8954      645 6.7680454e-14          364           33          248 
    5290    421.74191      650 6.8190008e-14          366           33          251 
    5300    422.56862      653 6.8703403e-14          368           33          252 
    5310    423.39489      660 6.9220662e-14          373           33          254 
    5320    424.24282      666 6.9741826e-14          376           33          257 
    5330    425.08821      668 7.0266923e-14          377           33          258 
    5340      425.947      670 7.0795982e-14          379           33          258 
    5350    426.80442      677 7.1329032e-14          385           33          259 
    5360    427.62855      681 7.1866106e-14          389           33          259 
    5370    428.50063      687 7.2407244e-14          392           33          262 
    5380    429.31289      689 7.295246e-14          392           34          263 
    5390    430.10178      697 7.3501796e-14          399           34          264 
    5400    430.90648      701 7.4055275e-14          401           34          266 
    5410    431.71647      707 7.4612919e-14          403           34          270 
    5420    432.52344      709 7.5174767e-14          404           35          270 
    5430    433.32116      716 7.5740845e-14          409           35          272 
    5440    434.13614      726 7.6311189e-14          414           35          277 
    5450    434.92446      730 7.6885828e-14          418           35          277 
    5460     435.7793      734 7.7464793e-14          421           35          278 
    5470    436.65667      737 7.8048114e-14          424           35          278 
    5480    437.45295      743 7.8635822e-14          427           35          281 
    5490    438.24874      749 7.9227957e-14          430           35          284 
    5500    439.32091      759 7.9824549e-14          435           35          289 
    5510    440.19028      766 8.0425642e-14          438           36          292 
    5520    440.99859      768 8.1031274e-14          438           37          293 
    5530    441.82156      775 8.1641472e-14          441           38          296 
    5540    442.67148      782 8.2256261e-14          445           38          299 
    5550    443.51906      783 8.2875665e-14          446           38          299 
    5560    444.39055      791 8.3499733e-14          454           38          299 
    5570    445.23888      800 8.4128503e-14          458           38          304 
    5580    446.10369      807 8.4762009e-14          462           38          307 
    5590    447.03172      811 8.5400296e-14          464           38          309 
    5600    447.88316      821 8.6043397e-14          471           38          312 
    5610    448.73905      827 8.6691354e-14          475           38          314 
    5620    449.56833      834 8.7344195e-14          478           38          318 
    5630    450.41347      841 8.8001956e-14          483           38          320 
    5640    451.27937      845 8.8664679e-14          485           38          322 
    5650    452.13725      851 8.9332383e-14          489           38          324 
    5660    453.00201      859 9.0005107e-14          495           39          325 
    5670    453.85998      867 9.0682892e-14          501           39          327 
    5680    454.73381      874 9.1365784e-14          504           40          330 
    5690      455.579      885 9.2053828e-14          513           40          332 
    5700    456.45008      889 9.2747055e-14          515           40          334 
    5710    457.26989      899 9.3445496e-14          520           41          338 
    5720    458.11973      911 9.4149201e-14          528           41          342 
    5730    458.97219      917 9.4858204e-14          533           42          342 
    5740    459.83991      921 9.5572544e-14          536           42          343 
    5750    460.69369      925 9.6292272e-14          539           42          344 
    5760     461.5593      928 9.7017424e-14          540           42          346 
    5770    462.43288      934 9.7748025e-14          542           43          349 
    5780     463.3104      944 9.848412e-14          546           44          354 
    5790    464.19558      949 9.9225755e-14          549           44          356 
    5800    465.05701      952 9.9972979e-14          550           45          357 
    5810    465.90977      958 1.0072583e-13          552           45          361 
    5820     466.7588      966 1.0148434e-13          557           45          364 
    5830    467.62706      969 1.0224856e-13          559           45          365 
    5840    468.49049      976 1.0301852e-13          562           45          369 
    5850    469.34736      984 1.0379426e-13          566           45          373 
    5860    470.21958     1000 1.0457583e-13          575           49          376 
    5870    471.09386     1010 1.0536328e-13          578           50          382 
    5880    471.98507     1019 1.0615666e-13          581           50          388 
    5890    472.85132     1024  1.06956e-13          585           50          389 
    5900    473.73095     1030 1.0776136e-13          588           50          392 
    5910    474.60049     1045 1.0857279e-13          601           50          394 
    5920      475.469     1055 1.0939032e-13          609           50          396 
    5930    476.34897     1064  1.10214e-13          614           51          399 
    5940    477.22039     1071 1.1104389e-13          619           51          401 
    5950    478.08676     1073 1.1188001e-13          620           51          402 
    5960    478.97117     1085 1.1272241e-13          628           51          406 
    5970    479.81348     1095 1.1357114e-13          635           52          408 
    5980    480.66115     1101 1.1442626e-13          637           53          411 
    5990    481.51183     1108 1.152878e-13          641           53          414 
    6000     482.6525     1116 1.1615585e-13          643           54          419 
    6010    483.53096     1125 1.1703042e-13          650           54          421 
    6020    484.40527     1129 1.1791157e-13          653           55          421 
    6030    485.29442     1142 1.1879936e-13          659           57          426 
    6040    486.19485     1149 1.1969379e-13          665           57          427 
    6050    487.09052     1158 1.2059495e-13          669           58          431 
    6060     487.9424     1169 1.2150288e-13          677           58          434 
    6070    488.84406     1177 1.2241763e-13          683           58          436 
    6080    489.73809     1192 1.2333929e-13          695           59          438 
    6090     490.5872     1196 1.2426788e-13          696           59          441 
    6100    491.47092     1204 1.2520346e-13          701           59          444 
    6110    492.35474     1209 1.2614607e-13          703           59          447 
    6120    493.23342     1215 1.2709577e-13          708           59          448 
    6130    494.17553     1227 1.2805262e-13          715           59          453 
    6140    495.08129     1232 1.2901665e-13          719           59          454 
    6150    496.02323     1240 1.2998791e-13          725           59          456 
    6160    496.95778     1248 1.3096646e-13          729           60          459 
    6170     497.8581     1261 1.3195236e-13          736           60          465 
    6180    498.75643     1270 1.3294567e-13          740           61          469 
    6190    499.65574     1277 1.3394644e-13          746           61          470 
    6200    500.55768     1290 1.3495471e-13          754           61          475 
    6210    501.47195     1298 1.3597057e-13          760           61          477 
    6220     502.3808     1309 1.3699405e-13          769           61          479 
    6230    503.28066     1325 1.3802522e-13          778           63          484 
    6240    504.17168     1333 1.3906413e-13          781           63          489 
    6250    505.06558     1345 1.4011086e-13          788           63          494 
    6260     505.9738     1352 1.4116545e-13          794           63          495 
    6270    506.87353     1362 1.4222795e-13          800           63          499 
    6280    507.79282     1374 1.4329842e-13          807           64          503 
    6290    508.71912     1381 1.4437694e-13          813           64          504 
    6300    509.64079     1395 1.4546354e-13          820           64          511 
    6310    510.53967     1415 1.4655831e-13          836           64          515 
    6320    511.44525     1421 1.4766131e-13          840           64          517 
    6330    512.35501     1438 1.487726e-13          851           65          522 
    6340    513.26042     1444 1.4989224e-13          855           65          524 
    6350    514.16816     1455 1.5102028e-13          861           65          529 
    6360     515.0752     1464 1.521568e-13          865           65          534 
    6370    516.01771     1473 1.5330185e-13          869           65          539 
    6380    516.94721     1483 1.544555e-13          877           65          541 
    6390    517.87367     1494 1.5561781e-13          886           65          543 
    6400    518.75366     1501 1.5678884e-13          890           65          546 
    6410    519.67106     1514 1.5796866e-13          899           65          550 
    6420    520.57375     1525 1.5915736e-13          903           65          557 
    6430    521.47945     1534 1.6035498e-13          908           65          561 
    6440    522.41218     1548 1.6156158e-13          918           66          564 
    6450    523.35232     1559 1.6277722e-13          925           66          568 
    6460    524.28645     1569 1.6400197e-13          929           66          574 
    6470    525.20558     1581 1.652359e-13          933           66          582 
    6480    526.14392     1591 1.6647909e-13          940           66          585 
    6490    527.08735     1601 1.6773161e-13          946           66          589 
    6500    528.27478     1612 1.6899353e-13          950           66          596 
    6510    529.22628     1622 1.7026489e-13          957           67          598 
    6520    530.17331     1634 1.715458e-13          962           67          605 
    6530     531.1359     1646 1.728363e-13          969           67          610 
    6540    532.07417     1659 1.7413648e-13          978           67          614 
    6550    533.03657     1675 1.7544641e-13          988           68          619 
    6560    534.00744     1693 1.7676616e-13          997           68          628 
    6570    534.97315     1706 1.7809579e-13         1006           68          632 
    6580    535.96361     1720 1.7943538e-13         1015           68          637 
    6590    536.94817     1739  1.80785e-13         1028           68          643 
    6600    537.90693     1746 1.8214473e-13         1032           68          646 
    6610    538.88361     1760 1.8351466e-13         1044           68          648 
    6620    539.85259     1772 1.8489484e-13         1051           68          653 
    6630    540.81266     1789 1.8628536e-13         1061           69          659 
    6640    541.78141     1803 1.8768631e-13         1073           69          661 
    6650    542.74543     1816 1.8909776e-13         1081           69          666 
    6660    543.71237     1829 1.9051979e-13         1089           70          670 
    6670    544.69039     1849 1.9195246e-13         1100           71          678 
    6680     545.6593     1861 1.9339586e-13         1106           71          684 
    6690    546.64587     1873 1.9485006e-13         1113           71          689 
    6700    547.66569     1884 1.9631516e-13         1121           71          692 
    6710    548.65234     1901 1.9779122e-13         1135           71          695 
    6720    549.64243     1918 1.9927832e-13         1146           71          701 
    6730    550.64181     1931 2.0077655e-13         1155           71          705 
    6740    551.61774     1940 2.0228601e-13         1161           71          708 
    6750    552.62305     1951 2.0380677e-13         1168           71          712 
    6760    553.59705     1965 2.0533894e-13         1175           73          717 
    6770    554.62281     1977 2.0688256e-13         1182           73          722 
    6780    555.63531     1987 2.0843775e-13         1191           73          723 
    6790    556.66663     2002 2.1000457e-13         1198           73          731 
    6800    557.67627     2016 2.1158313e-13         1206           73          737 
    6810    558.68242     2030 2.1317352e-13         1214           73          743 
    6820    559.68712     2043 2.1477581e-13         1220           73          750 
    6830    560.67786     2055 2.1639009e-13         1228           73          754 
    6840    561.75543     2067 2.1801644e-13         1234           73          760 
    6850    562.78321     2090 2.1965495e-13         1251           73          766 
    6860    563.79387     2104 2.213057e-13         1260           75          769 
    6870    564.79351     2117 2.2296877e-13         1266           75          776 
    6880    565.84777     2136 2.2464426e-13         1278           75          783 
    6890    566.87341     2156 2.2633228e-13         1290           76          790 
    6900     567.9083     2170 2.2803292e-13         1298           78          794 
    6910    568.95276     2188 2.2974625e-13         1310           79          799 
    6920    569.98002     2200 2.314724e-13         1318           79          803 
    6930    571.07028     2220 2.3321145e-13         1329           80          811 
    6940    572.09191     2234 2.3496349e-13         1335           80          819 
    6950    573.08978     2252 2.3672862e-13         1345           80          827 
    6960    574.10885     2266 2.3850695e-13         1354           80          832 
    6970    575.13723     2285 2.4029858e-13         1368           80          837 
    6980    576.22652     2301 2.421036e-13         1380           80          841 
    6990    577.30371     2318 2.4392211e-13         1392           80          846 
    7000    578.60951     2335 2.4575419e-13         1403           81          851 
    7010    579.64934     2348 2.4759994e-13         1415           81          852 
    7020    580.66368     2370 2.494595e-13         1429           82          859 
    7030    581.71611     2402 2.5133294e-13         1452           83          867 
    7040    582.75757     2422 2.5322038e-13         1466           84          872 
    7050    583.79201     2438 2.5512191e-13         1476           85          877 
    7060    584.85402     2459 2.570376e-13         1489           85          885 
    7070    585.92183     2478 2.5896758e-13         1502           87          889 
    7080    586.97084     2492 2.6091198e-13         1512           88          892 
    7090    588.00599     2515 2.6287088e-13         1526           88          901 
    7100     589.0764     2538 2.6484438e-13         1543           88          907 
    7110    590.16121     2556 2.6683258e-13         1555           89          912 
    7120    591.23666     2581 2.688356e-13         1572           90          919 
    7130    592.29839     2600 2.7085356e-13         1584           90          926 
    7140     593.3793     2616 2.7288657e-13         1595           90          931 
    7150    594.44646     2644 2.7493473e-13         1611           90          943 
    7160    595.50676     2663 2.7699818e-13         1622           91          950 
    7170    596.57328     2687  2.79077e-13         1638           93          956 
    7180    597.64661     2713 2.8117133e-13         1655           94          964 
    7190    598.74121     2735 2.8328129e-13         1668           96          971 
    7200    599.84878     2760 2.8540698e-13         1686           97          977 
    7210    600.94068     2776 2.8754852e-13         1692           98          986 
    7220    602.03067     2789 2.8970603e-13         1700           98          991 
    7230     603.1081     2810 2.9187963e-13         1713           99          998 
    7240     604.2136     2828 2.940694e-13         1724          100         1004 
    7250    605.35456     2841 2.9627546e-13         1732          100         1009 
    7260    606.45533     2863 2.9849792e-13         1744          101         1018 
    7270    607.61243     2878 3.0073695e-13         1753          101         1024 
    7280    608.71438     2906 3.0299265e-13         1771          101         1034 
    7290    609.82602     2928 3.0526513e-13         1785          102         1041 
    7300    610.95823     2949 3.0755449e-13         1795          102         1052 
    7310     612.1323     2973 3.0986086e-13         1814          102         1057 
    7320    613.24839     2999 3.1218441e-13         1830          104         1065 
    7330    614.36926     3017 3.1452525e-13         1842          104         1071 
    7340    615.48395     3035 3.1688349e-13         1857          104         1074 
    7350    616.64585     3059 3.1925928e-13         1870          105         1084 
    7360    617.77942     3081 3.2165271e-13         1883          107         1091 
    7370    618.90351     3102 3.2406394e-13         1897          107         1098 
    7380    620.05704     3134 3.264931e-13         1912          108         1114 
    7390    621.21146     3155 3.2894032e-13         1922          110         1123 
    7400    622.41747     3177 3.3140572e-13         1935          111         1131 
    7410    623.59593     3203 3.3388947e-13         1956          111         1136 
    7420    624.77013     3228 3.3639168e-13         1972          113         1143 
    7430      625.951     3261 3.3891248e-13         1994          113         1154 
    7440    627.11169     3280 3.4145199e-13         2004          113         1163 
    7450    628.27624     3302 3.4401036e-13         2018          113         1171 
    7460     629.4593     3329 3.4658773e-13         2037          114         1178 
    7470    630.61187     3352 3.4918421e-13         2051          116         1185 
    7480    631.79783     3384 3.5179996e-13         2068          116         1200 
    7490    633.01433     3415 3.5443513e-13         2086          116         1213 
    7500    634.41256     3443 3.5708984e-13         2105          117         1221 
    7510    635.58608     3466 3.5976424e-13         2120          118         1228 
    7520    636.77326     3492 3.6245845e-13         2134          118         1240 
    7530    637.95454     3518 3.6517264e-13         2150          120         1248 
    7540    639.14743     3544 3.6790693e-13         2165          120         1259 
    7550    640.35352     3566 3.7066148e-13         2177          120         1269 
    7560    641.56599     3594 3.7343645e-13         2195          122         1277 
    7570     642.7741     3627  3.76232e-13         2212          122         1293 
    7580    643.96179     3658 3.7904826e-13         2230          122         1306 
    7590    645.22384     3676 3.8188538e-13         2244          122         1310 
    7600    646.46066     3691 3.8474353e-13         2252          122         1317 
    7610    647.70687     3711 3.8762286e-13         2265          123         1323 
    7620    648.92769     3734 3.9052353e-13         2281          124         1329 
    7630    650.15731     3766 3.9344567e-13         2300          125         1341 
    7640    651.36963     3790 3.9638945e-13         2313          126         1351 
    7650    652.61716     3813 3.9935502e-13         2329          126         1358 
    7660    653.85245     3838 4.0234253e-13         2346          126         1366 
    7670    655.09102     3864 4.0535213e-13         2365          126         1373 
    7680    656.33699     3902 4.0838398e-13         2392          127         1383 
    7690    657.64466     3921 4.1143822e-13         2406          127         1388 
    7700    658.86599     3951 4.1451504e-13         2427          127         1397 
    7710    660.09858     3980 4.1761462e-13         2447          127         1406 
    7720    661.32922     4013 4.2073711e-13         2468          128         1417 
    7730     662.6053     4039 4.2388266e-13         2483          129         1427 
    7740    663.91575     4070 4.2705145e-13         2504          131         1435 
    7750    665.23612     4100 4.3024363e-13         2526          131         1443 
    7760    666.58512     4136 4.3345936e-13         2552          131         1453 
    7770     667.9157     4164 4.3669885e-13         2571          131         1462 
    7780    669.28242     4192 4.3996225e-13         2588          131         1473 
    7790     670.6131     4217 4.4324973e-13         2602          131         1484 
    7800    671.97441     4258 4.4656148e-13         2627          132         1499 
    7810     673.3319     4295 4.4989766e-13         2651          132         1512 
    7820    674.68672     4333 4.5325842e-13         2671          132         1530 
    7830    676.08447     4371 4.566439e-13         2700          133         1538 
    7840    677.46668     4416 4.6005432e-13         2724          135         1557 
    7850    678.82972     4446 4.6348989e-13         2741          135         1570 
    7860    680.22761     4485 4.6695077e-13         2767          137         1581 
    7870    681.62749     4520 4.7043716e-13         2796          137         1587 
    7880    683.01917     4556 4.7394923e-13         2820          137         1599 
    7890    684.38316     4582 4.7748718e-13         2837          137         1608 
    7900    685.80588     4618 4.8105118e-13         2864          137         1617 
    7910    687.21023     4661 4.8464144e-13         2896          137         1628 
    7920    688.62049     4695 4.8825812e-13         2912          138         1645 
    7930    690.02884     4732 4.9190138e-13         2936          139         1657 
    7940    691.43375     4762 4.9557144e-13         2957          140         1665 
    7950    692.85719     4789 4.9926846e-13         2978          141         1670 
    7960    694.34266     4814 5.0299263e-13         2993          141         1680 
    7970    695.79171     4854 5.0674417e-13         3020          141         1693 
    7980    697.27132     4888 5.1052324e-13         3035          141         1712 
    7990    698.69372     4934 5.1433009e-13         3070          143         1721 
    8000    700.36603     4967 5.1816491e-13         3097          144         1726 
    8010     701.7929     4999 5.2202789e-13         3118          144         1737 
    8020    703.25408     5035 5.2591922e-13         3145          145         1745 
    8030    704.68086     5068 5.298391e-13         3169          145         1754 
    8040    706.16003     5103 5.3378773e-13         3190          145         1768 
    8050    707.61889     5143 5.3776531e-13         3222          145         1776 
    8060    709.06431     5188 5.4177204e-13         3258          145         1785 
    8070    710.55749     5225 5.4580817e-13         3282          146         1797 
    8080    712.02559     5267 5.4987389e-13         3308          146         1813 
    8090    713.47065     5314 5.5396939e-13         3334          146         1834 
    8100    714.92595     5348 5.5809488e-13         3353          146         1849 
    8110    716.43999     5392 5.622506e-13         3379          146         1867 
    8120    717.85227     5424 5.6643678e-13         3398          147         1879 
    8130    719.27365     5458 5.7065357e-13         3419          147         1892 
    8140    720.71331     5498 5.7490119e-13         3445          147         1906 
    8150     722.1537     5543 5.7917986e-13         3474          147         1922 
    8160    723.59932     5573 5.8348981e-13         3494          147         1932 
    8170    725.00784     5616 5.8783126e-13         3521          148         1947 
    8180    726.46683     5664 5.9220441e-13         3552          149         1963 
    8190    727.94702     5701 5.9660949e-13         3575          150         1976 
    8200    729.41543     5744 6.0104675e-13         3602          152         1990 
    8210    730.87629     5783 6.055164e-13         3630          152         2001 
    8220    732.33952     5831 6.1001871e-13         3662          153         2016 
    8230    733.80908     5865 6.1455386e-13         3683          154         2028 
    8240    735.29338     5907 6.1912207e-13         3711          155         2041 
    8250    736.76893     5956 6.2372356e-13         3738          156         2062 
    8260    738.25157     6001 6.2835857e-13         3769          157         2075 
    8270    739.72862     6054 6.3302736e-13         3803          158         2093 
    8280    741.25023     6101 6.3773011e-13         3835          158         2108 
    8290    742.82098     6152 6.4246705e-13         3871          160         2121 
    8300    744.36667     6197 6.4723845e-13         3899          162         2136 
    8310      745.894     6240 6.5204455e-13         3929          164         2147 
    8320    747.41229     6286 6.5688558e-13         3960          166         2160 
    8330    748.92145     6323 6.6176176e-13         3983          166         2174 
    8340    750.45554     6361 6.6667332e-13         4009          168         2184 
    8350    751.97721     6414 6.7162056e-13         4039          169         2206 
    8360    753.51048     6453 6.7660367e-13         4069          170         2214 
    8370    755.08505     6494 6.8162292e-13         4094          171         2229 
    8380    756.67497     6547 6.8667855e-13         4126          172         2249 
    8390    758.22308     6613 6.9177084e-13         4162          173         2278 
    8400    759.78849     6663 6.9690004e-13         4196          174         2293 
    8410    761.37337     6715 7.0206637e-13         4231          174         2310 
    8420    762.92844     6776 7.0727008e-13         4274          175         2327 
    8430     764.4998     6834 7.1251144e-13         4311          176         2347 
    8440    766.11205     6882 7.1779075e-13         4341          178         2363 
    8450    767.69357     6925 7.2310824e-13         4363          181         2381 
    8460    769.29492     6985 7.2846419e-13         4400          182         2403 
    8470    770.89166     7031 7.3385882e-13         4429          183         2419 
    8480    772.52568     7083 7.392924e-13         4458          183         2442 
    8490    774.15719     7148 7.4476516e-13         4502          185         2461 
    8500    776.05172     7202 7.5027737e-13         4538          190         2474 
    8510     777.6688     7248 7.5582931e-13         4571          191         2486 
    8520    779.32183     7298 7.6142129e-13         4598          194         2506 
    8530    780.96616     7351 7.6705357e-13         4634          197         2520 
    8540    782.66745     7400 7.7272642e-13         4664          198         2538 
    8550     784.3302     7461 7.7844011e-13         4698          201         2562 
    8560    786.02593     7520 7.841949e-13         4730          201         2589 
    8570     787.6808     7584 7.8999106e-13         4773          203         2608 
    8580    789.40894     7642 7.9582892e-13         4801          205         2636 
    8590    791.13627     7703 8.0170871e-13         4846          205         2652 
    8600    792.83796     7764 8.0763071e-13         4885          209         2670 
    8610    794.54369     7823 8.1359515e-13         4924          210         2689 
    8620    796.27168     7881 8.1960235e-13         4958          210         2713 
    8630    797.97065     7934 8.2565254e-13         4988          210         2736 
    8640    799.66081     8003 8.3174611e-13         5031          211         2761 
    8650     801.3662     8060 8.3788335e-13         5072          212         2776 
    8660    803.11991     8116 8.440645e-13         5112          212         2792 
    8670    804.86014     8175 8.5028991e-13         5154          212         2809 
    8680    806.62557     8227 8.5655984e-13         5187          212         2828 
    8690    808.42558     8292 8.6287455e-13         5233          214         2845 
    8700     810.1852     8351 8.692343e-13         5271          215         2865 
    8710      811.965     8414 8.7563939e-13         5315          219         2880 
    8720    813.73718     8468 8.8209017e-13         5350          221         2897 
    8730    815.53453     8533 8.8858687e-13         5400          221         2912 
    8740    817.32978     8597 8.9512981e-13         5453          222         2922 
    8750    819.15453     8655 9.0171933e-13         5487          223         2945 
    8760    820.93501     8722 9.0835569e-13         5537          223         2962 
    8770     822.7491     8784 9.1503916e-13         5583          223         2978 
    8780    824.56628     8835 9.2177002e-13         5621          223         2991 
    8790    826.44941     8906 9.2854867e-13         5670          223         3013 
    8800    828.26157     8975 9.3537545e-13         5722          224         3029 
    8810    830.08936     9043 9.4225059e-13         5767          224         3052 
    8820    831.92449     9114 9.491744e-13         5814          224         3076 
    8830    833.76078     9189 9.5614716e-13         5870          226         3093 
    8840     835.6298     9257 9.6316916e-13         5911          226         3120 
    8850    837.52263     9320 9.7024074e-13         5958          228         3134 
    8860    839.40712     9396 9.7736214e-13         6010          228         3158 
    8870    841.29421     9463 9.8453375e-13         6056          229         3178 
    8880    843.19961     9519 9.9175585e-13         6092          232         3195 
    8890    845.10942     9578 9.9902882e-13         6126          234         3218 
    8900    847.08314     9642 1.006353e-12         6161          235         3246 
    8910    849.03139     9707 1.0137286e-12         6206          236         3265 
    8920    850.95895     9771 1.0211559e-12         6248          237         3286 
    8930    852.95104     9836 1.0286355e-12         6294          237         3305 
    8940    854.86879     9897 1.0361675e-12         6333          237         3327 
    8950    856.79466     9972 1.0437524e-12         6380          238         3354 
    8960    858.73481    10036 1.0513904e-12         6430          238         3368 
    8970    860.67755    10107 1.059082e-12         6482          240         3385 
    8980    862.63596    10173 1.0668274e-12         6526          240         3407 
    8990    864.64637    10246 1.0746269e-12         6573          240         3433 
    9000    866.95028    10329 1.0824808e-12         6632          241         3456 
    9010    868.94635    10401 1.0903895e-12         6679          241         3481 
    9020    870.87592    10482 1.0983532e-12         6729          243         3510 
    9030    872.82159    10559 1.1063723e-12         6776          246         3537 
    9040    874.79024    10635 1.1144471e-12         6830          246         3559 
    9050    876.76008    10730 1.1225779e-12         6898          246         3586 
    9060    878.78604    10810 1.130765e-12         6958          246         3606 
    9070    880.75001    10882 1.1390088e-12         7003          249         3630 
    9080    882.73881    10952 1.1473096e-12         7045          251         3656 
    9090    884.73766    11022 1.1556678e-12         7091          252         3679 
    9100    886.74548    11100 1.1640837e-12         7148          253         3699 
    9110     888.7561    11200 1.1725576e-12         7213          254         3733 
    9120    890.77256    11273 1.1810899e-12         7259          255         3759 
    9130     892.7985    11371 1.1896809e-12         7312          256         3803 
    9140    894.87177    11472 1.1983309e-12         7378          257         3837 
    9150    896.92587    11556 1.2070402e-12         7429          258         3869 
    9160    898.96701    11660 1.2158092e-12         7498          260         3902 
    9170    901.02345    11738 1.2246381e-12         7549          262         3927 
    9180    903.10281    11818 1.2335273e-12         7604          263         3951 
    9190    905.20558    11902 1.2424771e-12         7663          263         3976 
    9200    907.30917    11979 1.251488e-12         7708          263         4008 
    9210     909.4036    12069 1.2605602e-12         7761          263         4045 
    9220    911.50733    12158 1.2696942e-12         7821          264         4073 
    9230    913.66728    12246 1.2788902e-12         7876          266         4104 
    9240     915.8175    12326 1.2881485e-12         7931          266         4129 
    9250    917.96055    12412 1.2974695e-12         7987          270         4155 
    9260    920.11123    12508 1.3068535e-12         8050          271         4187 
    9270    922.30473    12586 1.3163007e-12         8100          272         4214 
    9280    924.47962    12668 1.3258116e-12         8155          272         4241 
    9290    926.64251    12756 1.3353865e-12         8216          273         4267 
    9300    928.81108    12852 1.3450258e-12         8279          274         4299 
    9310    931.00714    12951 1.3547298e-12         8347          276         4328 
    9320    933.27711    13045 1.3644986e-12         8406          276         4363 
    9330    935.51682    13145 1.3743325e-12         8475          277         4393 
    9340    937.77682    13247 1.384232e-12         8551          278         4418 
    9350    940.00309    13348 1.3941975e-12         8617          280         4451 
    9360    942.25356    13435 1.4042289e-12         8671          281         4483 
    9370    944.49131    13530 1.4143268e-12         8732          282         4516 
    9380    946.75714    13645 1.4244914e-12         8810          282         4553 
    9390    949.02315    13741 1.434723e-12         8874          286         4581 
    9400    951.29321    13821 1.4450218e-12         8930          287         4604 
    9410    953.57943    13924 1.4553885e-12         8996          288         4640 
    9420    955.88561    14037 1.4658231e-12         9064          292         4681 
    9430    958.22212    14136 1.476326e-12         9127          294         4715 
    9440      960.551    14228 1.4868974e-12         9187          296         4745 
    9450    962.98093    14339 1.4975378e-12         9256          299         4784 
    9460    965.28188    14450 1.5082474e-12         9334          301         4815 
    9470     967.6089    14581 1.5190266e-12         9418          302         4861 
    9480     969.9415    14697 1.5298756e-12         9493          303         4901 
    9490    972.28646    14797 1.5407946e-12         9560          305         4932 
    9500    974.89469    14890 1.5517839e-12         9624          306         4960 
    9510    977.26187    15007 1.5628436e-12         9707          306         4994 
    9520    979.67036    15115 1.573974e-12         9782          306         5027 
    9530    982.12009    15221 1.5851757e-12         9850          308         5063 
    9540    984.58554    15331 1.5964487e-12         9928          309         5094 
    9550    987.04276    15439 1.6077934e-12        10003          311         5125 
    9560    989.50474    15566 1.6192099e-12        10093          314         5159 
    9570    991.94248    15674 1.6306985e-12        10167          314         5193 
    9580    994.40623    15785 1.6422594e-12        10246          315         5224 
    9590    996.86503    15889 1.653893e-12        10326          317         5246 
    9600    999.32021    16008 1.6655996e-12        10400          319         5289 
    9610    1001.7708    16107 1.677379e-12        10468          323         5316 
    9620    1004.2505    16212 1.6892312e-12        10544          324         5344 
    9630    1006.7284    16306 1.7011566e-12        10616          325         5365 
    9640    1009.2038    16415 1.7131556e-12        10704          327         5384 
    9650    1011.7371    16517 1.7252282e-12        10765          328         5424 
    9660    1014.3026    16639 1.7373749e-12        10853          329         5457 
    9670    1016.7985    16762 1.7495956e-12        10925          331         5506 
    9680    1019.3353    16877 1.7618906e-12        10993          333         5551 
    9690    1021.8864    17003 1.7742601e-12        11075          334         5594 
    9700    1024.4173    17109 1.7867043e-12        11136          335         5638 
    9710    1026.9676    17234 1.7992233e-12        11227          337         5670 
    9720    1029.5113    17354 1.811817e-12        11300          337         5717 
    9730    1032.0483    17466 1.8244857e-12        11376          340         5750 
    9740    1034.6117    17577 1.8372297e-12        11449          340         5788 
    9750    1037.2131    17724 1.8500487e-12        11556          342         5826 
    9760    1039.7678    17845 1.862943e-12        11634          344         5867 
    9770    1042.4986    17971 1.8759124e-12        11714          347         5910 
    9780    1045.1604    18084 1.8889569e-12        11796          350         5938 
    9790    1047.7662    18227 1.9020771e-12        11895          353         5979 
    9800    1050.3625    18348 1.9152726e-12        11981          353         6014 
    9810     1053.037    18471 1.9285438e-12        12071          355         6045 
    9820    1055.6489    18601 1.9418906e-12        12155          356         6090 
    9830    1058.3132    18725 1.9553127e-12        12242          358         6125 
    9840    1060.9607    18843 1.9688102e-12        12325          361         6157 
    9850    1063.6117    18974 1.982383e-12        12421          361         6192 
    9860    1066.2329    19101 1.9960309e-12        12504          362         6235 
    9870     1068.954    19227 2.0097539e-12        12601          363         6263 
    9880    1071.5902    19371 2.023552e-12        12705          365         6301 
    9890    1074.2607    19514 2.0374257e-12        12816          365         6333 
    9900    1076.9159    19650 2.0513748e-12        12906          367         6377 
    9910    1079.5772    19787 2.0653987e-12        13003          367         6417 
    9920    1082.2305    19915 2.0794972e-12        13089          369         6457 
    9930    1084.8945    20059 2.0936702e-12        13177          371         6511 
    9940    1087.5671    20186 2.1079176e-12        13250          372         6564 
    9950    1090.2374    20327 2.1222395e-12        13345          374         6608 
    9960    1092.9435    20454 2.1366357e-12        13430          376         6648 
    9970    1095.6142    20594 2.151106e-12        13532          376         6686 
    9980    1098.3053    20745 2.1656501e-12        13636          378         6731 
    9990    1100.9888    20866 2.1802676e-12        13725          378         6763 
   10000    1103.9455    21011 2.194958e-12        13828          381         6802 
Loop time of 1103.95 on 1 procs for 10000 steps with 21011 atoms

Performance: 28175301.166 tau/day, 9.058 timesteps/s
99.5% CPU use with 1 MPI tasks x no OpenMP threads

MPI task timing breakdown:
Section |  min time  |  avg time  |  max time  |%varavg| %total
---------------------------------------------------------------
Pair    | 15.453     | 15.453     | 15.453     |   0.0 |  1.40
Neigh   | 57.684     | 57.684     | 57.684     |   0.0 |  5.23
Comm    | 0.33843    | 0.33843    | 0.33843    |   0.0 |  0.03
Output  | 4.6386     | 4.6386     | 4.6386     |   0.0 |  0.42
Modify  | 1025.4     | 1025.4     | 1025.4     |   0.0 | 92.88
Other   |            | 0.4357     |            |       |  0.04

Nlocal:    21011 ave 21011 max 21011 min
Histogram: 1 0 0 0 0 0 0 0 0 0
Nghost:    0 ave 0 max 0 min
Histogram: 1 0 0 0 0 0 0 0 0 0
Neighs:    261758 ave 261758 max 261758 min
Histogram: 1 0 0 0 0 0 0 0 0 0

Total # of neighbors = 261758
Ave neighs/atom = 12.4581
Neighbor list builds = 10000
Dangerous builds = 0


