LAMMPS (5 Nov 2016)
# NUFEB simulation



atom_style	bio

atom_modify	map array sort 1000 5e-7

boundary	pp pp ff

newton		off

processors  * * 1



units si



comm_modify	vel yes

read_data_bio atom.in

  orthogonal box = (0 0 0) to (0.0016 3e-05 0.00038)
  1 by 1 by 1 MPI processor grid
  reading atoms ...
  0 atoms
  5 nutrients


variable  x equal 258

variable  y equal 5

variable  z equal 10



lattice sc 6.221e-6

Lattice spacing in x,y,z = 6.221e-06 6.221e-06 6.221e-06


region reg block 1 $x 1 $y 1 $z

region reg block 1 258 1 $y 1 $z

region reg block 1 258 1 5 1 $z

region reg block 1 258 1 5 1 10



variable  xx internal 0.0

variable  zz internal 0.0

variable  v equal "(0.29*v_z*zlat * cos(v_xx/xlat * 4.7*PI*4.0/v_x) + 0.90*v_z*zlat - v_zz) > 0.0"



#create_atoms 1 region reg var v set x xx set z zz

create_atoms 1 region reg

Created 10280 atoms


neighbor	5e-7 bin



set type 1 diameter 1.211e-6

  10280 settings made for diameter
set type 1 density 10

  10280 settings made for density
set type 1 mass 3.065e-15

  10280 settings made for mass




##############Define DEM Variables&Commands##############



pair_style  gran/hooke/history 1.e-4 NULL 1.e-5 NULL 0.0 1

pair_coeff  * *



reset_timestep 0



timestep 1e-6



#fix 1 all nve/limit 1e-7

#fix fv all viscous 1e-5



fix zw all wall/gran hooke/history 5000 NULL 500.0 NULL 1.5 0 zplane 0.000000e-04   4e-4



variable kanc equal 50



fix zwa all walladh v_kanc zplane  0.000000e-04   4e-4



variable ke equal 5e+10

fix  fd all fdrag



##############Define IBm Variables##############



#variables used in fix monod

variable EPSdens equal 30

variable EPSratio equal 1.25



#variables used in fix kinetics 

variable diffT equal 1e-4

variable tol equal 1e-6

variable etaHET equal 0

variable layer equal -1



#Defining nufebFoam variables

variable demSteps equal -1

variable bioSteps equal 1

variable bioDt equal 60

variable nloops equal 20





##############Define IBm Commands##############



fix k1 all kinetics 1 160 3 38 v_diffT v_layer niter -1

fix kgm all kinetics/growth/monod v_EPSdens v_etaHET gflag 0

fix g1 all kinetics/diffusion v_tol dn nn nn kg



fix cfd1 all nufebFoam v_demSteps v_bioSteps v_bioDt v_nloops

fix vf1 all verify 100 bm2 1 demflag 0



##############Simulation Output##############



#dump		id all custom 1 snapshot.bubblemd id type diameter x y z

#dump		du2 all grid 1000 grid_%_*.vti con 

thermo_style    custom step cpu atoms biomass 

thermo		10

thermo_modify	lost warn



run 0 pre no post no
WARNING: EPS is not defined in fix_kinetics/kinetics/monod (../fix_bio_kinetics_monod.cpp:253)
WARNING: Negative input value for DEM steps, steps will be calculated and adjusted in nufebFoam (../fix_bio_fluid.cpp:73)
ae = 1.000000e+00, top = 6.281550e-05, base = 6.281550e-05, ave_h = 6.221000e-05 
Neighbor list info ...
  2 neighbor list requests
  update every 1 steps, delay 10 steps, check yes
  max neighbors/atom: 2000, page size: 100000
  master list distance cutoff = 1.711e-06
  ghost atom cutoff = 1.711e-06
  binsize = 8.555e-07 -> bins = 1871 36 445
Memory usage per processor = 140.029 Mbytes
Step CPU Atoms biomass 
       0            0    10280  3.15082e-11 
Loop time of 2.14577e-06 on 1 procs for 0 steps with 10280 atoms

0.0% CPU use with 1 MPI tasks x no OpenMP threads
run 1 pre no post no
Step CPU Atoms biomass 
       0            0    10280  3.15082e-11 
number of iterations: 462628 
       1     1009.071    10280  3.15082e-11 
Loop time of 1009.07 on 1 procs for 1 steps with 10280 atoms

99.9% CPU use with 1 MPI tasks x no OpenMP threads
run 100 pre no post no
Step CPU Atoms biomass 
       1            0    10280  3.15082e-11 
      10 0.0075731277    10280  3.15082e-11 
      20  0.012829065    10280  3.15082e-11 
      30  0.018130064    10280  3.15082e-11 
      40  0.023354053    10280  3.15082e-11 
      50  0.029113054    10280  3.15082e-11 
      60  0.038753033    10280  3.15082e-11 
      70  0.044088125    10280  3.15082e-11 
      80  0.049376011    10280  3.15082e-11 
      90  0.054563999    10280  3.15082e-11 
ssurf = 1.500040e-03 
     100  0.061120033    10280  3.15082e-11 
     101  0.062253952    10280  3.15082e-11 
Loop time of 0.0623021 on 1 procs for 100 steps with 10280 atoms

102.7% CPU use with 1 MPI tasks x no OpenMP threads
run 100 pre no post no
Step CPU Atoms biomass 
     101            0    10280  3.15082e-11 
     110 0.0063040257    10280  3.15082e-11 
     120  0.015143871    10280  3.15082e-11 
     130  0.020428896    10280  3.15082e-11 
     140   0.02572298    10280  3.15082e-11 
     150   0.03094101    10280  3.15082e-11 
     160  0.037785053    10280  3.15082e-11 
     170  0.046470881    10280  3.15082e-11 
     180   0.05183506    10280  3.15082e-11 
     190  0.057065964    10280  3.15082e-11 
ssurf = 1.500040e-03 
     200  0.062345028    10280  3.15082e-11 
     201   0.06291604    10280  3.15082e-11 
Loop time of 0.062943 on 1 procs for 100 steps with 10280 atoms

101.7% CPU use with 1 MPI tasks x no OpenMP threads
run 100 pre no post no
Step CPU Atoms biomass 
     201            0    10280  3.15082e-11 
     210 0.0067830086    10280  3.15082e-11 
     220  0.014712095    10280  3.15082e-11 
     230  0.020051956    10280  3.15082e-11 
     240  0.025382042    10280  3.15082e-11 
     250  0.030689955    10280  3.15082e-11 
     260  0.040282965    10280  3.15082e-11 
     270  0.045629978    10280  3.15082e-11 
     280  0.050904989    10280  3.15082e-11 
     290  0.056240082    10280  3.15082e-11 
ssurf = 1.500040e-03 
     300    0.0615201    10280  3.15082e-11 
     301  0.062113047    10280  3.15082e-11 
Loop time of 0.0621481 on 1 procs for 100 steps with 10280 atoms

103.0% CPU use with 1 MPI tasks x no OpenMP threads
run 100 pre no post no
Step CPU Atoms biomass 
     301            0    10280  3.15082e-11 
     310 0.0090560913    10280  3.15082e-11 
     320  0.014415026    10280  3.15082e-11 
     330  0.019756079    10280  3.15082e-11 
     340   0.02504015    10280  3.15082e-11 
     350  0.030431986    10280  3.15082e-11 
     360  0.039760113    10280  3.15082e-11 
     370  0.045026064    10280  3.15082e-11 
     380  0.050377131    10280  3.15082e-11 
     390  0.055561066    10280  3.15082e-11 
ssurf = 1.500040e-03 
     400  0.061112165    10280  3.15082e-11 
     401  0.061781168    10280  3.15082e-11 
Loop time of 0.06181 on 1 procs for 100 steps with 10280 atoms

97.1% CPU use with 1 MPI tasks x no OpenMP threads
run 100 pre no post no
Step CPU Atoms biomass 
     401            0    10280  3.15082e-11 
     410 0.0062201023    10280  3.15082e-11 
     420  0.015057087    10280  3.15082e-11 
     430  0.020408154    10280  3.15082e-11 
     440  0.025670052    10280  3.15082e-11 
     450  0.030910015    10280  3.15082e-11 
     460  0.037296057    10280  3.15082e-11 
     470  0.045902014    10280  3.15082e-11 
     480  0.051306963    10280  3.15082e-11 
     490  0.056606054    10280  3.15082e-11 
ssurf = 1.500040e-03 
     500  0.061975956    10280  3.15082e-11 
     501  0.062572002    10280  3.15082e-11 
Loop time of 0.0626001 on 1 procs for 100 steps with 10280 atoms

102.2% CPU use with 1 MPI tasks x no OpenMP threads
run 100 pre no post no
Step CPU Atoms biomass 
     501            0    10280  3.15082e-11 
     510 0.0088400841    10280  3.15082e-11 
     520  0.014340162    10280  3.15082e-11 
     530  0.019571066    10280  3.15082e-11 
     540  0.024959087    10280  3.15082e-11 
     550  0.030389071    10280  3.15082e-11 
     560  0.040237188    10280  3.15082e-11 
     570  0.045628071    10280  3.15082e-11 
     580  0.050913095    10280  3.15082e-11 
     590  0.056223154    10280  3.15082e-11 
ssurf = 1.500040e-03 
     600  0.061980009    10280  3.15082e-11 
     601   0.06323719    10280  3.15082e-11 
Loop time of 0.0632741 on 1 procs for 100 steps with 10280 atoms

94.8% CPU use with 1 MPI tasks x no OpenMP threads
run 100 pre no post no
Step CPU Atoms biomass 
     601            0    10280  3.15082e-11 
     610 0.0060269833    10280  3.15082e-11 
     620  0.011294842    10280  3.15082e-11 
     630  0.016540051    10280  3.15082e-11 
     640  0.021818876    10280  3.15082e-11 
     650  0.029585838    10280  3.15082e-11 
     660  0.037379026    10280  3.15082e-11 
     670  0.042661905    10280  3.15082e-11 
     680  0.047917843    10280  3.15082e-11 
     690  0.053174019    10280  3.15082e-11 
ssurf = 1.500040e-03 
     700  0.063061953    10280  3.15082e-11 
     701   0.06374383    10280  3.15082e-11 
Loop time of 0.063772 on 1 procs for 100 steps with 10280 atoms

100.4% CPU use with 1 MPI tasks x no OpenMP threads
run 100 pre no post no
Step CPU Atoms biomass 
     701            0    10280  3.15082e-11 
     710  0.009073019    10280  3.15082e-11 
     720  0.014487028    10280  3.15082e-11 
     730  0.019754171    10280  3.15082e-11 
     740   0.02504611    10280  3.15082e-11 
     750  0.030380011    10280  3.15082e-11 
     760  0.040053129    10280  3.15082e-11 
     770  0.045490026    10280  3.15082e-11 
     780  0.050764084    10280  3.15082e-11 
     790  0.056025028    10280  3.15082e-11 
ssurf = 1.500040e-03 
     800  0.061465025    10280  3.15082e-11 
     801   0.06212616    10280  3.15082e-11 
Loop time of 0.0621541 on 1 procs for 100 steps with 10280 atoms

96.5% CPU use with 1 MPI tasks x no OpenMP threads
run 100 pre no post no
Step CPU Atoms biomass 
     801            0    10280  3.15082e-11 
     810 0.0088341236    10280  3.15082e-11 
     820  0.014246225    10280  3.15082e-11 
     830  0.019517183    10280  3.15082e-11 
     840  0.024819136    10280  3.15082e-11 
     850  0.030191183    10280  3.15082e-11 
     860  0.039781094    10280  3.15082e-11 
     870  0.045194149    10280  3.15082e-11 
     880  0.050507069    10280  3.15082e-11 
     890  0.055734158    10280  3.15082e-11 
ssurf = 1.500040e-03 
     900  0.061350107    10280  3.15082e-11 
     901  0.062134027    10280  3.15082e-11 
Loop time of 0.0621691 on 1 procs for 100 steps with 10280 atoms

96.5% CPU use with 1 MPI tasks x no OpenMP threads
run 100 pre no post no
Step CPU Atoms biomass 
     901            0    10280  3.15082e-11 
     910 0.0080189705    10280  3.15082e-11 
     920  0.013314962    10280  3.15082e-11 
     930   0.01859498    10280  3.15082e-11 
     940  0.023772955    10280  3.15082e-11 
     950  0.029265881    10280  3.15082e-11 
     960  0.038556099    10280  3.15082e-11 
     970  0.043695927    10280  3.15082e-11 
     980  0.048852921    10280  3.15082e-11 
     990  0.054049015    10280  3.15082e-11 
ssurf = 1.500040e-03 
    1000  0.059702873    10280  3.15082e-11 
    1001  0.060945034    10280  3.15082e-11 
Loop time of 0.0609801 on 1 procs for 100 steps with 10280 atoms

98.4% CPU use with 1 MPI tasks x no OpenMP threads
run 100 pre no post no
Step CPU Atoms biomass 
    1001            0    10280  3.15082e-11 
    1010 0.0068039894    10280  3.15082e-11 
    1020  0.014540911    10280  3.15082e-11 
    1030  0.019852877    10280  3.15082e-11 
    1040  0.025205851    10280  3.15082e-11 
    1050   0.03073597    10280  3.15082e-11 
    1060   0.04031086    10280  3.15082e-11 
    1070  0.045616865    10280  3.15082e-11 
    1080  0.051061869    10280  3.15082e-11 
    1090  0.056357861    10280  3.15082e-11 
ssurf = 1.500040e-03 
    1100  0.061892986    10280  3.15082e-11 
    1101  0.062594891    10280  3.15082e-11 
Loop time of 0.062628 on 1 procs for 100 steps with 10280 atoms

102.2% CPU use with 1 MPI tasks x no OpenMP threads
run 100 pre no post no
Step CPU Atoms biomass 
    1101            0    10280  3.15082e-11 
    1110 0.0052821636    10280  3.15082e-11 
    1120  0.014980078    10280  3.15082e-11 
    1130   0.02042222    10280  3.15082e-11 
    1140  0.025722027    10280  3.15082e-11 
    1150  0.030984163    10280  3.15082e-11 
    1160   0.03758502    10280  3.15082e-11 
    1170  0.046066999    10280  3.15082e-11 
    1180  0.051395178    10280  3.15082e-11 
    1190  0.056661129    10280  3.15082e-11 
ssurf = 1.500040e-03 
    1200  0.062045097    10280  3.15082e-11 
    1201  0.062614202    10280  3.15082e-11 
Loop time of 0.0626411 on 1 procs for 100 steps with 10280 atoms

102.2% CPU use with 1 MPI tasks x no OpenMP threads
run 100 pre no post no
Step CPU Atoms biomass 
    1201            0    10280  3.15082e-11 
    1210  0.009570837    10280  3.15082e-11 
    1220  0.015064001    10280  3.15082e-11 
    1230  0.020354986    10280  3.15082e-11 
    1240  0.025774956    10280  3.15082e-11 
    1250   0.03105998    10280  3.15082e-11 
    1260   0.04073596    10280  3.15082e-11 
    1270  0.046080828    10280  3.15082e-11 
    1280  0.051234007    10280  3.15082e-11 
    1290  0.056500912    10280  3.15082e-11 
ssurf = 1.500040e-03 
    1300  0.061758995    10280  3.15082e-11 
    1301  0.062355995    10280  3.15082e-11 
Loop time of 0.062392 on 1 procs for 100 steps with 10280 atoms

102.6% CPU use with 1 MPI tasks x no OpenMP threads
run 100 pre no post no
Step CPU Atoms biomass 
    1301            0    10280  3.15082e-11 
    1310 0.0076611042    10280  3.15082e-11 
    1320  0.014683962    10280  3.15082e-11 
    1330  0.020143032    10280  3.15082e-11 
    1340  0.025373936    10280  3.15082e-11 
    1350  0.030678988    10280  3.15082e-11 
    1360  0.040431023    10280  3.15082e-11 
    1370  0.045767069    10280  3.15082e-11 
    1380  0.051115036    10280  3.15082e-11 
    1390   0.05636692    10280  3.15082e-11 
ssurf = 1.500040e-03 
    1400  0.061665058    10280  3.15082e-11 
    1401  0.062268019    10280  3.15082e-11 
Loop time of 0.0622971 on 1 procs for 100 steps with 10280 atoms

96.3% CPU use with 1 MPI tasks x no OpenMP threads
run 100 pre no post no
Step CPU Atoms biomass 
    1401            0    10280  3.15082e-11 
    1410 0.0074510574    10280  3.15082e-11 
    1420   0.01462698    10280  3.15082e-11 
    1430  0.019787073    10280  3.15082e-11 
    1440  0.024913073    10280  3.15082e-11 
    1450  0.030014038    10280  3.15082e-11 
    1460  0.037333965    10280  3.15082e-11 
    1470  0.044880867    10280  3.15082e-11 
    1480  0.050189018    10280  3.15082e-11 
    1490  0.055482864    10280  3.15082e-11 
ssurf = 1.500040e-03 
    1500  0.060723066    10280  3.15082e-11 
    1501  0.061306953    10280  3.15082e-11 
Loop time of 0.061342 on 1 procs for 100 steps with 10280 atoms

104.3% CPU use with 1 MPI tasks x no OpenMP threads
run 100 pre no post no
Step CPU Atoms biomass 
    1501            0    10280  3.15082e-11 
    1510 0.0070381165    10280  3.15082e-11 
    1520  0.014572144    10280  3.15082e-11 
    1530  0.019845009    10280  3.15082e-11 
    1540  0.025163174    10280  3.15082e-11 
    1550  0.030426979    10280  3.15082e-11 
    1560  0.039896965    10280  3.15082e-11 
    1570   0.04531002    10280  3.15082e-11 
    1580  0.050565004    10280  3.15082e-11 
    1590  0.055816174    10280  3.15082e-11 
ssurf = 1.500040e-03 
    1600  0.061090946    10280  3.15082e-11 
    1601  0.061676025    10280  3.15082e-11 
Loop time of 0.0617061 on 1 procs for 100 steps with 10280 atoms

97.2% CPU use with 1 MPI tasks x no OpenMP threads
run 100 pre no post no
Step CPU Atoms biomass 
    1601            0    10280  3.15082e-11 
    1610 0.0089972019    10280  3.15082e-11 
    1620  0.014404058    10280  3.15082e-11 
    1630  0.019642115    10280  3.15082e-11 
    1640  0.024864197    10280  3.15082e-11 
    1650   0.03029418    10280  3.15082e-11 
    1660  0.040096998    10280  3.15082e-11 
    1670  0.045443058    10280  3.15082e-11 
    1680  0.050842047    10280  3.15082e-11 
    1690   0.05609107    10280  3.15082e-11 
ssurf = 1.500040e-03 
    1700  0.061777115    10280  3.15082e-11 
    1701  0.062906027    10280  3.15082e-11 
Loop time of 0.0629432 on 1 procs for 100 steps with 10280 atoms

101.7% CPU use with 1 MPI tasks x no OpenMP threads
run 100 pre no post no
Step CPU Atoms biomass 
    1701            0    10280  3.15082e-11 
    1710 0.0066299438    10280  3.15082e-11 
    1720  0.014322042    10280  3.15082e-11 
    1730  0.019629002    10280  3.15082e-11 
    1740  0.025012016    10280  3.15082e-11 
    1750   0.03024292    10280  3.15082e-11 
    1760  0.040077925    10280  3.15082e-11 
    1770  0.045479059    10280  3.15082e-11 
    1780  0.050796032    10280  3.15082e-11 
    1790      0.05618    10280  3.15082e-11 
ssurf = 1.500040e-03 
    1800  0.061923981    10280  3.15082e-11 
    1801  0.062806129    10280  3.15082e-11 
Loop time of 0.06284 on 1 procs for 100 steps with 10280 atoms

101.8% CPU use with 1 MPI tasks x no OpenMP threads
run 100 pre no post no
Step CPU Atoms biomass 
    1801            0    10280  3.15082e-11 
    1810 0.0066518784    10280  3.15082e-11 
    1820  0.014485836    10280  3.15082e-11 
    1830  0.019763947    10280  3.15082e-11 
    1840  0.024981976    10280  3.15082e-11 
    1850  0.030198812    10280  3.15082e-11 
    1860  0.037961006    10280  3.15082e-11 
    1870  0.045019865    10280  3.15082e-11 
    1880  0.050416946    10280  3.15082e-11 
    1890  0.055701017    10280  3.15082e-11 
ssurf = 1.500040e-03 
    1900  0.060972929    10280  3.15082e-11 
    1901  0.061573982    10280  3.15082e-11 
Loop time of 0.0616019 on 1 procs for 100 steps with 10280 atoms

97.4% CPU use with 1 MPI tasks x no OpenMP threads
run 100 pre no post no
Step CPU Atoms biomass 
    1901            0    10280  3.15082e-11 
    1910 0.0047500134    10280  3.15082e-11 
    1920  0.009937048    10280  3.15082e-11 
    1930  0.015305996    10280  3.15082e-11 
    1940  0.020724058    10280  3.15082e-11 
    1950  0.030500174    10280  3.15082e-11 
    1960  0.035906076    10280  3.15082e-11 
    1970  0.041113138    10280  3.15082e-11 
    1980  0.046455145    10280  3.15082e-11 
    1990  0.052186966    10280  3.15082e-11 
ssurf = 1.500040e-03 
    2000  0.061803102    10280  3.15082e-11 
    2001  0.062373161    10280  3.15082e-11 
Loop time of 0.062398 on 1 procs for 100 steps with 10280 atoms

102.6% CPU use with 1 MPI tasks x no OpenMP threads
run 100 pre no post no
Step CPU Atoms biomass 
    2001            0    10280  3.15082e-11 
    2010 0.0063199997    10280  3.15082e-11 
    2020  0.011608839    10280  3.15082e-11 
    2030  0.016880989    10280  3.15082e-11 
    2040  0.022145987    10280  3.15082e-11 
    2050   0.02985692    10280  3.15082e-11 
    2060   0.03765893    10280  3.15082e-11 
    2070  0.043017864    10280  3.15082e-11 
    2080  0.048277855    10280  3.15082e-11 
    2090  0.053551912    10280  3.15082e-11 
ssurf = 1.500040e-03 
    2100  0.063910007    10280  3.15082e-11 
    2101  0.064541817    10280  3.15082e-11 
Loop time of 0.0645669 on 1 procs for 100 steps with 10280 atoms

105.3% CPU use with 1 MPI tasks x no OpenMP threads
run 100 pre no post no
Step CPU Atoms biomass 
    2101            0    10280  3.15082e-11 
    2110  0.009125948    10280  3.15082e-11 
    2120  0.014575958    10280  3.15082e-11 
    2130  0.019858837    10280  3.15082e-11 
    2140  0.025130987    10280  3.15082e-11 
    2150  0.030539036    10280  3.15082e-11 
    2160  0.040231943    10280  3.15082e-11 
    2170  0.045606852    10280  3.15082e-11 
    2180  0.050858021    10280  3.15082e-11 
    2190  0.056114912    10280  3.15082e-11 
ssurf = 1.500040e-03 
    2200  0.061509848    10280  3.15082e-11 
    2201  0.062166929    10280  3.15082e-11 
Loop time of 0.062197 on 1 procs for 100 steps with 10280 atoms

102.9% CPU use with 1 MPI tasks x no OpenMP threads
run 100 pre no post no
Step CPU Atoms biomass 
    2201            0    10280  3.15082e-11 
    2210 0.0090641975    10280  3.15082e-11 
    2220  0.014564037    10280  3.15082e-11 
    2230  0.019873142    10280  3.15082e-11 
    2240  0.025140047    10280  3.15082e-11 
    2250   0.03050518    10280  3.15082e-11 
    2260  0.040026188    10280  3.15082e-11 
    2270  0.045258045    10280  3.15082e-11 
    2280  0.050642014    10280  3.15082e-11 
    2290  0.055845976    10280  3.15082e-11 
ssurf = 1.500040e-03 
    2300  0.061326027    10280  3.15082e-11 
    2301  0.061988115    10280  3.15082e-11 
Loop time of 0.0620182 on 1 procs for 100 steps with 10280 atoms

96.7% CPU use with 1 MPI tasks x no OpenMP threads
run 100 pre no post no
Step CPU Atoms biomass 
    2301            0    10280  3.15082e-11 
    2310 0.0087759495    10280  3.15082e-11 
    2320  0.014075041    10280  3.15082e-11 
    2330  0.019340992    10280  3.15082e-11 
    2340  0.024733067    10280  3.15082e-11 
    2350    0.0302701    10280  3.15082e-11 
    2360  0.040087938    10280  3.15082e-11 
    2370  0.045443058    10280  3.15082e-11 
    2380  0.050683975    10280  3.15082e-11 
    2390   0.05608201    10280  3.15082e-11 
ssurf = 1.500040e-03 
    2400  0.061846972    10280  3.15082e-11 
    2401  0.063005924    10280  3.15082e-11 
Loop time of 0.0630419 on 1 procs for 100 steps with 10280 atoms

101.5% CPU use with 1 MPI tasks x no OpenMP threads
run 100 pre no post no
Step CPU Atoms biomass 
    2401            0    10280  3.15082e-11 
    2410 0.0088841915    10280  3.15082e-11 
    2420  0.014296055    10280  3.15082e-11 
    2430  0.019608974    10280  3.15082e-11 
    2440  0.024883986    10280  3.15082e-11 
    2450  0.030419111    10280  3.15082e-11 
    2460  0.040122032    10280  3.15082e-11 
    2470  0.045562983    10280  3.15082e-11 
    2480  0.050808191    10280  3.15082e-11 
    2490  0.056058168    10280  3.15082e-11 
ssurf = 1.500040e-03 
    2500  0.061820984    10280  3.15082e-11 
    2501  0.063192129    10280  3.15082e-11 
Loop time of 0.0632391 on 1 procs for 100 steps with 10280 atoms

101.2% CPU use with 1 MPI tasks x no OpenMP threads
run 100 pre no post no
Step CPU Atoms biomass 
    2501            0    10280  3.15082e-11 
    2510 0.0090141296    10280  3.15082e-11 
    2520  0.014296055    10280  3.15082e-11 
    2530  0.019653082    10280  3.15082e-11 
    2540  0.024880171    10280  3.15082e-11 
    2550  0.030656099    10280  3.15082e-11 
    2560  0.040006161    10280  3.15082e-11 
    2570  0.045207024    10280  3.15082e-11 
    2580  0.050493002    10280  3.15082e-11 
    2590  0.055663109    10280  3.15082e-11 
ssurf = 1.500040e-03 
    2600  0.061372042    10280  3.15082e-11 
    2601  0.062566042    10280  3.15082e-11 
Loop time of 0.062602 on 1 procs for 100 steps with 10280 atoms

102.2% CPU use with 1 MPI tasks x no OpenMP threads
run 100 pre no post no
Step CPU Atoms biomass 
    2601            0    10280  3.15082e-11 
    2610 0.0082490444    10280  3.15082e-11 
    2620  0.013631105    10280  3.15082e-11 
    2630  0.018897057    10280  3.15082e-11 
    2640  0.024129152    10280  3.15082e-11 
    2650  0.029906034    10280  3.15082e-11 
    2660  0.039422035    10280  3.15082e-11 
    2670  0.044770956    10280  3.15082e-11 
    2680    0.0500741    10280  3.15082e-11 
    2690  0.055341005    10280  3.15082e-11 
ssurf = 1.500040e-03 
    2700  0.062070131    10280  3.15082e-11 
    2701  0.063220978    10280  3.15082e-11 
Loop time of 0.063262 on 1 procs for 100 steps with 10280 atoms

101.2% CPU use with 1 MPI tasks x no OpenMP threads
run 100 pre no post no
Step CPU Atoms biomass 
    2701            0    10280  3.15082e-11 
    2710  0.009292841    10280  3.15082e-11 
    2720  0.015742064    10280  3.15082e-11 
    2730  0.020987988    10280  3.15082e-11 
    2740  0.026200056    10280  3.15082e-11 
    2750  0.031615973    10280  3.15082e-11 
    2760  0.041229963    10280  3.15082e-11 
    2770  0.046705961    10280  3.15082e-11 
    2780  0.051787853    10280  3.15082e-11 
    2790   0.05686903    10280  3.15082e-11 
ssurf = 1.500040e-03 
    2800  0.062218904    10280  3.15082e-11 
    2801  0.062886953    10280  3.15082e-11 
Loop time of 0.062916 on 1 procs for 100 steps with 10280 atoms

101.7% CPU use with 1 MPI tasks x no OpenMP threads
run 100 pre no post no
Step CPU Atoms biomass 
    2801            0    10280  3.15082e-11 
    2810 0.0090098381    10280  3.15082e-11 
    2820  0.014353991    10280  3.15082e-11 
    2830  0.019570827    10280  3.15082e-11 
    2840  0.024919987    10280  3.15082e-11 
    2850  0.030669928    10280  3.15082e-11 
    2860  0.040196896    10280  3.15082e-11 
    2870  0.045504808    10280  3.15082e-11 
    2880  0.050822973    10280  3.15082e-11 
    2890  0.056080818    10280  3.15082e-11 
ssurf = 1.500040e-03 
    2900   0.06277585    10280  3.15082e-11 
    2901  0.063942909    10280  3.15082e-11 
Loop time of 0.0639849 on 1 procs for 100 steps with 10280 atoms

100.0% CPU use with 1 MPI tasks x no OpenMP threads
run 100 pre no post no
Step CPU Atoms biomass 
    2901            0    10280  3.15082e-11 
    2910 0.0089831352    10280  3.15082e-11 
    2920  0.014389038    10280  3.15082e-11 
    2930  0.019765139    10280  3.15082e-11 
    2940   0.02503109    10280  3.15082e-11 
    2950  0.030506134    10280  3.15082e-11 
    2960  0.040027142    10280  3.15082e-11 
    2970  0.045398235    10280  3.15082e-11 
    2980  0.050813198    10280  3.15082e-11 
    2990  0.056043148    10280  3.15082e-11 
ssurf = 1.500040e-03 
    3000  0.061531067    10280  3.15082e-11 
    3001   0.06222415    10280  3.15082e-11 
Loop time of 0.0622551 on 1 procs for 100 steps with 10280 atoms

102.8% CPU use with 1 MPI tasks x no OpenMP threads
run 100 pre no post no
Step CPU Atoms biomass 
    3001            0    10280  3.15082e-11 
    3010 0.0087249279    10280  3.15082e-11 
    3020  0.014117956    10280  3.15082e-11 
    3030  0.019373894    10280  3.15082e-11 
    3040  0.024672985    10280  3.15082e-11 
    3050  0.030416012    10280  3.15082e-11 
    3060  0.039867878    10280  3.15082e-11 
    3070  0.045114994    10280  3.15082e-11 
    3080  0.050431967    10280  3.15082e-11 
    3090  0.055822849    10280  3.15082e-11 
ssurf = 1.500040e-03 
    3100  0.062539816    10280  3.15082e-11 
    3101  0.063336849    10280  3.15082e-11 
Loop time of 0.063427 on 1 procs for 100 steps with 10280 atoms

100.9% CPU use with 1 MPI tasks x no OpenMP threads
run 100 pre no post no
Step CPU Atoms biomass 
    3101            0    10280  3.15082e-11 
    3110 0.0088040829    10280  3.15082e-11 
    3120  0.014386892    10280  3.15082e-11 
    3130  0.019628048    10280  3.15082e-11 
    3140  0.024884939    10280  3.15082e-11 
    3150  0.030208111    10280  3.15082e-11 
    3160  0.039592028    10280  3.15082e-11 
    3170  0.045073032    10280  3.15082e-11 
    3180  0.050287962    10280  3.15082e-11 
    3190    0.0555439    10280  3.15082e-11 
ssurf = 1.500040e-03 
    3200  0.061089039    10280  3.15082e-11 
    3201  0.061742067    10280  3.15082e-11 
Loop time of 0.0617709 on 1 procs for 100 steps with 10280 atoms

103.6% CPU use with 1 MPI tasks x no OpenMP threads
run 100 pre no post no
Step CPU Atoms biomass 
    3201            0    10280  3.15082e-11 
    3210 0.0057411194    10280  3.15082e-11 
    3220  0.010977983    10280  3.15082e-11 
    3230  0.016247034    10280  3.15082e-11 
    3240  0.021531105    10280  3.15082e-11 
    3250  0.028454065    10280  3.15082e-11 
    3260  0.036242008    10280  3.15082e-11 
    3270  0.041543961    10280  3.15082e-11 
    3280  0.046872139    10280  3.15082e-11 
    3290  0.052144051    10280  3.15082e-11 
ssurf = 1.500040e-03 
    3300   0.05952096    10280  3.15082e-11 
    3301  0.060199976    10280  3.15082e-11 
Loop time of 0.0602319 on 1 procs for 100 steps with 10280 atoms

99.6% CPU use with 1 MPI tasks x no OpenMP threads
run 100 pre no post no
Step CPU Atoms biomass 
    3301            0    10280  3.15082e-11 
    3310 0.0090670586    10280  3.15082e-11 
    3320  0.014506102    10280  3.15082e-11 
    3330  0.019815207    10280  3.15082e-11 
    3340  0.025149107    10280  3.15082e-11 
    3350  0.030563116    10280  3.15082e-11 
    3360  0.040381193    10280  3.15082e-11 
    3370  0.045698166    10280  3.15082e-11 
    3380  0.050914049    10280  3.15082e-11 
    3390  0.056171179    10280  3.15082e-11 
ssurf = 1.500040e-03 
    3400     0.061903    10280  3.15082e-11 
    3401  0.062564135    10280  3.15082e-11 
Loop time of 0.0625942 on 1 procs for 100 steps with 10280 atoms

102.2% CPU use with 1 MPI tasks x no OpenMP threads
run 100 pre no post no
Step CPU Atoms biomass 
    3401            0    10280  3.15082e-11 
    3410  0.005656004    10280  3.15082e-11 
    3420  0.014740944    10280  3.15082e-11 
    3430   0.02007699    10280  3.15082e-11 
    3440  0.025336981    10280  3.15082e-11 
    3450  0.030591965    10280  3.15082e-11 
    3460  0.037089109    10280  3.15082e-11 
    3470  0.045793056    10280  3.15082e-11 
    3480  0.051120996    10280  3.15082e-11 
    3490   0.05638504    10280  3.15082e-11 
ssurf = 1.500040e-03 
    3500  0.061738968    10280  3.15082e-11 
    3501  0.062329054    10280  3.15082e-11 
Loop time of 0.0623581 on 1 procs for 100 steps with 10280 atoms

102.6% CPU use with 1 MPI tasks x no OpenMP threads
run 100 pre no post no
Step CPU Atoms biomass 
    3501            0    10280  3.15082e-11 
    3510 0.0089230537    10280  3.15082e-11 
    3520  0.014374018    10280  3.15082e-11 
    3530  0.019805908    10280  3.15082e-11 
    3540  0.025032997    10280  3.15082e-11 
    3550   0.03052187    10280  3.15082e-11 
    3560   0.04025197    10280  3.15082e-11 
    3570  0.045698881    10280  3.15082e-11 
    3580  0.050951004    10280  3.15082e-11 
    3590  0.056311846    10280  3.15082e-11 
ssurf = 1.500040e-03 
    3600  0.062203884    10280  3.15082e-11 
    3601  0.063341856    10280  3.15082e-11 
Loop time of 0.0633759 on 1 procs for 100 steps with 10280 atoms

94.7% CPU use with 1 MPI tasks x no OpenMP threads
run 100 pre no post no
Step CPU Atoms biomass 
    3601            0    10280  3.15082e-11 
    3610 0.0064690113    10280  3.15082e-11 
    3620  0.014320135    10280  3.15082e-11 
    3630  0.019648075    10280  3.15082e-11 
    3640  0.024944067    10280  3.15082e-11 
    3650  0.030139208    10280  3.15082e-11 
    3660  0.039509058    10280  3.15082e-11 
    3670  0.044942141    10280  3.15082e-11 
    3680  0.050232172    10280  3.15082e-11 
    3690  0.055550098    10280  3.15082e-11 
ssurf = 1.500040e-03 
    3700  0.060862064    10280  3.15082e-11 
    3701  0.061450005    10280  3.15082e-11 
Loop time of 0.061481 on 1 procs for 100 steps with 10280 atoms

97.6% CPU use with 1 MPI tasks x no OpenMP threads
run 100 pre no post no
Step CPU Atoms biomass 
    3701            0    10280  3.15082e-11 
    3710 0.0080430508    10280  3.15082e-11 
    3720   0.01327014    10280  3.15082e-11 
    3730  0.018475056    10280  3.15082e-11 
    3740  0.023860216    10280  3.15082e-11 
    3750  0.029671192    10280  3.15082e-11 
    3760  0.039129019    10280  3.15082e-11 
    3770  0.044403076    10280  3.15082e-11 
    3780  0.049729109    10280  3.15082e-11 
    3790  0.055025101    10280  3.15082e-11 
ssurf = 1.500040e-03 
    3800  0.061750174    10280  3.15082e-11 
    3801  0.062937021    10280  3.15082e-11 
Loop time of 0.062973 on 1 procs for 100 steps with 10280 atoms

95.3% CPU use with 1 MPI tasks x no OpenMP threads
run 100 pre no post no
Step CPU Atoms biomass 
    3801            0    10280  3.15082e-11 
    3810  0.005191803    10280  3.15082e-11 
    3820  0.014822006    10280  3.15082e-11 
    3830   0.02016592    10280  3.15082e-11 
    3840  0.025417805    10280  3.15082e-11 
    3850  0.030663967    10280  3.15082e-11 
    3860     0.036201    10280  3.15082e-11 
    3870  0.045509815    10280  3.15082e-11 
    3880  0.050824881    10280  3.15082e-11 
    3890  0.056154966    10280  3.15082e-11 
ssurf = 1.500040e-03 
    3900  0.061502934    10280  3.15082e-11 
    3901  0.062067032    10280  3.15082e-11 
Loop time of 0.062094 on 1 procs for 100 steps with 10280 atoms

96.6% CPU use with 1 MPI tasks x no OpenMP threads
run 100 pre no post no
Step CPU Atoms biomass 
    3901            0    10280  3.15082e-11 
    3910 0.0052452087    10280  3.15082e-11 
    3920  0.014995098    10280  3.15082e-11 
    3930  0.020444155    10280  3.15082e-11 
    3940  0.025897026    10280  3.15082e-11 
    3950  0.031174183    10280  3.15082e-11 
    3960  0.037913084    10280  3.15082e-11 
    3970  0.046549082    10280  3.15082e-11 
    3980  0.051981211    10280  3.15082e-11 
    3990  0.057214022    10280  3.15082e-11 
ssurf = 1.500040e-03 
    4000  0.062502146    10280  3.15082e-11 
    4001  0.063095093    10280  3.15082e-11 
Loop time of 0.0631232 on 1 procs for 100 steps with 10280 atoms

95.1% CPU use with 1 MPI tasks x no OpenMP threads
run 100 pre no post no
Step CPU Atoms biomass 
    4001            0    10280  3.15082e-11 
    4010 0.0047879219    10280  3.15082e-11 
    4020  0.010088921    10280  3.15082e-11 
    4030  0.015378952    10280  3.15082e-11 
    4040  0.020828962    10280  3.15082e-11 
    4050  0.030743122    10280  3.15082e-11 
    4060  0.036108017    10280  3.15082e-11 
    4070  0.041353941    10280  3.15082e-11 
    4080  0.046571016    10280  3.15082e-11 
    4090  0.052154064    10280  3.15082e-11 
ssurf = 1.500040e-03 
    4100   0.06170392    10280  3.15082e-11 
    4101  0.062281132    10280  3.15082e-11 
Loop time of 0.0623059 on 1 procs for 100 steps with 10280 atoms

102.7% CPU use with 1 MPI tasks x no OpenMP threads
run 100 pre no post no
Step CPU Atoms biomass 
    4101            0    10280  3.15082e-11 
    4110  0.008015871    10280  3.15082e-11 
    4120  0.014743805    10280  3.15082e-11 
    4130  0.020059824    10280  3.15082e-11 
    4140  0.025358915    10280  3.15082e-11 
    4150  0.030615807    10280  3.15082e-11 
    4160  0.040198803    10280  3.15082e-11 
    4170  0.045512915    10280  3.15082e-11 
    4180  0.050740004    10280  3.15082e-11 
    4190  0.056138992    10280  3.15082e-11 
ssurf = 1.500040e-03 
    4200  0.061405897    10280  3.15082e-11 
    4201  0.061999798    10280  3.15082e-11 
Loop time of 0.0620289 on 1 procs for 100 steps with 10280 atoms

103.2% CPU use with 1 MPI tasks x no OpenMP threads
run 100 pre no post no
Step CPU Atoms biomass 
    4201            0    10280  3.15082e-11 
    4210 0.0060040951    10280  3.15082e-11 
    4220  0.014791965    10280  3.15082e-11 
    4230  0.020216942    10280  3.15082e-11 
    4240  0.025537968    10280  3.15082e-11 
    4250  0.030777931    10280  3.15082e-11 
    4260  0.037853003    10280  3.15082e-11 
    4270  0.046116114    10280  3.15082e-11 
    4280  0.051537037    10280  3.15082e-11 
    4290   0.05686307    10280  3.15082e-11 
ssurf = 1.500040e-03 
    4300  0.062189102    10280  3.15082e-11 
    4301  0.062757015    10280  3.15082e-11 
Loop time of 0.062783 on 1 procs for 100 steps with 10280 atoms

95.6% CPU use with 1 MPI tasks x no OpenMP threads
run 100 pre no post no
Step CPU Atoms biomass 
    4301            0    10280  3.15082e-11 
    4310  0.010036945    10280  3.15082e-11 
    4320  0.015487909    10280  3.15082e-11 
    4330   0.02068305    10280  3.15082e-11 
    4340  0.026048899    10280  3.15082e-11 
    4350  0.031456947    10280  3.15082e-11 
    4360  0.041593075    10280  3.15082e-11 
    4370  0.046927929    10280  3.15082e-11 
    4380   0.05213809    10280  3.15082e-11 
    4390  0.057451963    10280  3.15082e-11 
ssurf = 1.500040e-03 
    4400  0.063783884    10280  3.15082e-11 
    4401  0.064653873    10280  3.15082e-11 
Loop time of 0.064682 on 1 procs for 100 steps with 10280 atoms

98.9% CPU use with 1 MPI tasks x no OpenMP threads
run 100 pre no post no
Step CPU Atoms biomass 
    4401            0    10280  3.15082e-11 
    4410 0.0061628819    10280  3.15082e-11 
    4420  0.014627934    10280  3.15082e-11 
    4430  0.019900799    10280  3.15082e-11 
    4440  0.025142908    10280  3.15082e-11 
    4450  0.030408859    10280  3.15082e-11 
    4460  0.037871838    10280  3.15082e-11 
    4470  0.046533823    10280  3.15082e-11 
    4480  0.051842928    10280  3.15082e-11 
    4490  0.057187796    10280  3.15082e-11 
ssurf = 1.500040e-03 
    4500  0.062451839    10280  3.15082e-11 
    4501  0.063015938    10280  3.15082e-11 
Loop time of 0.0630419 on 1 procs for 100 steps with 10280 atoms

95.2% CPU use with 1 MPI tasks x no OpenMP threads
run 100 pre no post no
Step CPU Atoms biomass 
    4501            0    10280  3.15082e-11 
    4510 0.0053210258    10280  3.15082e-11 
    4520  0.015324116    10280  3.15082e-11 
    4530  0.020711899    10280  3.15082e-11 
    4540  0.025985003    10280  3.15082e-11 
    4550  0.031618118    10280  3.15082e-11 
    4560   0.03835392    10280  3.15082e-11 
    4570  0.046898127    10280  3.15082e-11 
    4580  0.052282095    10280  3.15082e-11 
    4590  0.057476044    10280  3.15082e-11 
ssurf = 1.500040e-03 
    4600  0.062745094    10280  3.15082e-11 
    4601    0.0633111    10280  3.15082e-11 
Loop time of 0.0633371 on 1 procs for 100 steps with 10280 atoms

101.0% CPU use with 1 MPI tasks x no OpenMP threads
run 100 pre no post no
Step CPU Atoms biomass 
    4601            0    10280  3.15082e-11 
    4610 0.0093040466    10280  3.15082e-11 
    4620  0.014765024    10280  3.15082e-11 
    4630  0.020066023    10280  3.15082e-11 
    4640  0.025302887    10280  3.15082e-11 
    4650  0.030398846    10280  3.15082e-11 
    4660  0.039955854    10280  3.15082e-11 
    4670  0.045340061    10280  3.15082e-11 
    4680  0.050484896    10280  3.15082e-11 
    4690  0.055608988    10280  3.15082e-11 
ssurf = 1.500040e-03 
    4700  0.060735941    10280  3.15082e-11 
    4701  0.061346054    10280  3.15082e-11 
Loop time of 0.0613759 on 1 procs for 100 steps with 10280 atoms

97.8% CPU use with 1 MPI tasks x no OpenMP threads
run 100 pre no post no
Step CPU Atoms biomass 
    4701            0    10280  3.15082e-11 
    4710 0.0055758953    10280  3.15082e-11 
    4720  0.014950991    10280  3.15082e-11 
    4730  0.020489931    10280  3.15082e-11 
    4740  0.025747061    10280  3.15082e-11 
    4750  0.030987024    10280  3.15082e-11 
    4760  0.037725925    10280  3.15082e-11 
    4770  0.046097994    10280  3.15082e-11 
    4780  0.051501036    10280  3.15082e-11 
    4790  0.056815863    10280  3.15082e-11 
ssurf = 1.500040e-03 
    4800  0.062167883    10280  3.15082e-11 
    4801  0.062738895    10280  3.15082e-11 
Loop time of 0.0627658 on 1 procs for 100 steps with 10280 atoms

102.0% CPU use with 1 MPI tasks x no OpenMP threads
run 100 pre no post no
Step CPU Atoms biomass 
    4801            0    10280  3.15082e-11 
    4810 0.0047118664    10280  3.15082e-11 
    4820  0.012617826    10280  3.15082e-11 
    4830   0.01962781    10280  3.15082e-11 
    4840  0.024859905    10280  3.15082e-11 
    4850  0.030125856    10280  3.15082e-11 
    4860  0.035336018    10280  3.15082e-11 
    4870  0.043278933    10280  3.15082e-11 
    4880  0.050225973    10280  3.15082e-11 
    4890  0.055562973    10280  3.15082e-11 
ssurf = 1.500040e-03 
    4900  0.060835838    10280  3.15082e-11 
    4901  0.061419964    10280  3.15082e-11 
Loop time of 0.061446 on 1 procs for 100 steps with 10280 atoms

97.6% CPU use with 1 MPI tasks x no OpenMP threads
run 100 pre no post no
Step CPU Atoms biomass 
    4901            0    10280  3.15082e-11 
    4910 0.0062830448    10280  3.15082e-11 
    4920   0.01454401    10280  3.15082e-11 
    4930  0.019824982    10280  3.15082e-11 
    4940  0.025121927    10280  3.15082e-11 
    4950  0.030376911    10280  3.15082e-11 
    4960  0.037333012    10280  3.15082e-11 
    4970  0.045140028    10280  3.15082e-11 
    4980  0.050410986    10280  3.15082e-11 
    4990  0.055679083    10280  3.15082e-11 
ssurf = 1.500040e-03 
    5000  0.060936928    10280  3.15082e-11 
    5001  0.061516047    10280  3.15082e-11 
Loop time of 0.0615401 on 1 procs for 100 steps with 10280 atoms

104.0% CPU use with 1 MPI tasks x no OpenMP threads
run 100 pre no post no
Step CPU Atoms biomass 
    5001            0    10280  3.15082e-11 
    5010 0.0088050365    10280  3.15082e-11 
    5020  0.014111042    10280  3.15082e-11 
    5030  0.019506931    10280  3.15082e-11 
    5040   0.02482605    10280  3.15082e-11 
    5050  0.030508041    10280  3.15082e-11 
    5060  0.040380955    10280  3.15082e-11 
    5070  0.045699835    10280  3.15082e-11 
    5080  0.051058054    10280  3.15082e-11 
    5090  0.056408882    10280  3.15082e-11 
ssurf = 1.500040e-03 
    5100  0.062921047    10280  3.15082e-11 
    5101  0.063866854    10280  3.15082e-11 
Loop time of 0.063899 on 1 procs for 100 steps with 10280 atoms

100.2% CPU use with 1 MPI tasks x no OpenMP threads
run 100 pre no post no
Step CPU Atoms biomass 
    5101            0    10280  3.15082e-11 
    5110 0.0051939487    10280  3.15082e-11 
    5120  0.015005827    10280  3.15082e-11 
    5130  0.020236015    10280  3.15082e-11 
    5140   0.02549386    10280  3.15082e-11 
    5150   0.03062582    10280  3.15082e-11 
    5160  0.036335945    10280  3.15082e-11 
    5170  0.046232939    10280  3.15082e-11 
    5180  0.051458836    10280  3.15082e-11 
    5190  0.056576014    10280  3.15082e-11 
ssurf = 1.500040e-03 
    5200  0.061724901    10280  3.15082e-11 
    5201  0.062314987    10280  3.15082e-11 
Loop time of 0.062341 on 1 procs for 100 steps with 10280 atoms

96.2% CPU use with 1 MPI tasks x no OpenMP threads
run 100 pre no post no
Step CPU Atoms biomass 
    5201            0    10280  3.15082e-11 
    5210 0.0060501099    10280  3.15082e-11 
    5220  0.014936209    10280  3.15082e-11 
    5230  0.020195007    10280  3.15082e-11 
    5240  0.025586128    10280  3.15082e-11 
    5250  0.030969143    10280  3.15082e-11 
    5260  0.037763119    10280  3.15082e-11 
    5270   0.04650116    10280  3.15082e-11 
    5280  0.051764011    10280  3.15082e-11 
    5290   0.05708003    10280  3.15082e-11 
ssurf = 1.500040e-03 
    5300  0.062321186    10280  3.15082e-11 
    5301     0.062886    10280  3.15082e-11 
Loop time of 0.062912 on 1 procs for 100 steps with 10280 atoms

101.7% CPU use with 1 MPI tasks x no OpenMP threads
run 100 pre no post no
Step CPU Atoms biomass 
    5301            0    10280  3.15082e-11 
    5310 0.0051438808    10280  3.15082e-11 
    5320   0.01434803    10280  3.15082e-11 
    5330  0.019713879    10280  3.15082e-11 
    5340  0.025002956    10280  3.15082e-11 
    5350  0.030236006    10280  3.15082e-11 
    5360   0.03599596    10280  3.15082e-11 
    5370  0.045569897    10280  3.15082e-11 
    5380  0.050964832    10280  3.15082e-11 
    5390  0.056239843    10280  3.15082e-11 
ssurf = 1.500040e-03 
    5400   0.06156683    10280  3.15082e-11 
    5401  0.062143803    10280  3.15082e-11 
Loop time of 0.06217 on 1 procs for 100 steps with 10280 atoms

102.9% CPU use with 1 MPI tasks x no OpenMP threads
run 100 pre no post no
Step CPU Atoms biomass 
    5401            0    10280  3.15082e-11 
    5410 0.0072648525    10280  3.15082e-11 
    5420  0.012624979    10280  3.15082e-11 
    5430  0.017897844    10280  3.15082e-11 
    5440  0.023192883    10280  3.15082e-11 
    5450  0.029239893    10280  3.15082e-11 
    5460  0.038743019    10280  3.15082e-11 
    5470  0.044059992    10280  3.15082e-11 
    5480  0.049376965    10280  3.15082e-11 
    5490  0.054702044    10280  3.15082e-11 
ssurf = 1.500040e-03 
    5500  0.061918974    10280  3.15082e-11 
    5501  0.062793016    10280  3.15082e-11 
Loop time of 0.062824 on 1 procs for 100 steps with 10280 atoms

101.9% CPU use with 1 MPI tasks x no OpenMP threads
run 100 pre no post no
Step CPU Atoms biomass 
    5501            0    10280  3.15082e-11 
    5510 0.0048451424    10280  3.15082e-11 
    5520   0.01198411    10280  3.15082e-11 
    5530  0.019885063    10280  3.15082e-11 
    5540  0.025196075    10280  3.15082e-11 
    5550   0.03045392    10280  3.15082e-11 
    5560  0.035710096    10280  3.15082e-11 
    5570  0.042686939    10280  3.15082e-11 
    5580   0.05065012    10280  3.15082e-11 
    5590  0.055983067    10280  3.15082e-11 
ssurf = 1.500040e-03 
    5600  0.061248064    10280  3.15082e-11 
    5601  0.061816931    10280  3.15082e-11 
Loop time of 0.0618441 on 1 procs for 100 steps with 10280 atoms

103.5% CPU use with 1 MPI tasks x no OpenMP threads
run 100 pre no post no
Step CPU Atoms biomass 
    5601            0    10280  3.15082e-11 
    5610 0.0054471493    10280  3.15082e-11 
    5620     0.010674    10280  3.15082e-11 
    5630  0.015969992    10280  3.15082e-11 
    5640  0.021213055    10280  3.15082e-11 
    5650   0.02905798    10280  3.15082e-11 
    5660   0.03671813    10280  3.15082e-11 
    5670  0.041995049    10280  3.15082e-11 
    5680  0.047288179    10280  3.15082e-11 
    5690  0.052540064    10280  3.15082e-11 
ssurf = 1.500040e-03 
    5700  0.060739994    10280  3.15082e-11 
    5701  0.062690973    10280  3.15082e-11 
Loop time of 0.062721 on 1 procs for 100 steps with 10280 atoms

95.7% CPU use with 1 MPI tasks x no OpenMP threads
run 100 pre no post no
Step CPU Atoms biomass 
    5701            0    10280  3.15082e-11 
    5710 0.0055978298    10280  3.15082e-11 
    5720  0.015393019    10280  3.15082e-11 
    5730  0.020813942    10280  3.15082e-11 
    5740   0.02609086    10280  3.15082e-11 
    5750  0.031407833    10280  3.15082e-11 
    5760   0.03842783    10280  3.15082e-11 
    5770  0.047025919    10280  3.15082e-11 
    5780  0.052402973    10280  3.15082e-11 
    5790  0.057687998    10280  3.15082e-11 
ssurf = 1.500040e-03 
    5800  0.062968969    10280  3.15082e-11 
    5801  0.063530922    10280  3.15082e-11 
Loop time of 0.0635579 on 1 procs for 100 steps with 10280 atoms

100.7% CPU use with 1 MPI tasks x no OpenMP threads
run 100 pre no post no
Step CPU Atoms biomass 
    5801            0    10280  3.15082e-11 
    5810 0.0084190369    10280  3.15082e-11 
    5820  0.013685942    10280  3.15082e-11 
    5830  0.019036055    10280  3.15082e-11 
    5840  0.024372101    10280  3.15082e-11 
    5850  0.030014038    10280  3.15082e-11 
    5860  0.039309025    10280  3.15082e-11 
    5870  0.044620991    10280  3.15082e-11 
    5880  0.049974918    10280  3.15082e-11 
    5890  0.055387974    10280  3.15082e-11 
ssurf = 1.500040e-03 
    5900  0.061137915    10280  3.15082e-11 
    5901  0.062382936    10280  3.15082e-11 
Loop time of 0.0624199 on 1 procs for 100 steps with 10280 atoms

96.1% CPU use with 1 MPI tasks x no OpenMP threads
run 100 pre no post no
Step CPU Atoms biomass 
    5901            0    10280  3.15082e-11 
    5910 0.0069050789    10280  3.15082e-11 
    5920  0.014828205    10280  3.15082e-11 
    5930  0.020241022    10280  3.15082e-11 
    5940  0.025494099    10280  3.15082e-11 
    5950  0.030742168    10280  3.15082e-11 
    5960  0.040313005    10280  3.15082e-11 
    5970  0.045691013    10280  3.15082e-11 
    5980  0.051002026    10280  3.15082e-11 
    5990  0.056239128    10280  3.15082e-11 
ssurf = 1.500040e-03 
    6000  0.061532021    10280  3.15082e-11 
    6001  0.062124014    10280  3.15082e-11 
Loop time of 0.0621572 on 1 procs for 100 steps with 10280 atoms

103.0% CPU use with 1 MPI tasks x no OpenMP threads
run 100 pre no post no
Step CPU Atoms biomass 
    6001            0    10280  3.15082e-11 
    6010 0.0058131218    10280  3.15082e-11 
    6020  0.011172056    10280  3.15082e-11 
    6030  0.016570091    10280  3.15082e-11 
    6040  0.021806002    10280  3.15082e-11 
    6050  0.029417038    10280  3.15082e-11 
    6060  0.037417173    10280  3.15082e-11 
    6070  0.042726994    10280  3.15082e-11 
    6080  0.048060179    10280  3.15082e-11 
    6090  0.053390026    10280  3.15082e-11 
ssurf = 1.500040e-03 
    6100  0.063112974    10280  3.15082e-11 
    6101  0.063762188    10280  3.15082e-11 
Loop time of 0.0637882 on 1 procs for 100 steps with 10280 atoms

94.1% CPU use with 1 MPI tasks x no OpenMP threads
run 100 pre no post no
Step CPU Atoms biomass 
    6101            0    10280  3.15082e-11 
    6110 0.0087912083    10280  3.15082e-11 
    6120  0.014085054    10280  3.15082e-11 
    6130  0.019394159    10280  3.15082e-11 
    6140  0.024693012    10280  3.15082e-11 
    6150  0.030280113    10280  3.15082e-11 
    6160  0.040199041    10280  3.15082e-11 
    6170  0.045526028    10280  3.15082e-11 
    6180  0.050810099    10280  3.15082e-11 
    6190  0.056061029    10280  3.15082e-11 
ssurf = 1.500040e-03 
    6200  0.062728167    10280  3.15082e-11 
    6201  0.063582182    10280  3.15082e-11 
Loop time of 0.0636122 on 1 procs for 100 steps with 10280 atoms

100.6% CPU use with 1 MPI tasks x no OpenMP threads
run 100 pre no post no
Step CPU Atoms biomass 
    6201            0    10280  3.15082e-11 
    6210 0.0053460598    10280  3.15082e-11 
    6220  0.014887094    10280  3.15082e-11 
    6230  0.020184994    10280  3.15082e-11 
    6240  0.025549173    10280  3.15082e-11 
    6250  0.030795097    10280  3.15082e-11 
    6260  0.036751032    10280  3.15082e-11 
    6270   0.04601717    10280  3.15082e-11 
    6280   0.05115819    10280  3.15082e-11 
    6290   0.05638814    10280  3.15082e-11 
ssurf = 1.500040e-03 
    6300  0.061536074    10280  3.15082e-11 
    6301  0.062092066    10280  3.15082e-11 
Loop time of 0.0621181 on 1 procs for 100 steps with 10280 atoms

103.0% CPU use with 1 MPI tasks x no OpenMP threads
run 100 pre no post no
Step CPU Atoms biomass 
    6301            0    10280  3.15082e-11 
    6310 0.0065641403    10280  3.15082e-11 
    6320   0.01428318    10280  3.15082e-11 
    6330  0.019631147    10280  3.15082e-11 
    6340  0.024902105    10280  3.15082e-11 
    6350  0.030018091    10280  3.15082e-11 
    6360  0.038490057    10280  3.15082e-11 
    6370  0.045227051    10280  3.15082e-11 
    6380  0.050583124    10280  3.15082e-11 
    6390  0.055773973    10280  3.15082e-11 
ssurf = 1.500040e-03 
    6400   0.06093812    10280  3.15082e-11 
    6401  0.061552048    10280  3.15082e-11 
Loop time of 0.061584 on 1 procs for 100 steps with 10280 atoms

97.4% CPU use with 1 MPI tasks x no OpenMP threads
run 100 pre no post no
Step CPU Atoms biomass 
    6401            0    10280  3.15082e-11 
    6410 0.0087571144    10280  3.15082e-11 
    6420  0.014513969    10280  3.15082e-11 
    6430  0.019955158    10280  3.15082e-11 
    6440  0.025102139    10280  3.15082e-11 
    6450  0.030342102    10280  3.15082e-11 
    6460  0.039760113    10280  3.15082e-11 
    6470  0.045094967    10280  3.15082e-11 
    6480  0.050335169    10280  3.15082e-11 
    6490  0.055535078    10280  3.15082e-11 
ssurf = 1.500040e-03 
    6500  0.060891151    10280  3.15082e-11 
    6501  0.061548948    10280  3.15082e-11 
Loop time of 0.061579 on 1 procs for 100 steps with 10280 atoms

90.9% CPU use with 1 MPI tasks x no OpenMP threads
run 100 pre no post no
Step CPU Atoms biomass 
    6501            0    10280  3.15082e-11 
    6510 0.0047791004    10280  3.15082e-11 
    6520  0.014263153    10280  3.15082e-11 
    6530  0.019515991    10280  3.15082e-11 
    6540  0.024836063    10280  3.15082e-11 
    6550  0.029914141    10280  3.15082e-11 
    6560  0.035036087    10280  3.15082e-11 
    6570  0.043920994    10280  3.15082e-11 
    6580   0.05006814    10280  3.15082e-11 
    6590  0.055253029    10280  3.15082e-11 
ssurf = 1.500040e-03 
    6600  0.060522079    10280  3.15082e-11 
    6601   0.06110096    10280  3.15082e-11 
Loop time of 0.0611281 on 1 procs for 100 steps with 10280 atoms

104.7% CPU use with 1 MPI tasks x no OpenMP threads
run 100 pre no post no
Step CPU Atoms biomass 
    6601            0    10280  3.15082e-11 
    6610 0.0082361698    10280  3.15082e-11 
    6620  0.014788151    10280  3.15082e-11 
    6630  0.020027161    10280  3.15082e-11 
    6640  0.025248051    10280  3.15082e-11 
    6650  0.030598164    10280  3.15082e-11 
    6660  0.040205002    10280  3.15082e-11 
    6670  0.045655012    10280  3.15082e-11 
    6680  0.050945997    10280  3.15082e-11 
    6690  0.056128979    10280  3.15082e-11 
ssurf = 1.500040e-03 
    6700  0.061362028    10280  3.15082e-11 
    6701  0.061958075    10280  3.15082e-11 
Loop time of 0.0619991 on 1 procs for 100 steps with 10280 atoms

90.3% CPU use with 1 MPI tasks x no OpenMP threads
run 100 pre no post no
Step CPU Atoms biomass 
    6701            0    10280  3.15082e-11 
    6710 0.0054500103    10280  3.15082e-11 
    6720  0.015216112    10280  3.15082e-11 
    6730    0.0205791    10280  3.15082e-11 
    6740  0.025865078    10280  3.15082e-11 
    6750  0.031135082    10280  3.15082e-11 
    6760  0.038063049    10280  3.15082e-11 
    6770  0.046607018    10280  3.15082e-11 
    6780  0.051925182    10280  3.15082e-11 
    6790  0.057262182    10280  3.15082e-11 
ssurf = 1.500040e-03 
    6800  0.062564135    10280  3.15082e-11 
    6801  0.063136101    10280  3.15082e-11 
Loop time of 0.0631621 on 1 procs for 100 steps with 10280 atoms

101.3% CPU use with 1 MPI tasks x no OpenMP threads
run 100 pre no post no
Step CPU Atoms biomass 
    6801            0    10280  3.15082e-11 
    6810 0.0047399998    10280  3.15082e-11 
    6820  0.011145115    10280  3.15082e-11 
    6830   0.01989007    10280  3.15082e-11 
    6840  0.025195122    10280  3.15082e-11 
    6850   0.03059411    10280  3.15082e-11 
    6860   0.03581214    10280  3.15082e-11 
    6870  0.042440176    10280  3.15082e-11 
    6880  0.050952196    10280  3.15082e-11 
    6890  0.056224108    10280  3.15082e-11 
ssurf = 1.500040e-03 
    6900  0.061885118    10280  3.15082e-11 
    6901  0.062472105    10280  3.15082e-11 
Loop time of 0.0624981 on 1 procs for 100 steps with 10280 atoms

102.4% CPU use with 1 MPI tasks x no OpenMP threads
run 100 pre no post no
Step CPU Atoms biomass 
    6901            0    10280  3.15082e-11 
    6910 0.0055291653    10280  3.15082e-11 
    6920  0.014980078    10280  3.15082e-11 
    6930  0.020292997    10280  3.15082e-11 
    6940  0.025629997    10280  3.15082e-11 
    6950  0.030986071    10280  3.15082e-11 
    6960  0.037559032    10280  3.15082e-11 
    6970  0.046517134    10280  3.15082e-11 
    6980  0.051892042    10280  3.15082e-11 
    6990  0.057296038    10280  3.15082e-11 
ssurf = 1.500040e-03 
    7000  0.062569141    10280  3.15082e-11 
    7001  0.063127041    10280  3.15082e-11 
Loop time of 0.063154 on 1 procs for 100 steps with 10280 atoms

95.0% CPU use with 1 MPI tasks x no OpenMP threads
run 100 pre no post no
Step CPU Atoms biomass 
    7001            0    10280  3.15082e-11 
    7010 0.0052981377    10280  3.15082e-11 
    7020   0.01496315    10280  3.15082e-11 
    7030  0.020334005    10280  3.15082e-11 
    7040  0.025685072    10280  3.15082e-11 
    7050  0.030953169    10280  3.15082e-11 
    7060   0.03671813    10280  3.15082e-11 
    7070  0.046529055    10280  3.15082e-11 
    7080    0.0518682    10280  3.15082e-11 
    7090  0.057115078    10280  3.15082e-11 
ssurf = 1.500040e-03 
    7100  0.062532187    10280  3.15082e-11 
    7101  0.063127995    10280  3.15082e-11 
Loop time of 0.063154 on 1 procs for 100 steps with 10280 atoms

101.3% CPU use with 1 MPI tasks x no OpenMP threads
run 100 pre no post no
Step CPU Atoms biomass 
    7101            0    10280  3.15082e-11 
    7110 0.0048677921    10280  3.15082e-11 
    7120  0.015084982    10280  3.15082e-11 
    7130  0.020423889    10280  3.15082e-11 
    7140  0.025676012    10280  3.15082e-11 
    7150  0.031087875    10280  3.15082e-11 
    7160  0.036798954    10280  3.15082e-11 
    7170  0.046222925    10280  3.15082e-11 
    7180  0.051657915    10280  3.15082e-11 
    7190  0.056890965    10280  3.15082e-11 
ssurf = 1.500040e-03 
    7200   0.06217885    10280  3.15082e-11 
    7201   0.06278491    10280  3.15082e-11 
Loop time of 0.0628099 on 1 procs for 100 steps with 10280 atoms

101.9% CPU use with 1 MPI tasks x no OpenMP threads
run 100 pre no post no
Step CPU Atoms biomass 
    7201            0    10280  3.15082e-11 
    7210 0.0052640438    10280  3.15082e-11 
    7220  0.014933825    10280  3.15082e-11 
    7230  0.020400047    10280  3.15082e-11 
    7240  0.025625944    10280  3.15082e-11 
    7250  0.030910969    10280  3.15082e-11 
    7260  0.036844015    10280  3.15082e-11 
    7270  0.046282053    10280  3.15082e-11 
    7280   0.05180192    10280  3.15082e-11 
    7290  0.057116032    10280  3.15082e-11 
ssurf = 1.500040e-03 
    7300  0.062474012    10280  3.15082e-11 
    7301  0.063042879    10280  3.15082e-11 
Loop time of 0.0630679 on 1 procs for 100 steps with 10280 atoms

101.5% CPU use with 1 MPI tasks x no OpenMP threads
run 100 pre no post no
Step CPU Atoms biomass 
    7301            0    10280  3.15082e-11 
    7310 0.0068509579    10280  3.15082e-11 
    7320  0.015048027    10280  3.15082e-11 
    7330  0.020289898    10280  3.15082e-11 
    7340  0.025578976    10280  3.15082e-11 
    7350  0.030855894    10280  3.15082e-11 
    7360  0.038374901    10280  3.15082e-11 
    7370  0.046356916    10280  3.15082e-11 
    7380   0.05175209    10280  3.15082e-11 
    7390  0.056989908    10280  3.15082e-11 
ssurf = 1.500040e-03 
    7400  0.062229872    10280  3.15082e-11 
    7401  0.062824011    10280  3.15082e-11 
Loop time of 0.062856 on 1 procs for 100 steps with 10280 atoms

101.8% CPU use with 1 MPI tasks x no OpenMP threads
run 100 pre no post no
Step CPU Atoms biomass 
    7401            0    10280  3.15082e-11 
    7410 0.0051410198    10280  3.15082e-11 
    7420  0.014955997    10280  3.15082e-11 
    7430  0.020245075    10280  3.15082e-11 
    7440  0.025646925    10280  3.15082e-11 
    7450  0.030963898    10280  3.15082e-11 
    7460  0.037226915    10280  3.15082e-11 
    7470   0.04586792    10280  3.15082e-11 
    7480  0.051129103    10280  3.15082e-11 
    7490  0.056499004    10280  3.15082e-11 
ssurf = 1.500040e-03 
    7500  0.061809063    10280  3.15082e-11 
    7501  0.062375069    10280  3.15082e-11 
Loop time of 0.0624011 on 1 procs for 100 steps with 10280 atoms

96.2% CPU use with 1 MPI tasks x no OpenMP threads
run 100 pre no post no
Step CPU Atoms biomass 
    7501            0    10280  3.15082e-11 
    7510 0.0047850609    10280  3.15082e-11 
    7520  0.014832973    10280  3.15082e-11 
    7530  0.020030022    10280  3.15082e-11 
    7540  0.025258064    10280  3.15082e-11 
    7550  0.030560017    10280  3.15082e-11 
    7560  0.036385059    10280  3.15082e-11 
    7570  0.046164036    10280  3.15082e-11 
    7580  0.051432133    10280  3.15082e-11 
    7590  0.056529999    10280  3.15082e-11 
ssurf = 1.500040e-03 
    7600  0.061880112    10280  3.15082e-11 
    7601  0.062445164    10280  3.15082e-11 
Loop time of 0.0624712 on 1 procs for 100 steps with 10280 atoms

96.0% CPU use with 1 MPI tasks x no OpenMP threads
run 100 pre no post no
Step CPU Atoms biomass 
    7601            0    10280  3.15082e-11 
    7610 0.0063788891    10280  3.15082e-11 
    7620   0.01441288    10280  3.15082e-11 
    7630     0.019768    10280  3.15082e-11 
    7640  0.025038004    10280  3.15082e-11 
    7650  0.030377865    10280  3.15082e-11 
    7660  0.037767887    10280  3.15082e-11 
    7670  0.045682907    10280  3.15082e-11 
    7680  0.051127911    10280  3.15082e-11 
    7690  0.056483984    10280  3.15082e-11 
ssurf = 1.500040e-03 
    7700  0.061959028    10280  3.15082e-11 
    7701  0.062635899    10280  3.15082e-11 
Loop time of 0.062685 on 1 procs for 100 steps with 10280 atoms

95.7% CPU use with 1 MPI tasks x no OpenMP threads
run 100 pre no post no
Step CPU Atoms biomass 
    7701            0    10280  3.15082e-11 
    7710 0.0052258968    10280  3.15082e-11 
    7720  0.014753103    10280  3.15082e-11 
    7730  0.020081997    10280  3.15082e-11 
    7740  0.025440931    10280  3.15082e-11 
    7750  0.030694008    10280  3.15082e-11 
    7760   0.03627491    10280  3.15082e-11 
    7770  0.045443058    10280  3.15082e-11 
    7780   0.05086112    10280  3.15082e-11 
    7790  0.056221008    10280  3.15082e-11 
ssurf = 1.500040e-03 
    7800  0.061562061    10280  3.15082e-11 
    7801  0.062129021    10280  3.15082e-11 
Loop time of 0.0621569 on 1 procs for 100 steps with 10280 atoms

103.0% CPU use with 1 MPI tasks x no OpenMP threads
run 100 pre no post no
Step CPU Atoms biomass 
    7801            0    10280  3.15082e-11 
    7810 0.0064170361    10280  3.15082e-11 
    7820  0.014081955    10280  3.15082e-11 
    7830  0.019354105    10280  3.15082e-11 
    7840   0.02483511    10280  3.15082e-11 
    7850  0.030125141    10280  3.15082e-11 
    7860  0.039916039    10280  3.15082e-11 
    7870  0.045432091    10280  3.15082e-11 
    7880  0.050750017    10280  3.15082e-11 
    7890  0.056201935    10280  3.15082e-11 
ssurf = 1.500040e-03 
    7900  0.061775923    10280  3.15082e-11 
    7901  0.062422991    10280  3.15082e-11 
Loop time of 0.062453 on 1 procs for 100 steps with 10280 atoms

102.5% CPU use with 1 MPI tasks x no OpenMP threads
run 100 pre no post no
Step CPU Atoms biomass 
    7901            0    10280  3.15082e-11 
    7910 0.0064690113    10280  3.15082e-11 
    7920  0.014199018    10280  3.15082e-11 
    7930  0.019490957    10280  3.15082e-11 
    7940   0.02481389    10280  3.15082e-11 
    7950  0.030116081    10280  3.15082e-11 
    7960  0.039258003    10280  3.15082e-11 
    7970  0.044832945    10280  3.15082e-11 
    7980  0.050080061    10280  3.15082e-11 
    7990   0.05531311    10280  3.15082e-11 
ssurf = 1.500040e-03 
    8000  0.060384989    10280  3.15082e-11 
    8001  0.060992956    10280  3.15082e-11 
Loop time of 0.0610211 on 1 procs for 100 steps with 10280 atoms

104.9% CPU use with 1 MPI tasks x no OpenMP threads
run 100 pre no post no
Step CPU Atoms biomass 
    8001            0    10280  3.15082e-11 
    8010 0.0059719086    10280  3.15082e-11 
    8020  0.011239052    10280  3.15082e-11 
    8030  0.016522884    10280  3.15082e-11 
    8040   0.02174902    10280  3.15082e-11 
    8050  0.029397011    10280  3.15082e-11 
    8060  0.037220001    10280  3.15082e-11 
    8070  0.042675972    10280  3.15082e-11 
    8080  0.047886848    10280  3.15082e-11 
    8090  0.053187847    10280  3.15082e-11 
ssurf = 1.500040e-03 
    8100  0.062954903    10280  3.15082e-11 
    8101  0.063576937    10280  3.15082e-11 
Loop time of 0.0636029 on 1 procs for 100 steps with 10280 atoms

100.6% CPU use with 1 MPI tasks x no OpenMP threads
run 100 pre no post no
Step CPU Atoms biomass 
    8101            0    10280  3.15082e-11 
    8110 0.0072319508    10280  3.15082e-11 
    8120  0.014549017    10280  3.15082e-11 
    8130  0.019834995    10280  3.15082e-11 
    8140  0.025157928    10280  3.15082e-11 
    8150  0.030617952    10280  3.15082e-11 
    8160  0.040271997    10280  3.15082e-11 
    8170  0.045799017    10280  3.15082e-11 
    8180  0.051069021    10280  3.15082e-11 
    8190  0.056333065    10280  3.15082e-11 
ssurf = 1.500040e-03 
    8200   0.06191802    10280  3.15082e-11 
    8201   0.06272006    10280  3.15082e-11 
Loop time of 0.062758 on 1 procs for 100 steps with 10280 atoms

95.6% CPU use with 1 MPI tasks x no OpenMP threads
run 100 pre no post no
Step CPU Atoms biomass 
    8201            0    10280  3.15082e-11 
    8210 0.0054030418    10280  3.15082e-11 
    8220  0.014657021    10280  3.15082e-11 
    8230  0.019929886    10280  3.15082e-11 
    8240  0.025336027    10280  3.15082e-11 
    8250  0.030575037    10280  3.15082e-11 
    8260  0.036902905    10280  3.15082e-11 
    8270  0.045881033    10280  3.15082e-11 
    8280  0.051162004    10280  3.15082e-11 
    8290  0.056473017    10280  3.15082e-11 
ssurf = 1.500040e-03 
    8300  0.061794996    10280  3.15082e-11 
    8301  0.062360048    10280  3.15082e-11 
Loop time of 0.0623879 on 1 procs for 100 steps with 10280 atoms

102.6% CPU use with 1 MPI tasks x no OpenMP threads
run 100 pre no post no
Step CPU Atoms biomass 
    8301            0    10280  3.15082e-11 
    8310 0.0051810741    10280  3.15082e-11 
    8320  0.014668941    10280  3.15082e-11 
    8330   0.01996398    10280  3.15082e-11 
    8340  0.025377035    10280  3.15082e-11 
    8350   0.03062892    10280  3.15082e-11 
    8360  0.036861897    10280  3.15082e-11 
    8370  0.045985937    10280  3.15082e-11 
    8380  0.051306963    10280  3.15082e-11 
    8390  0.056562901    10280  3.15082e-11 
ssurf = 1.500040e-03 
    8400  0.061851025    10280  3.15082e-11 
    8401  0.062413931    10280  3.15082e-11 
Loop time of 0.062454 on 1 procs for 100 steps with 10280 atoms

102.5% CPU use with 1 MPI tasks x no OpenMP threads
run 100 pre no post no
Step CPU Atoms biomass 
    8401            0    10280  3.15082e-11 
    8410  0.005218029    10280  3.15082e-11 
    8420  0.014932156    10280  3.15082e-11 
    8430  0.020370007    10280  3.15082e-11 
    8440  0.025580168    10280  3.15082e-11 
    8450  0.030895948    10280  3.15082e-11 
    8460  0.037348986    10280  3.15082e-11 
    8470  0.046544075    10280  3.15082e-11 
    8480  0.051989079    10280  3.15082e-11 
    8490  0.057229042    10280  3.15082e-11 
ssurf = 1.500040e-03 
    8500  0.062548161    10280  3.15082e-11 
    8501  0.063123941    10280  3.15082e-11 
Loop time of 0.0631502 on 1 procs for 100 steps with 10280 atoms

101.3% CPU use with 1 MPI tasks x no OpenMP threads
run 100 pre no post no
Step CPU Atoms biomass 
    8501            0    10280  3.15082e-11 
    8510 0.0048940182    10280  3.15082e-11 
    8520  0.014579058    10280  3.15082e-11 
    8530  0.019984961    10280  3.15082e-11 
    8540  0.025338173    10280  3.15082e-11 
    8550  0.030555964    10280  3.15082e-11 
    8560  0.036003113    10280  3.15082e-11 
    8570   0.04551506    10280  3.15082e-11 
    8580  0.050851107    10280  3.15082e-11 
    8590   0.05619812    10280  3.15082e-11 
ssurf = 1.500040e-03 
    8600  0.061473131    10280  3.15082e-11 
    8601   0.06204915    10280  3.15082e-11 
Loop time of 0.062078 on 1 procs for 100 steps with 10280 atoms

96.7% CPU use with 1 MPI tasks x no OpenMP threads
run 100 pre no post no
Step CPU Atoms biomass 
    8601            0    10280  3.15082e-11 
    8610 0.0052709579    10280  3.15082e-11 
    8620  0.015413046    10280  3.15082e-11 
    8630  0.020725012    10280  3.15082e-11 
    8640  0.026046991    10280  3.15082e-11 
    8650  0.031404018    10280  3.15082e-11 
    8660   0.03776288    10280  3.15082e-11 
    8670  0.046561003    10280  3.15082e-11 
    8680  0.051867008    10280  3.15082e-11 
    8690  0.057060003    10280  3.15082e-11 
ssurf = 1.500040e-03 
    8700  0.062350035    10280  3.15082e-11 
    8701  0.062906981    10280  3.15082e-11 
Loop time of 0.062933 on 1 procs for 100 steps with 10280 atoms

101.7% CPU use with 1 MPI tasks x no OpenMP threads
run 100 pre no post no
Step CPU Atoms biomass 
    8701            0    10280  3.15082e-11 
    8710  0.005065918    10280  3.15082e-11 
    8720  0.014503956    10280  3.15082e-11 
    8730  0.019848108    10280  3.15082e-11 
    8740  0.025245905    10280  3.15082e-11 
    8750  0.030502081    10280  3.15082e-11 
    8760  0.037081957    10280  3.15082e-11 
    8770  0.045975924    10280  3.15082e-11 
    8780  0.051259041    10280  3.15082e-11 
    8790  0.056545019    10280  3.15082e-11 
ssurf = 1.500040e-03 
    8800  0.061881065    10280  3.15082e-11 
    8801  0.062476873    10280  3.15082e-11 
Loop time of 0.0625041 on 1 procs for 100 steps with 10280 atoms

102.4% CPU use with 1 MPI tasks x no OpenMP threads
run 100 pre no post no
Step CPU Atoms biomass 
    8801            0    10280  3.15082e-11 
    8810 0.0049278736    10280  3.15082e-11 
    8820  0.012120962    10280  3.15082e-11 
    8830  0.019984961    10280  3.15082e-11 
    8840  0.025317907    10280  3.15082e-11 
    8850  0.030648947    10280  3.15082e-11 
    8860  0.035809994    10280  3.15082e-11 
    8870  0.043116093    10280  3.15082e-11 
    8880  0.050975084    10280  3.15082e-11 
    8890   0.05617404    10280  3.15082e-11 
ssurf = 1.500040e-03 
    8900  0.061631918    10280  3.15082e-11 
    8901  0.062225103    10280  3.15082e-11 
Loop time of 0.062253 on 1 procs for 100 steps with 10280 atoms

96.4% CPU use with 1 MPI tasks x no OpenMP threads
run 100 pre no post no
Step CPU Atoms biomass 
    8901            0    10280  3.15082e-11 
    8910 0.0089950562    10280  3.15082e-11 
    8920  0.014304876    10280  3.15082e-11 
    8930  0.019630909    10280  3.15082e-11 
    8940  0.024855852    10280  3.15082e-11 
    8950  0.030702829    10280  3.15082e-11 
    8960  0.040381908    10280  3.15082e-11 
    8970  0.045737982    10280  3.15082e-11 
    8980  0.051054955    10280  3.15082e-11 
    8990  0.056313992    10280  3.15082e-11 
ssurf = 1.500040e-03 
    9000  0.062897921    10280  3.15082e-11 
    9001  0.063829899    10280  3.15082e-11 
Loop time of 0.063859 on 1 procs for 100 steps with 10280 atoms

100.2% CPU use with 1 MPI tasks x no OpenMP threads
run 100 pre no post no
Step CPU Atoms biomass 
    9001            0    10280  3.15082e-11 
    9010 0.0086472034    10280  3.15082e-11 
    9020  0.015516996    10280  3.15082e-11 
    9030  0.020848036    10280  3.15082e-11 
    9040  0.026082993    10280  3.15082e-11 
    9050  0.031419992    10280  3.15082e-11 
    9060  0.040924072    10280  3.15082e-11 
    9070   0.04630518    10280  3.15082e-11 
    9080  0.051571131    10280  3.15082e-11 
    9090  0.056778193    10280  3.15082e-11 
ssurf = 1.500040e-03 
    9100  0.062276125    10280  3.15082e-11 
    9101  0.063158035    10280  3.15082e-11 
Loop time of 0.0631931 on 1 procs for 100 steps with 10280 atoms

101.3% CPU use with 1 MPI tasks x no OpenMP threads
run 100 pre no post no
Step CPU Atoms biomass 
    9101            0    10280  3.15082e-11 
    9110 0.0065598488    10280  3.15082e-11 
    9120  0.011927843    10280  3.15082e-11 
    9130  0.017239809    10280  3.15082e-11 
    9140  0.022598028    10280  3.15082e-11 
    9150  0.029625893    10280  3.15082e-11 
    9160   0.03805089    10280  3.15082e-11 
    9170  0.043375969    10280  3.15082e-11 
    9180  0.048820019    10280  3.15082e-11 
    9190  0.054170847    10280  3.15082e-11 
ssurf = 1.500040e-03 
    9200  0.062129021    10280  3.15082e-11 
    9201  0.064073801    10280  3.15082e-11 
Loop time of 0.0642259 on 1 procs for 100 steps with 10280 atoms

99.6% CPU use with 1 MPI tasks x no OpenMP threads
run 100 pre no post no
Step CPU Atoms biomass 
    9201            0    10280  3.15082e-11 
    9210 0.0055069923    10280  3.15082e-11 
    9220  0.015230894    10280  3.15082e-11 
    9230  0.020620823    10280  3.15082e-11 
    9240  0.025914907    10280  3.15082e-11 
    9250  0.031372786    10280  3.15082e-11 
    9260   0.03827095    10280  3.15082e-11 
    9270   0.04693985    10280  3.15082e-11 
    9280  0.052286863    10280  3.15082e-11 
    9290  0.057496786    10280  3.15082e-11 
ssurf = 1.500040e-03 
    9300  0.062708855    10280  3.15082e-11 
    9301  0.063296795    10280  3.15082e-11 
Loop time of 0.0633249 on 1 procs for 100 steps with 10280 atoms

101.1% CPU use with 1 MPI tasks x no OpenMP threads
run 100 pre no post no
Step CPU Atoms biomass 
    9301            0    10280  3.15082e-11 
    9310 0.0046579838    10280  3.15082e-11 
    9320  0.014508963    10280  3.15082e-11 
    9330   0.02011013    10280  3.15082e-11 
    9340  0.025341988    10280  3.15082e-11 
    9350  0.030448914    10280  3.15082e-11 
    9360  0.035547018    10280  3.15082e-11 
    9370  0.045575142    10280  3.15082e-11 
    9380  0.051100016    10280  3.15082e-11 
    9390   0.05644393    10280  3.15082e-11 
ssurf = 1.500040e-03 
    9400  0.061794996    10280  3.15082e-11 
    9401  0.062396049    10280  3.15082e-11 
Loop time of 0.0624239 on 1 procs for 100 steps with 10280 atoms

96.1% CPU use with 1 MPI tasks x no OpenMP threads
run 100 pre no post no
Step CPU Atoms biomass 
    9401            0    10280  3.15082e-11 
    9410 0.0062530041    10280  3.15082e-11 
    9420  0.015365839    10280  3.15082e-11 
    9430  0.020599842    10280  3.15082e-11 
    9440  0.026000977    10280  3.15082e-11 
    9450  0.031211853    10280  3.15082e-11 
    9460  0.038610935    10280  3.15082e-11 
    9470  0.046772003    10280  3.15082e-11 
    9480  0.051996946    10280  3.15082e-11 
    9490  0.057446003    10280  3.15082e-11 
ssurf = 1.500040e-03 
    9500  0.062801838    10280  3.15082e-11 
    9501  0.063407898    10280  3.15082e-11 
Loop time of 0.0634398 on 1 procs for 100 steps with 10280 atoms

100.9% CPU use with 1 MPI tasks x no OpenMP threads
run 100 pre no post no
Step CPU Atoms biomass 
    9501            0    10280  3.15082e-11 
    9510  0.004753828    10280  3.15082e-11 
    9520  0.012034893    10280  3.15082e-11 
    9530   0.01987505    10280  3.15082e-11 
    9540  0.025295019    10280  3.15082e-11 
    9550  0.030616999    10280  3.15082e-11 
    9560  0.035818815    10280  3.15082e-11 
    9570   0.04311204    10280  3.15082e-11 
    9580  0.051089048    10280  3.15082e-11 
    9590  0.056491852    10280  3.15082e-11 
ssurf = 1.500040e-03 
    9600  0.061913013    10280  3.15082e-11 
    9601  0.062527895    10280  3.15082e-11 
Loop time of 0.0625808 on 1 procs for 100 steps with 10280 atoms

95.9% CPU use with 1 MPI tasks x no OpenMP threads
run 100 pre no post no
Step CPU Atoms biomass 
    9601            0    10280  3.15082e-11 
    9610 0.0051751137    10280  3.15082e-11 
    9620  0.014793158    10280  3.15082e-11 
    9630  0.020034075    10280  3.15082e-11 
    9640   0.02531004    10280  3.15082e-11 
    9650  0.030683041    10280  3.15082e-11 
    9660  0.036613941    10280  3.15082e-11 
    9670  0.046030998    10280  3.15082e-11 
    9680  0.051319122    10280  3.15082e-11 
    9690   0.05659914    10280  3.15082e-11 
ssurf = 1.500040e-03 
    9700   0.06202507    10280  3.15082e-11 
    9701   0.06259203    10280  3.15082e-11 
Loop time of 0.062633 on 1 procs for 100 steps with 10280 atoms

102.2% CPU use with 1 MPI tasks x no OpenMP threads
run 100 pre no post no
Step CPU Atoms biomass 
    9701            0    10280  3.15082e-11 
    9710  0.004817009    10280  3.15082e-11 
    9720  0.012223959    10280  3.15082e-11 
    9730  0.020149946    10280  3.15082e-11 
    9740  0.025424957    10280  3.15082e-11 
    9750  0.030802965    10280  3.15082e-11 
    9760  0.036030054    10280  3.15082e-11 
    9770  0.045927048    10280  3.15082e-11 
    9780  0.051361084    10280  3.15082e-11 
    9790  0.056695938    10280  3.15082e-11 
ssurf = 1.500040e-03 
    9800  0.062066078    10280  3.15082e-11 
    9801  0.062627077    10280  3.15082e-11 
Loop time of 0.0626531 on 1 procs for 100 steps with 10280 atoms

95.8% CPU use with 1 MPI tasks x no OpenMP threads
run 100 pre no post no
Step CPU Atoms biomass 
    9801            0    10280  3.15082e-11 
    9810 0.0092580318    10280  3.15082e-11 
    9820  0.015607119    10280  3.15082e-11 
    9830  0.021003962    10280  3.15082e-11 
    9840  0.026252985    10280  3.15082e-11 
    9850  0.031677961    10280  3.15082e-11 
    9860  0.040997982    10280  3.15082e-11 
    9870  0.046306133    10280  3.15082e-11 
    9880  0.051592112    10280  3.15082e-11 
    9890  0.056859016    10280  3.15082e-11 
ssurf = 1.500040e-03 
    9900  0.062361002    10280  3.15082e-11 
    9901  0.063018084    10280  3.15082e-11 
Loop time of 0.0630472 on 1 procs for 100 steps with 10280 atoms

101.5% CPU use with 1 MPI tasks x no OpenMP threads
run 100 pre no post no
Step CPU Atoms biomass 
    9901            0    10280  3.15082e-11 
    9910 0.0068278313    10280  3.15082e-11 
    9920  0.014687061    10280  3.15082e-11 
    9930  0.020040035    10280  3.15082e-11 
    9940   0.02560401    10280  3.15082e-11 
    9950  0.030784845    10280  3.15082e-11 
    9960   0.04052496    10280  3.15082e-11 
    9970  0.046074867    10280  3.15082e-11 
    9980  0.051383972    10280  3.15082e-11 
    9990  0.056660891    10280  3.15082e-11 
ssurf = 1.500040e-03 
   10000  0.062193871    10280  3.15082e-11 
   10001  0.062830925    10280  3.15082e-11 
Loop time of 0.06286 on 1 procs for 100 steps with 10280 atoms

101.8% CPU use with 1 MPI tasks x no OpenMP threads
run 1 pre no post no
Step CPU Atoms biomass 
   10001            0    10280  3.15082e-11 
number of iterations: 85885 
   10002    191.60326    10280  3.15082e-11 
Loop time of 191.603 on 1 procs for 1 steps with 10280 atoms

100.0% CPU use with 1 MPI tasks x no OpenMP threads
run 100 pre no post no
Step CPU Atoms biomass 
   10002            0    10280  3.15082e-11 
   10010 0.0042281151    10280  3.15082e-11 
   10020 0.0093691349    10280  3.15082e-11 
   10030  0.014501095    10280  3.15082e-11 
   10040  0.019612074    10280  3.15082e-11 
   10050  0.030033112    10280  3.15082e-11 
   10060  0.035336018    10280  3.15082e-11 
   10070  0.040459156    10280  3.15082e-11 
   10080  0.045656204    10280  3.15082e-11 
   10090  0.050800085    10280  3.15082e-11 
ssurf = 1.517441e-03 
   10100  0.061383009    10280  3.15082e-11 
   10102  0.062497139    10280  3.15082e-11 
Loop time of 0.062525 on 1 procs for 100 steps with 10280 atoms

96.0% CPU use with 1 MPI tasks x no OpenMP threads
run 100 pre no post no
Step CPU Atoms biomass 
   10102            0    10280  3.15082e-11 
   10110 0.0090920925    10280  3.15082e-11 
   10120   0.01453805    10280  3.15082e-11 
   10130  0.019824982    10280  3.15082e-11 
   10140  0.025010109    10280  3.15082e-11 
   10150  0.031169176    10280  3.15082e-11 
   10160  0.040400028    10280  3.15082e-11 
   10170   0.04578805    10280  3.15082e-11 
   10180  0.051086187    10280  3.15082e-11 
   10190  0.056344032    10280  3.15082e-11 
ssurf = 1.517441e-03 
   10200  0.062906981    10280  3.15082e-11 
   10202  0.064872026    10280  3.15082e-11 
Loop time of 0.0649071 on 1 procs for 100 steps with 10280 atoms

98.6% CPU use with 1 MPI tasks x no OpenMP threads
run 100 pre no post no
Step CPU Atoms biomass 
   10202            0    10280  3.15082e-11 
   10210 0.0096850395    10280  3.15082e-11 
   10220  0.015177965    10280  3.15082e-11 
   10230  0.020430088    10280  3.15082e-11 
   10240  0.025804996    10280  3.15082e-11 
   10250  0.032253981    10280  3.15082e-11 
   10260  0.041508913    10280  3.15082e-11 
   10270  0.046736002    10280  3.15082e-11 
   10280  0.051948071    10280  3.15082e-11 
   10290  0.057241917    10280  3.15082e-11 
ssurf = 1.517441e-03 
   10300  0.064457893    10280  3.15082e-11 
   10302  0.066272974    10280  3.15082e-11 
Loop time of 0.0663841 on 1 procs for 100 steps with 10280 atoms

96.4% CPU use with 1 MPI tasks x no OpenMP threads
run 100 pre no post no
Step CPU Atoms biomass 
   10302            0    10280  3.15082e-11 
   10310 0.0045552254    10280  3.15082e-11 
   10320  0.009761095    10280  3.15082e-11 
   10330  0.015191078    10280  3.15082e-11 
   10340  0.024956226    10280  3.15082e-11 
   10350  0.030238152    10280  3.15082e-11 
   10360  0.035488129    10280  3.15082e-11 
   10370  0.040718079    10280  3.15082e-11 
   10380   0.04611516    10280  3.15082e-11 
   10390  0.055558205    10280  3.15082e-11 
ssurf = 1.517441e-03 
   10400  0.060886145    10280  3.15082e-11 
   10402  0.061980009    10280  3.15082e-11 
Loop time of 0.0620091 on 1 procs for 100 steps with 10280 atoms

96.8% CPU use with 1 MPI tasks x no OpenMP threads
run 100 pre no post no
Step CPU Atoms biomass 
   10402            0    10280  3.15082e-11 
   10410 0.0086181164    10280  3.15082e-11 
   10420  0.013998032    10280  3.15082e-11 
   10430  0.019198179    10280  3.15082e-11 
   10440  0.024445057    10280  3.15082e-11 
   10450  0.029663086    10280  3.15082e-11 
   10460  0.038635969    10280  3.15082e-11 
   10470  0.044948101    10280  3.15082e-11 
   10480  0.050318003    10280  3.15082e-11 
   10490  0.055612087    10280  3.15082e-11 
ssurf = 1.517441e-03 
   10500  0.061120987    10280  3.15082e-11 
[...]
   83870  0.036823034    10280  3.15082e-11 
   83880  0.042520046    10280  3.15082e-11 
   83890  0.049435139    10280  3.15082e-11 
ssurf = 2.946750e-03 
   83900  0.054736137    10280  3.15082e-11 
   83909  0.061661959    10280  3.15082e-11 
Loop time of 0.0617201 on 1 procs for 100 steps with 10280 atoms

90.7% CPU use with 1 MPI tasks x no OpenMP threads
run 100 pre no post no
Step CPU Atoms biomass 
   83909            0    10280  3.15082e-11 
   83910 0.00063920021    10280  3.15082e-11 
   83920 0.0058920383    10280  3.15082e-11 
   83930  0.012952089    10280  3.15082e-11 
   83940  0.018439054    10280  3.15082e-11 
   83950  0.023749113    10280  3.15082e-11 
   83960  0.030444145    10280  3.15082e-11 
   83970  0.036041021    10280  3.15082e-11 
   83980  0.041347027    10280  3.15082e-11 
   83990  0.048169136    10280  3.15082e-11 
ssurf = 2.946750e-03 
   84000  0.053449154    10280  3.15082e-11 
   84009  0.058200121    10280  3.15082e-11 
Loop time of 0.0582361 on 1 procs for 100 steps with 10280 atoms

103.0% CPU use with 1 MPI tasks x no OpenMP threads
run 100 pre no post no
Step CPU Atoms biomass 
   84009            0    10280  3.15082e-11 
   84010 0.00067591667    10280  3.15082e-11 
   84020 0.0059049129    10280  3.15082e-11 
   84030  0.013294935    10280  3.15082e-11 
   84040  0.018612862    10280  3.15082e-11 
   84050  0.024142981    10280  3.15082e-11 
   84060  0.031056881    10280  3.15082e-11 
   84070  0.036304951    10280  3.15082e-11 
   84080   0.04179883    10280  3.15082e-11 
   84090  0.048647881    10280  3.15082e-11 
ssurf = 2.946750e-03 
   84100  0.053994894    10280  3.15082e-11 
   84109  0.058780909    10280  3.15082e-11 
Loop time of 0.0588129 on 1 procs for 100 steps with 10280 atoms

102.0% CPU use with 1 MPI tasks x no OpenMP threads
run 100 pre no post no
Step CPU Atoms biomass 
   84109            0    10280  3.15082e-11 
   84110 0.00064611435    10280  3.15082e-11 
   84120 0.0058960915    10280  3.15082e-11 
   84130  0.013148069    10280  3.15082e-11 
   84140  0.018489122    10280  3.15082e-11 
   84150  0.023782969    10280  3.15082e-11 
   84160  0.031089067    10280  3.15082e-11 
   84170  0.036350012    10280  3.15082e-11 
   84180  0.041961193    10280  3.15082e-11 
   84190  0.049015045    10280  3.15082e-11 
ssurf = 2.946750e-03 
   84200  0.054354191    10280  3.15082e-11 
   84209  0.059051037    10280  3.15082e-11 
Loop time of 0.059082 on 1 procs for 100 steps with 10280 atoms

94.8% CPU use with 1 MPI tasks x no OpenMP threads
run 100 pre no post no
Step CPU Atoms biomass 
   84209            0    10280  3.15082e-11 
   84210 0.00065994263    10280  3.15082e-11 
   84220 0.0064649582    10280  3.15082e-11 
   84230  0.013741016    10280  3.15082e-11 
   84240  0.020112038    10280  3.15082e-11 
   84250  0.027544975    10280  3.15082e-11 
   84260  0.033396959    10280  3.15082e-11 
   84270   0.03927803    10280  3.15082e-11 
   84280  0.046618938    10280  3.15082e-11 
   84290  0.052553892    10280  3.15082e-11 
ssurf = 2.946750e-03 
   84300  0.059255838    10280  3.15082e-11 
   84309  0.065913916    10280  3.15082e-11 
Loop time of 0.0659521 on 1 procs for 100 steps with 10280 atoms

103.1% CPU use with 1 MPI tasks x no OpenMP threads
run 100 pre no post no
Step CPU Atoms biomass 
   84309            0    10280  3.15082e-11 
   84310 0.0017771721    10280  3.15082e-11 
   84320  0.012959003    10280  3.15082e-11 
   84330  0.023326159    10280  3.15082e-11 
   84340  0.031938076    10280  3.15082e-11 
   84350  0.046813965    10280  3.15082e-11 
   84360  0.052599192    10280  3.15082e-11 
   84370  0.061079025    10280  3.15082e-11 
   84380   0.06667614    10280  3.15082e-11 
   84390  0.074540138    10280  3.15082e-11 
ssurf = 2.946750e-03 
   84400  0.080837965    10280  3.15082e-11 
   84409  0.086111069    10280  3.15082e-11 
Loop time of 0.086149 on 1 procs for 100 steps with 10280 atoms

97.5% CPU use with 1 MPI tasks x no OpenMP threads
run 100 pre no post no
Step CPU Atoms biomass 
   84409            0    10280  3.15082e-11 
   84410 0.00065588951    10280  3.15082e-11 
   84420 0.0067548752    10280  3.15082e-11 
   84430  0.014261007    10280  3.15082e-11 
   84440  0.020426035    10280  3.15082e-11 
   84450  0.026385069    10280  3.15082e-11 
   84460  0.033329964    10280  3.15082e-11 
   84470  0.038725853    10280  3.15082e-11 
   84480  0.045763969    10280  3.15082e-11 
   84490  0.051274061    10280  3.15082e-11 
ssurf = 2.946750e-03 
   84500  0.056690931    10280  3.15082e-11 
   84509  0.064054966    10280  3.15082e-11 
Loop time of 0.064096 on 1 procs for 100 steps with 10280 atoms

99.9% CPU use with 1 MPI tasks x no OpenMP threads
run 100 pre no post no
Step CPU Atoms biomass 
   84509            0    10280  3.15082e-11 
   84510 0.0014560223    10280  3.15082e-11 
   84520 0.0083370209    10280  3.15082e-11 
   84530  0.021731138    10280  3.15082e-11 
   84540  0.027297974    10280  3.15082e-11 
   84550  0.034451008    10280  3.15082e-11 
   84560  0.040096045    10280  3.15082e-11 
   84570  0.045953989    10280  3.15082e-11 
   84580  0.053261042    10280  3.15082e-11 
   84590  0.058624983    10280  3.15082e-11 
ssurf = 2.946750e-03 
   84600  0.064017057    10280  3.15082e-11 
   84609  0.069266081    10280  3.15082e-11 
Loop time of 0.069303 on 1 procs for 100 steps with 10280 atoms

98.1% CPU use with 1 MPI tasks x no OpenMP threads
run 100 pre no post no
Step CPU Atoms biomass 
   84609            0    10280  3.15082e-11 
   84610 0.00065302849    10280  3.15082e-11 
   84620 0.0058739185    10280  3.15082e-11 
   84630  0.012418032    10280  3.15082e-11 
   84640  0.018111944    10280  3.15082e-11 
   84650  0.025595903    10280  3.15082e-11 
   84660  0.035407066    10280  3.15082e-11 
   84670  0.041388035    10280  3.15082e-11 
   84680   0.04699111    10280  3.15082e-11 
   84690  0.054210901    10280  3.15082e-11 
ssurf = 2.946750e-03 
   84700  0.059500933    10280  3.15082e-11 
   84709  0.064304113    10280  3.15082e-11 
Loop time of 0.0643351 on 1 procs for 100 steps with 10280 atoms

99.5% CPU use with 1 MPI tasks x no OpenMP threads
run 100 pre no post no
Step CPU Atoms biomass 
   84709            0    10280  3.15082e-11 
   84710 0.00065684319    10280  3.15082e-11 
   84720 0.0065238476    10280  3.15082e-11 
   84730  0.014234781    10280  3.15082e-11 
   84740  0.021503925    10280  3.15082e-11 
   84750  0.030947924    10280  3.15082e-11 
   84760    0.0369699    10280  3.15082e-11 
   84770   0.04271698    10280  3.15082e-11 
   84780  0.050015926    10280  3.15082e-11 
   84790  0.056298971    10280  3.15082e-11 
ssurf = 2.946750e-03 
   84800   0.06345892    10280  3.15082e-11 
   84809  0.068574905    10280  3.15082e-11 
Loop time of 0.068609 on 1 procs for 100 steps with 10280 atoms

99.1% CPU use with 1 MPI tasks x no OpenMP threads
run 100 pre no post no
Step CPU Atoms biomass 
   84809            0    10280  3.15082e-11 
   84810 0.00065398216    10280  3.15082e-11 
   84820 0.0058908463    10280  3.15082e-11 
   84830   0.01316905    10280  3.15082e-11 
   84840  0.019253016    10280  3.15082e-11 
   84850  0.024580956    10280  3.15082e-11 
   84860  0.031606913    10280  3.15082e-11 
   84870  0.037226915    10280  3.15082e-11 
   84880   0.04268384    10280  3.15082e-11 
   84890  0.049492836    10280  3.15082e-11 
ssurf = 2.946750e-03 
   84900  0.054929018    10280  3.15082e-11 
   84909  0.060058832    10280  3.15082e-11 
Loop time of 0.0600948 on 1 procs for 100 steps with 10280 atoms

99.8% CPU use with 1 MPI tasks x no OpenMP threads
run 100 pre no post no
Step CPU Atoms biomass 
   84909            0    10280  3.15082e-11 
   84910 0.00064611435    10280  3.15082e-11 
   84920 0.0083861351    10280  3.15082e-11 
   84930  0.014555216    10280  3.15082e-11 
   84940  0.020586014    10280  3.15082e-11 
   84950  0.027628183    10280  3.15082e-11 
   84960  0.033004045    10280  3.15082e-11 
   84970  0.038830042    10280  3.15082e-11 
   84980  0.045709133    10280  3.15082e-11 
   84990  0.051034212    10280  3.15082e-11 
ssurf = 2.946750e-03 
   85000  0.056250095    10280  3.15082e-11 
   85009  0.060937166    10280  3.15082e-11 
Loop time of 0.0609691 on 1 procs for 100 steps with 10280 atoms

98.4% CPU use with 1 MPI tasks x no OpenMP threads
run 100 pre no post no
Step CPU Atoms biomass 
   85009            0    10280  3.15082e-11 
   85010  0.000674963    10280  3.15082e-11 
   85020 0.0072460175    10280  3.15082e-11 
   85030  0.014975071    10280  3.15082e-11 
   85040  0.020957947    10280  3.15082e-11 
   85050  0.027193069    10280  3.15082e-11 
   85060  0.035144091    10280  3.15082e-11 
   85070  0.041629076    10280  3.15082e-11 
   85080  0.049442053    10280  3.15082e-11 
   85090  0.056812048    10280  3.15082e-11 
ssurf = 2.946750e-03 
   85100   0.06496501    10280  3.15082e-11 
   85109  0.070471048    10280  3.15082e-11 
Loop time of 0.0705061 on 1 procs for 100 steps with 10280 atoms

96.4% CPU use with 1 MPI tasks x no OpenMP threads
run 100 pre no post no
Step CPU Atoms biomass 
   85109            0    10280  3.15082e-11 
   85110 0.00075697899    10280  3.15082e-11 
   85120  0.010209084    10280  3.15082e-11 
   85130   0.01999402    10280  3.15082e-11 
   85140  0.029941082    10280  3.15082e-11 
   85150  0.039222002    10280  3.15082e-11 
   85160  0.048058987    10280  3.15082e-11 
   85170  0.057576895    10280  3.15082e-11 
   85180  0.070034981    10280  3.15082e-11 
   85190  0.077434063    10280  3.15082e-11 
ssurf = 2.946750e-03 
   85200  0.086721897    10280  3.15082e-11 
   85209  0.094305992    10280  3.15082e-11 
Loop time of 0.0943449 on 1 procs for 100 steps with 10280 atoms

101.8% CPU use with 1 MPI tasks x no OpenMP threads
run 100 pre no post no
Step CPU Atoms biomass 
   85209            0    10280  3.15082e-11 
   85210 0.00062894821    10280  3.15082e-11 
   85220  0.005810976    10280  3.15082e-11 
   85230  0.011939049    10280  3.15082e-11 
   85240  0.018531084    10280  3.15082e-11 
   85250  0.024055958    10280  3.15082e-11 
   85260  0.031058073    10280  3.15082e-11 
   85270  0.036421061    10280  3.15082e-11 
   85280  0.041851997    10280  3.15082e-11 
   85290  0.048789024    10280  3.15082e-11 
ssurf = 2.946750e-03 
   85300   0.05393815    10280  3.15082e-11 
   85309  0.058598042    10280  3.15082e-11 
Loop time of 0.0586309 on 1 procs for 100 steps with 10280 atoms

102.3% CPU use with 1 MPI tasks x no OpenMP threads
run 100 pre no post no
Step CPU Atoms biomass 
   85309            0    10280  3.15082e-11 
   85310  0.000633955    10280  3.15082e-11 
   85320 0.0060739517    10280  3.15082e-11 
   85330  0.011580944    10280  3.15082e-11 
   85340   0.01858902    10280  3.15082e-11 
   85350  0.024015903    10280  3.15082e-11 
   85360  0.029469013    10280  3.15082e-11 
   85370  0.034716845    10280  3.15082e-11 
   85380   0.04163599    10280  3.15082e-11 
   85390  0.047279835    10280  3.15082e-11 
ssurf = 2.946750e-03 
   85400  0.052582026    10280  3.15082e-11 
   85409  0.057960033    10280  3.15082e-11 
Loop time of 0.0579979 on 1 procs for 100 steps with 10280 atoms

103.5% CPU use with 1 MPI tasks x no OpenMP threads
run 100 pre no post no
Step CPU Atoms biomass 
   85409            0    10280  3.15082e-11 
   85410 0.00063705444    10280  3.15082e-11 
   85420 0.0059270859    10280  3.15082e-11 
   85430   0.01326108    10280  3.15082e-11 
   85440  0.018651962    10280  3.15082e-11 
   85450  0.024128914    10280  3.15082e-11 
   85460  0.031467915    10280  3.15082e-11 
   85470  0.036813974    10280  3.15082e-11 
   85480  0.042465925    10280  3.15082e-11 
   85490  0.049508095    10280  3.15082e-11 
ssurf = 2.946750e-03 
   85500  0.054802895    10280  3.15082e-11 
   85509  0.059633017    10280  3.15082e-11 
Loop time of 0.0596669 on 1 procs for 100 steps with 10280 atoms

100.6% CPU use with 1 MPI tasks x no OpenMP threads
run 100 pre no post no
Step CPU Atoms biomass 
   85509            0    10280  3.15082e-11 
   85510 0.00063204765    10280  3.15082e-11 
   85520 0.0057790279    10280  3.15082e-11 
   85530  0.012232065    10280  3.15082e-11 
   85540  0.018154144    10280  3.15082e-11 
   85550  0.023715019    10280  3.15082e-11 
   85560  0.030950069    10280  3.15082e-11 
   85570  0.036344051    10280  3.15082e-11 
   85580  0.042225122    10280  3.15082e-11 
   85590  0.049345016    10280  3.15082e-11 
ssurf = 2.946750e-03 
   85600  0.054752111    10280  3.15082e-11 
   85609  0.059473991    10280  3.15082e-11 
Loop time of 0.0595062 on 1 procs for 100 steps with 10280 atoms

94.1% CPU use with 1 MPI tasks x no OpenMP threads
run 100 pre no post no
Step CPU Atoms biomass 
   85609            0    10280  3.15082e-11 
   85610 0.00065612793    10280  3.15082e-11 
   85620 0.0059051514    10280  3.15082e-11 
   85630  0.013028145    10280  3.15082e-11 
   85640   0.01852107    10280  3.15082e-11 
   85650  0.023844957    10280  3.15082e-11 
   85660  0.030761957    10280  3.15082e-11 
   85670  0.036060095    10280  3.15082e-11 
   85680  0.041689157    10280  3.15082e-11 
   85690   0.04875493    10280  3.15082e-11 
ssurf = 2.946750e-03 
   85700  0.054116011    10280  3.15082e-11 
   85709  0.058943987    10280  3.15082e-11 
Loop time of 0.0589759 on 1 procs for 100 steps with 10280 atoms

95.0% CPU use with 1 MPI tasks x no OpenMP threads
run 100 pre no post no
Step CPU Atoms biomass 
   85709            0    10280  3.15082e-11 
   85710 0.00065302849    10280  3.15082e-11 
   85720 0.0061120987    10280  3.15082e-11 
   85730  0.013351917    10280  3.15082e-11 
   85740  0.018884897    10280  3.15082e-11 
   85750  0.024283886    10280  3.15082e-11 
   85760  0.031428099    10280  3.15082e-11 
   85770     0.036973    10280  3.15082e-11 
   85780  0.043431997    10280  3.15082e-11 
   85790  0.048943043    10280  3.15082e-11 
ssurf = 2.946750e-03 
   85800   0.05428195    10280  3.15082e-11 
   85809  0.059294939    10280  3.15082e-11 
Loop time of 0.0593259 on 1 procs for 100 steps with 10280 atoms

101.1% CPU use with 1 MPI tasks x no OpenMP threads
run 100 pre no post no
Step CPU Atoms biomass 
   85809            0    10280  3.15082e-11 
   85810 0.00065112114    10280  3.15082e-11 
   85820 0.0058960915    10280  3.15082e-11 
   85830  0.013148069    10280  3.15082e-11 
   85840  0.018605947    10280  3.15082e-11 
   85850  0.023813009    10280  3.15082e-11 
   85860  0.031065941    10280  3.15082e-11 
   85870  0.036453962    10280  3.15082e-11 
   85880  0.042187929    10280  3.15082e-11 
   85890  0.049091101    10280  3.15082e-11 
ssurf = 2.946750e-03 
   85900  0.054486036    10280  3.15082e-11 
   85909   0.05924511    10280  3.15082e-11 
Loop time of 0.0592771 on 1 procs for 100 steps with 10280 atoms

101.2% CPU use with 1 MPI tasks x no OpenMP threads
run 100 pre no post no
Step CPU Atoms biomass 
   85909            0    10280  3.15082e-11 
   85910 0.00067186356    10280  3.15082e-11 
   85920 0.0066838264    10280  3.15082e-11 
   85930  0.014024019    10280  3.15082e-11 
   85940  0.019753933    10280  3.15082e-11 
   85950  0.027114868    10280  3.15082e-11 
   85960  0.032873869    10280  3.15082e-11 
   85970  0.039000988    10280  3.15082e-11 
   85980  0.046157837    10280  3.15082e-11 
   85990  0.051689863    10280  3.15082e-11 
ssurf = 2.946750e-03 
   86000  0.056999922    10280  3.15082e-11 
   86009  0.064260006    10280  3.15082e-11 
Loop time of 0.064301 on 1 procs for 100 steps with 10280 atoms

99.5% CPU use with 1 MPI tasks x no OpenMP threads
run 100 pre no post no
Step CPU Atoms biomass 
   86009            0    10280  3.15082e-11 
   86010 0.0006840229    10280  3.15082e-11 
   86020  0.006513834    10280  3.15082e-11 
   86030  0.012044907    10280  3.15082e-11 
   86040  0.021179914    10280  3.15082e-11 
   86050  0.028722048    10280  3.15082e-11 
   86060  0.037412882    10280  3.15082e-11 
   86070   0.04486084    10280  3.15082e-11 
   86080  0.053098917    10280  3.15082e-11 
   86090  0.061743975    10280  3.15082e-11 
ssurf = 2.946750e-03 
   86100  0.070361853    10280  3.15082e-11 
   86109  0.079283953    10280  3.15082e-11 
Loop time of 0.0793209 on 1 procs for 100 steps with 10280 atoms

100.9% CPU use with 1 MPI tasks x no OpenMP threads
run 100 pre no post no
Step CPU Atoms biomass 
   86109            0    10280  3.15082e-11 
   86110 0.00065994263    10280  3.15082e-11 
   86120 0.0060079098    10280  3.15082e-11 
   86130  0.011739016    10280  3.15082e-11 
   86140   0.01812005    10280  3.15082e-11 
   86150   0.02371788    10280  3.15082e-11 
   86160  0.030607939    10280  3.15082e-11 
   86170   0.03610301    10280  3.15082e-11 
   86180  0.041465044    10280  3.15082e-11 
   86190  0.048471928    10280  3.15082e-11 
ssurf = 2.946750e-03 
   86200  0.053598881    10280  3.15082e-11 
   86209  0.058279991    10280  3.15082e-11 
Loop time of 0.058311 on 1 procs for 100 steps with 10280 atoms

102.9% CPU use with 1 MPI tasks x no OpenMP threads
run 100 pre no post no
Step CPU Atoms biomass 
   86209            0    10280  3.15082e-11 
   86210 0.00063896179    10280  3.15082e-11 
   86220 0.0058269501    10280  3.15082e-11 
   86230  0.011677027    10280  3.15082e-11 
   86240  0.018405914    10280  3.15082e-11 
   86250  0.023872852    10280  3.15082e-11 
   86260  0.030888081    10280  3.15082e-11 
   86270  0.036175013    10280  3.15082e-11 
   86280  0.041797876    10280  3.15082e-11 
   86290  0.048917055    10280  3.15082e-11 
ssurf = 2.946750e-03 
   86300  0.054250002    10280  3.15082e-11 
   86309  0.058984041    10280  3.15082e-11 
Loop time of 0.059015 on 1 procs for 100 steps with 10280 atoms

101.7% CPU use with 1 MPI tasks x no OpenMP threads
run 100 pre no post no
Step CPU Atoms biomass 
   86309            0    10280  3.15082e-11 
   86310 0.00064206123    10280  3.15082e-11 
   86320 0.0060839653    10280  3.15082e-11 
   86330  0.013159037    10280  3.15082e-11 
   86340  0.018642902    10280  3.15082e-11 
   86350  0.023977995    10280  3.15082e-11 
   86360  0.030899048    10280  3.15082e-11 
   86370   0.03626585    10280  3.15082e-11 
   86380  0.041750908    10280  3.15082e-11 
   86390  0.048752069    10280  3.15082e-11 
ssurf = 2.946750e-03 
   86400  0.054101944    10280  3.15082e-11 
   86409  0.058815002    10280  3.15082e-11 
Loop time of 0.058845 on 1 procs for 100 steps with 10280 atoms

102.0% CPU use with 1 MPI tasks x no OpenMP threads
run 100 pre no post no
Step CPU Atoms biomass 
   86409            0    10280  3.15082e-11 
   86410 0.00069904327    10280  3.15082e-11 
   86420  0.005726099    10280  3.15082e-11 
   86430  0.012979031    10280  3.15082e-11 
   86440  0.018226147    10280  3.15082e-11 
   86450  0.023494959    10280  3.15082e-11 
   86460  0.030660152    10280  3.15082e-11 
   86470  0.035851002    10280  3.15082e-11 
   86480  0.041418076    10280  3.15082e-11 
   86490  0.048168182    10280  3.15082e-11 
ssurf = 2.946750e-03 
   86500  0.053449154    10280  3.15082e-11 
   86509  0.058220148    10280  3.15082e-11 
Loop time of 0.0582511 on 1 procs for 100 steps with 10280 atoms

103.0% CPU use with 1 MPI tasks x no OpenMP threads
run 100 pre no post no
Step CPU Atoms biomass 
   86509            0    10280  3.15082e-11 
   86510  0.000633955    10280  3.15082e-11 
   86520 0.0058469772    10280  3.15082e-11 
   86530  0.013108015    10280  3.15082e-11 
   86540  0.018357992    10280  3.15082e-11 
   86550  0.023595095    10280  3.15082e-11 
   86560  0.030395985    10280  3.15082e-11 
   86570   0.03572011    10280  3.15082e-11 
   86580  0.041198015    10280  3.15082e-11 
   86590  0.048094034    10280  3.15082e-11 
ssurf = 2.946750e-03 
   86600  0.053422928    10280  3.15082e-11 
   86609  0.058112144    10280  3.15082e-11 
Loop time of 0.0581431 on 1 procs for 100 steps with 10280 atoms

103.2% CPU use with 1 MPI tasks x no OpenMP threads
