  Granular Flow Simulation 

       0 atoms 
       2 atom types 
       10 nutrients

   0.0   2.5e-04  xlo xhi
   0.0   0.5e-04  ylo yhi
   0.0   3.0e-04  zlo zhi

 Atoms

 Nutrients

     1 glu l 1.00E-04 1.00E-04 1.00E-04 1.00E-04 1.00E-04 1.00E-04 1.00E-04
     2 ach l 1.00E-20 1.00E-20 1.00E-20 1.00E-20 1.00E-20 1.00E-20 1.00E-20 
     3 nh3 l 1.00E-04 1.00E-04 1.00E-04 1.00E-04 1.00E-04 1.00E-04 1.00E-04
     4 co2 l 1.00E-04 1.00E-04 1.00E-04 1.00E-04 1.00E-04 1.00E-04 1.00E-04
     5 h2 l 1.00E-20 1.00E-20 1.00E-20 1.00E-20 1.00E-20 1.00E-20 1.00E-20 
     6 gco2 g 0 0 0 0 0 0 0
     7 gh2 g 0 0 0 0 0 0 0
     8 gn2 g 1 1 1 1 1 1 1
     9 h2o l 1 1 1 1 1 1 1
     10 h l 0 0 0 0 0 0 0 

 Type Name

     1 xglu_ac
     2 dead

 Diffusion Coeffs
     
     glu 0.669444e-9
     ach 1.188889e-9
     nh3 1.958333e-9
     co2 1.186111e-9
     h2 4.5e-9
     gco2 0
     gh2 0
     gn2 0
     h2o 0
     h 0

 Ks
     
     xglu_ac 1e-4 0 0 0 0 0 0 0 0 0
     dead 0 0 0 0 0 0 0 0 0 0

 Consumption Rate

     xglu_ac 0.000277778
     dead 0

 Yield
    
     xglu_ac 0.6562732997
     dead 0

 Maintenance
 
     xglu_ac 0.00125
     dead 0

 Electron Donor
    
     xglu_ac 0.175
     dead 0

 Decay

     xglu_ac 0.000027778
     dead 0

 Catabolism Coeffs
         
     xglu_ac -1 2 0 2 4 0 0 0 -4 4
     dead 0 0 0 0 0 0 0 0 0 0

 Anabolism Coeffs
          
     xglu_ac -0.175 0 -0.2 0.05 0 0 0 0 0.4 0.05
     dead 0 0 0 0 0 0 0 0 0 0
 
 Decay Coeffs
           
     xglu_ac 0.175 0 0.2 0 0 0 0 0 0 0
     dead 0 0 0 0 0 0 0 0 0 0

 KLa

     glu 0
     ach 0
     nh3 0
     co2 0.000555556
     h2 0.000146389
     gco2 0
     gh2 0
     gn2 0
     h2o 0
     h 0
 
 Nutrient Energy

    glu inf -916 inf inf inf 2
    ach inf -397 -369 inf inf 3
    nh3 inf -79.4 -26.6 inf inf 3
    co2 -386 -623.16 -586.85 -527.80 inf 3
    h2 inf 17.6 inf inf inf 2
    gco2 inf -394 inf inf inf 2
    gh2 inf 0 inf inf inf 2
    gn2 inf 0 inf inf inf 2
    h2o inf -237 -157 inf inf 2
    h inf 0 inf inf inf 2

 Type Energy

    xglu_ac inf -67 inf inf inf 2 
    dead  inf -67 inf inf inf 2

 Nutrient Charge
  
    glu na 0 na na na
    ach na 0 -1 na na
    nh3 na 1 0 na na
    co2 0 0 -1 -2 na
    h2 na 0 na na na
    gco2 na 0 na na na
    gh2 na 0 na na na
    gn2 na 0 na na na
    h2o na 0 -1 na na
    h na 1 na na na

 Type Charge
  
    xglu_ac na 0 na na na
    dead na 0 na na na

 Dissipation

    xglu_ac 236.05
    xglu_ac 0




