LAMMPS (5 Nov 2016)
  using 1 OpenMP thread(s) per MPI task
# NUFEB simulation

atom_style	bio
atom_modify	map array sort 1000 5.0e-7
boundary	pp pp ff
newton		off
processors  2 2 *

comm_modify	vel yes

read_data_bio atom.in
  orthogonal box = (0 0 0) to (2e-05 2e-05 0.0006)
  2 by 2 by 10 MPI processor grid
  reading atoms ...
  9 atoms
  5 nutrients

group HET type 1
9 atoms in group HET

neighbor	5e-7 bin
neigh_modify	delay 0 one 2000

##############Define DEM Variables&Commands##############

pair_style  gran/hooke/history 1.e-4 NULL 1.e-5 NULL 0.0 1
pair_coeff  * *

timestep 300

variable kanc equal 50

fix 1 all nve/limit 1e-8
fix fv all viscous 1e-5

fix zw all wall/gran hooke/history 2000 NULL 500.0 NULL 1.5 0 zplane  0.0   6e-04

fix zwa all walladh v_kanc zplane  0.0   6e-04

##############Define IBm Variables##############

#EPS density, ratio variables and division diameter
variable EPSdens equal 30
variable EPSratio equal 1.25
variable divDia equal 4e-6

#kinetics variables
variable etaHET equal 0.0
variable diffT equal 1e-4
variable tol equal 1e-7
variable layer equal 0

##############Define IBm Commands##############

fix k1 all kinetics 1 15 15 450 v_diffT v_layer demflag 0
fix kgm all kinetics/growth/monod v_EPSdens v_etaHET
fix g1 all kinetics/diffusion v_tol pp pp nd kg bulk 2.31e-7 1.25e-3 0.1
fix d1 all divide 1 v_EPSdens v_divDia 31231 demflag 0
fix vf1 all verify 1 bm1 1 demflag 0

##############Simulation Output##############

compute myPres all pressure thermo_temp
compute myHeight all ave_height 5 5

#dump		id all custom 200000 snapshot.bubblemd id type diameter x y z
thermo_style    custom step cpu atoms biomass c_myPres c_myHeight
thermo		1000
thermo_modify	lost warn

##############Two-loops Run##############

run 100000 pre no post no every 1 "fix_modify k1 demflag 1" "fix_modify vf1 demflag 1" "fix_modify d1 demflag 1" "timestep 1e-3" "run 15000 pre no post no" "timestep 300" "fix_modify k1 demflag 0" "fix_modify vf1 demflag 0" "fix_modify d1 demflag 0"
WARNING: EPS is not defined in fix_kinetics/kinetics/monod (../fix_bio_kinetics_monod.cpp:255)
Neighbor list info ...
  2 neighbor list requests
  update every 1 steps, delay 0 steps, check yes
  max neighbors/atom: 2000, page size: 100000
  master list distance cutoff = 4.5e-06
  ghost atom cutoff = 4.5e-06
  binsize = 2.25e-06 -> bins = 9 9 267
Memory usage per processor = 7.35766 Mbytes
Step CPU Atoms biomass c_myPres c_myHeight 
       0            0        9 4.5238934e-15            0     1.08e-06 
number of iteration: 251 
height = 1.899868e-06 
S-sub-bulk = 2.997412e-02
S-sub-base = 2.999731e-02
S-o2-bulk = 1.000000e-02
S-o2-base = 9.999500e-03

       1    2.1165042       18 4.5991363e-15 0.0020218105 1.899868e-06 
Loop time of 2.11471 on 40 procs for 1 steps with 18 atoms

76.8% CPU use with 40 MPI tasks x no OpenMP threads
fix_modify k1 demflag 1
fix_modify vf1 demflag 1
fix_modify d1 demflag 1
timestep 1e-3
run 15000 pre no post no
Step CPU Atoms biomass c_myPres c_myHeight 
       1            0       18 4.5991363e-15 0.0020218105 1.899868e-06 
    1000  0.036180019       18 4.5991363e-15 8.000206e-06 2.1134803e-06 
    2000  0.067208052       18 4.5991363e-15 8.0002283e-06 2.1134788e-06 
    3000   0.10285401       18 4.5991363e-15 8.0002507e-06 2.1134773e-06 
    4000   0.13848495       18 4.5991363e-15 8.0002731e-06 2.1134758e-06 
    5000   0.17878294       18 4.5991363e-15 8.0002954e-06 2.1134743e-06 
    6000   0.21865296       18 4.5991363e-15 8.0003178e-06 2.1134728e-06 
    7000   0.26132703       18 4.5991363e-15 8.0003402e-06 2.1134713e-06 
    8000   0.30360699       18 4.5991363e-15 8.0003626e-06 2.1134697e-06 
    9000   0.34487009       18 4.5991363e-15 8.000385e-06 2.1134682e-06 
   10000   0.38622713       18 4.5991363e-15 8.0004074e-06 2.1134667e-06 
   11000   0.44778204       18 4.5991363e-15 8.0004298e-06 2.1134652e-06 
   12000   0.48505116       18 4.5991363e-15 8.0004522e-06 2.1134637e-06 
   13000   0.59103012       18 4.5991363e-15 8.0004746e-06 2.1134622e-06 
   14000   0.65068913       18 4.5991363e-15 8.000497e-06 2.1134607e-06 
   15000   0.68429112       18 4.5991363e-15 8.0005195e-06 2.1134592e-06 
   15001     0.684551       18 4.5991363e-15 1.9612671e-05 2.1132647e-06 
Loop time of 0.684682 on 40 procs for 15000 steps with 18 atoms

84.3% CPU use with 40 MPI tasks x no OpenMP threads
timestep 300
fix_modify k1 demflag 0
fix_modify vf1 demflag 0
fix_modify d1 demflag 0
Step CPU Atoms biomass c_myPres c_myHeight 
   15001            0       18 4.5991363e-15 1.9612671e-05 2.1132647e-06 
number of iteration: 484 
height = 2.117312e-06 
S-sub-bulk = 2.994924e-02
S-sub-base = 2.997141e-02
S-o2-bulk = 1.000000e-02
S-o2-base = 9.999469e-03

   15002    0.4069519       18 4.6756223e-15 6.8501054e-05 2.1173116e-06 
Loop time of 0.406978 on 40 procs for 1 steps with 18 atoms

95.2% CPU use with 40 MPI tasks x no OpenMP threads
fix_modify k1 demflag 1
fix_modify vf1 demflag 1
fix_modify d1 demflag 1
timestep 1e-3
run 15000 pre no post no
Step CPU Atoms biomass c_myPres c_myHeight 
   15002            0       18 4.6756223e-15 6.8501054e-05 2.1173116e-06 
   16000  0.010123014       18 4.6756223e-15 1.4020358e-05 2.1207684e-06 
   17000  0.020270109       18 4.6756223e-15 1.4006785e-05 2.1207645e-06 
   18000  0.030375957       18 4.6756223e-15 1.399317e-05 2.1207606e-06 
   19000   0.04054904       18 4.6756223e-15 1.3979496e-05 2.1207567e-06 
   20000  0.050681114       18 4.6756223e-15 1.3965775e-05 2.1207528e-06 
   21000  0.060824156       18 4.6756223e-15 1.3952008e-05 2.1207489e-06 
   22000  0.070964098       18 4.6756223e-15 1.3938207e-05 2.120745e-06 
   23000   0.08110714       18 4.6756223e-15 1.3924326e-05 2.1207411e-06 
   24000  0.091212034       18 4.6756223e-15 1.3910399e-05 2.1207372e-06 
   25000   0.10135102       18 4.6756223e-15 1.3896426e-05 2.1207333e-06 
   26000   0.11150694       18 4.6756223e-15 1.3882401e-05 2.1207294e-06 
   27000   0.12165093       18 4.6756223e-15 1.3868335e-05 2.1207255e-06 
   28000   0.13178515       18 4.6756223e-15 1.3854192e-05 2.1207216e-06 
   29000   0.14193702       18 4.6756223e-15 1.3840007e-05 2.1207176e-06 
   30000    0.1520741       18 4.6756223e-15 1.3825773e-05 2.1207137e-06 
   30002   0.15222597       18 4.6756223e-15 1.3825743e-05 2.1207137e-06 
Loop time of 0.152245 on 40 procs for 15000 steps with 18 atoms

98.5% CPU use with 40 MPI tasks x no OpenMP threads
timestep 300
fix_modify k1 demflag 0
fix_modify vf1 demflag 0
fix_modify d1 demflag 0
Step CPU Atoms biomass c_myPres c_myHeight 
   30002            0       18 4.6756223e-15 1.3825743e-05 2.1207137e-06 
number of iteration: 681 
height = 2.125150e-06 
S-sub-bulk = 2.992531e-02
S-sub-base = 2.994537e-02
S-o2-bulk = 1.000000e-02
S-o2-base = 9.999274e-03

   30003  0.087524176       18 4.7533715e-15 6.7083905e-05 2.1251501e-06 
Loop time of 0.0875561 on 40 procs for 1 steps with 18 atoms

99.8% CPU use with 40 MPI tasks x no OpenMP threads
fix_modify k1 demflag 1
fix_modify vf1 demflag 1
fix_modify d1 demflag 1
timestep 1e-3
run 15000 pre no post no
Step CPU Atoms biomass c_myPres c_myHeight 
   30003            0       18 4.7533715e-15 6.7083905e-05 2.1251501e-06 
   31000  0.010356188       18 4.7533715e-15 1.2969507e-05 2.267062e-06 
   32000  0.020463228       18 4.7533715e-15 1.2969507e-05 2.2670567e-06 
   33000  0.030607224       18 4.7533715e-15 1.2969507e-05 2.2670514e-06 
   34000  0.040705204       18 4.7533715e-15 1.2969507e-05 2.2670461e-06 
   35000  0.051071167       18 4.7533715e-15 1.2969507e-05 2.2670408e-06 
   36000  0.061193228       18 4.7533715e-15 1.2969507e-05 2.2670355e-06 
   37000  0.071302176       18 4.7533715e-15 1.2969507e-05 2.2670302e-06 
   38000  0.081447124       18 4.7533715e-15 1.2969506e-05 2.2670249e-06 
   39000  0.091575146       18 4.7533715e-15 1.2969506e-05 2.2670196e-06 
   40000   0.10168314       18 4.7533715e-15 1.2969506e-05 2.2670143e-06 
   41000   0.11249614       18 4.7533715e-15 1.2969506e-05 2.2670089e-06 
   42000    0.1225841       18 4.7533715e-15 1.2969506e-05 2.2670036e-06 
   43000   0.13303518       18 4.7533715e-15 1.2969506e-05 2.2669983e-06 
   44000     0.143291       18 4.7533715e-15 1.2969506e-05 2.266993e-06 
   45000      0.15344       18 4.7533715e-15 1.2969505e-05 2.2669877e-06 
   45003   0.15360999       18 4.7533715e-15 8.2462075e-06 2.2670815e-06 
Loop time of 0.153631 on 40 procs for 15000 steps with 18 atoms

98.9% CPU use with 40 MPI tasks x no OpenMP threads
timestep 300
fix_modify k1 demflag 0
fix_modify vf1 demflag 0
fix_modify d1 demflag 0
Step CPU Atoms biomass c_myPres c_myHeight 
   45003            0       18 4.7533715e-15 8.2462075e-06 2.2670815e-06 
number of iteration: 668 
height = 2.270882e-06 
S-sub-bulk = 2.990227e-02
S-sub-base = 2.992137e-02
S-o2-bulk = 1.000000e-02
S-o2-base = 9.999240e-03

   45004  0.079528093       18 4.8324055e-15 6.9941026e-05 2.2708819e-06 
Loop time of 0.0795633 on 40 procs for 1 steps with 18 atoms

99.6% CPU use with 40 MPI tasks x no OpenMP threads
fix_modify k1 demflag 1
fix_modify vf1 demflag 1
fix_modify d1 demflag 1
timestep 1e-3
run 15000 pre no post no
Step CPU Atoms biomass c_myPres c_myHeight 
   45004            0       18 4.8324055e-15 6.9941026e-05 2.2708819e-06 
   46000  0.010643959       18 4.8324055e-15 2.1931564e-05 2.2761659e-06 
   47000  0.020808935       18 4.8324055e-15 1.9401276e-05 2.2761749e-06 
   48000  0.030950069       18 4.8324055e-15 1.9401199e-05 2.2761711e-06 
   49000  0.041131973       18 4.8324055e-15 1.940112e-05 2.2761672e-06 
   50000  0.051280022       18 4.8324055e-15 1.9401041e-05 2.2761634e-06 
   51000  0.061396122       18 4.8324055e-15 1.940096e-05 2.2761596e-06 
   52000  0.071542978       18 4.8324055e-15 1.9400879e-05 2.2761557e-06 
   53000  0.081670046       18 4.8324055e-15 1.9400796e-05 2.2761519e-06 
   54000  0.091959953       18 4.8324055e-15 1.873572e-05 2.2760255e-06 
   55000   0.10209394       18 4.8324055e-15 1.8721044e-05 2.2760222e-06 
   56000   0.11227703       18 4.8324055e-15 1.8706366e-05 2.2760189e-06 
   57000   0.12241101       18 4.8324055e-15 1.8691685e-05 2.2760156e-06 
   58000   0.13256097       18 4.8324055e-15 1.8677001e-05 2.2760123e-06 
   59000   0.14271307       18 4.8324055e-15 1.8662314e-05 2.276009e-06 
   60000   0.15300107       18 4.8324055e-15 1.8647625e-05 2.2760057e-06 
   60004     0.153193       18 4.8324055e-15 1.8647566e-05 2.2760057e-06 
Loop time of 0.153218 on 40 procs for 15000 steps with 18 atoms

98.9% CPU use with 40 MPI tasks x no OpenMP threads
timestep 300
fix_modify k1 demflag 0
fix_modify vf1 demflag 0
fix_modify d1 demflag 0
Step CPU Atoms biomass c_myPres c_myHeight 
   60004            0       18 4.8324055e-15 1.8647566e-05 2.2760057e-06 
number of iteration: 662 
height = 2.280201e-06 
S-sub-bulk = 2.988005e-02
S-sub-base = 2.989825e-02
S-o2-bulk = 1.000000e-02
S-o2-base = 9.999234e-03

   60005   0.07771492       18 4.9127457e-15 7.7654471e-05 2.280201e-06 
Loop time of 0.0777388 on 40 procs for 1 steps with 18 atoms

99.5% CPU use with 40 MPI tasks x no OpenMP threads
fix_modify k1 demflag 1
fix_modify vf1 demflag 1
fix_modify d1 demflag 1
timestep 1e-3
run 15000 pre no post no
Step CPU Atoms biomass c_myPres c_myHeight 
   60005            0       18 4.9127457e-15 7.7654471e-05 2.280201e-06 
   61000  0.010402918       18 4.9127457e-15 1.2265845e-05 2.2866387e-06 
   62000   0.02056098       18 4.9127457e-15 1.2265819e-05 2.2866346e-06 
   63000  0.030697107       18 4.9127457e-15 1.2265793e-05 2.2866305e-06 
   64000  0.040825129       18 4.9127457e-15 1.2265614e-05 2.2866263e-06 
   65000  0.050997019       18 4.9127457e-15 1.2265588e-05 2.2866222e-06 
   66000  0.061442137       18 4.9127457e-15 1.2265409e-05 2.2866181e-06 
   67000   0.07171011       18 4.9127457e-15 1.2265383e-05 2.286614e-06 
   68000  0.082142115       18 4.9127457e-15 1.2265204e-05 2.2866098e-06 
   69000  0.092350006       18 4.9127457e-15 1.2265178e-05 2.2866057e-06 
   70000   0.10254598       18 4.9127457e-15 1.2264998e-05 2.2866016e-06 
   71000    0.1130321       18 4.9127457e-15 1.2264972e-05 2.2865974e-06 
   72000   0.12323809       18 4.9127457e-15 1.2264793e-05 2.2865933e-06 
   73000   0.13343596       18 4.9127457e-15 1.2264767e-05 2.2865892e-06 
   74000   0.14386892       18 4.9127457e-15 1.2264588e-05 2.286585e-06 
   75000   0.15443993       18 4.9127457e-15 1.2264562e-05 2.2865809e-06 
   75005     0.154634       18 4.9127457e-15 2.0864679e-05 2.2869452e-06 
Loop time of 0.154665 on 40 procs for 15000 steps with 18 atoms

98.4% CPU use with 40 MPI tasks x no OpenMP threads
timestep 300
fix_modify k1 demflag 0
fix_modify vf1 demflag 0
fix_modify d1 demflag 0
Step CPU Atoms biomass c_myPres c_myHeight 
   75005            0       18 4.9127457e-15 2.0864679e-05 2.2869452e-06 
number of iteration: 656 
height = 2.290517e-06 
S-sub-bulk = 2.985861e-02
S-sub-base = 2.987596e-02
S-o2-bulk = 1.000000e-02
S-o2-base = 9.999219e-03

   75006  0.074913979       18 4.9944137e-15 8.921454e-05 2.2905173e-06 
Loop time of 0.0749465 on 40 procs for 1 steps with 18 atoms

99.6% CPU use with 40 MPI tasks x no OpenMP threads
fix_modify k1 demflag 1
fix_modify vf1 demflag 1
fix_modify d1 demflag 1
timestep 1e-3
run 15000 pre no post no
Step CPU Atoms biomass c_myPres c_myHeight 
   75006            0       18 4.9944137e-15 8.921454e-05 2.2905173e-06 
   76000  0.010133028       18 4.9944137e-15 7.1930646e-06 2.2976684e-06 
   77000  0.020319939       18 4.9944137e-15 7.1930646e-06 2.2976646e-06 
   78000  0.030492067       18 4.9944137e-15 7.1930646e-06 2.2976607e-06 
   79000  0.040659904       18 4.9944137e-15 7.1930645e-06 2.2976569e-06 
   80000   0.05082798       18 4.9944137e-15 7.1930645e-06 2.297653e-06 
   81000  0.060992002       18 4.9944137e-15 7.1930645e-06 2.2976491e-06 
   82000  0.071331978       18 4.9944137e-15 7.1930645e-06 2.2976453e-06 
   83000  0.081954002       18 4.9944137e-15 7.1930645e-06 2.2976414e-06 
   84000  0.092138052       18 4.9944137e-15 7.1930645e-06 2.2976375e-06 
   85000   0.10230398       18 4.9944137e-15 7.1930645e-06 2.2976337e-06 
   86000   0.11249208       18 4.9944137e-15 7.1930645e-06 2.2976298e-06 
   87000   0.12266803       18 4.9944137e-15 7.1930645e-06 2.2976259e-06 
   88000   0.13314795       18 4.9944137e-15 7.1930645e-06 2.2976221e-06 
   89000   0.14331412       18 4.9944137e-15 7.1930645e-06 2.2976182e-06 
   90000   0.15353894       18 4.9944137e-15 7.1930645e-06 2.2976143e-06 
   90006   0.15373492       18 4.9944137e-15 7.1930645e-06 2.2976143e-06 
Loop time of 0.153762 on 40 procs for 15000 steps with 18 atoms

98.4% CPU use with 40 MPI tasks x no OpenMP threads
timestep 300
fix_modify k1 demflag 0
fix_modify vf1 demflag 0
fix_modify d1 demflag 0
Step CPU Atoms biomass c_myPres c_myHeight 
   90006            0       18 4.9944137e-15 7.1930645e-06 2.2976143e-06 
number of iteration: 651 
height = 2.301436e-06 
S-sub-bulk = 2.983789e-02
S-sub-base = 2.985444e-02
S-o2-bulk = 1.000000e-02
S-o2-base = 9.999204e-03

   90007  0.076733112       18 5.0774316e-15 8.3821532e-05 2.3014356e-06 
Loop time of 0.0767623 on 40 procs for 1 steps with 18 atoms

99.5% CPU use with 40 MPI tasks x no OpenMP threads
fix_modify k1 demflag 1
fix_modify vf1 demflag 1
fix_modify d1 demflag 1
timestep 1e-3
run 15000 pre no post no
Step CPU Atoms biomass c_myPres c_myHeight 
   90007            0       18 5.0774316e-15 8.3821532e-05 2.3014356e-06 
   91000  0.010639191       18 5.0774316e-15 1.2144171e-05 2.3064661e-06 
   92000  0.021326065       18 5.0774316e-15 1.2144166e-05 2.3064613e-06 
   93000  0.032129049       18 5.0774316e-15 1.2144294e-05 2.3064565e-06 
   94000  0.042724133       18 5.0774316e-15 1.2144289e-05 2.3064517e-06 
   95000  0.053337097       18 5.0774316e-15 1.2144417e-05 2.306447e-06 
   96000  0.064172029       18 5.0774316e-15 1.2144412e-05 2.3064422e-06 
   97000   0.07478714       18 5.0774316e-15 1.214454e-05 2.3064374e-06 
   98000  0.085383177       18 5.0774316e-15 1.2144535e-05 2.3064326e-06 
   99000  0.095967054       18 5.0774316e-15 1.2144662e-05 2.3064278e-06 
  100000   0.10652709       18 5.0774316e-15 1.2144657e-05 2.306423e-06 
  101000   0.11711121       18 5.0774316e-15 1.2144785e-05 2.3064183e-06 
  102000    0.1276741       18 5.0774316e-15 1.214478e-05 2.3064135e-06 
  103000   0.13825703       18 5.0774316e-15 1.2144908e-05 2.3064087e-06 
  104000   0.14885616       18 5.0774316e-15 1.2144902e-05 2.3064039e-06 
  105000   0.15942311       18 5.0774316e-15 1.214503e-05 2.3063991e-06 
  105007   0.15962815       18 5.0774316e-15 1.4145154e-05 2.3066713e-06 
Loop time of 0.159739 on 40 procs for 15000 steps with 18 atoms

98.2% CPU use with 40 MPI tasks x no OpenMP threads
timestep 300
fix_modify k1 demflag 0
fix_modify vf1 demflag 0
fix_modify d1 demflag 0
Step CPU Atoms biomass c_myPres c_myHeight 
  105007            0       18 5.0774316e-15 1.4145154e-05 2.3066713e-06 
number of iteration: 645 
height = 2.310378e-06 
S-sub-bulk = 2.981785e-02
S-sub-base = 2.983365e-02
S-o2-bulk = 1.000000e-02
S-o2-base = 9.999189e-03

  105008  0.078233004       18 5.161822e-15 8.301499e-05 2.3103783e-06 
Loop time of 0.0782539 on 40 procs for 1 steps with 18 atoms

99.7% CPU use with 40 MPI tasks x no OpenMP threads
fix_modify k1 demflag 1
fix_modify vf1 demflag 1
fix_modify d1 demflag 1
timestep 1e-3
run 15000 pre no post no
Step CPU Atoms biomass c_myPres c_myHeight 
  105008            0       18 5.161822e-15 8.301499e-05 2.3103783e-06 
  106000  0.010560989       18 5.161822e-15 9.5621131e-06 2.3156885e-06 
  107000  0.021205902       18 5.161822e-15 9.562113e-06 2.3156836e-06 
  108000   0.03172183       18 5.161822e-15 9.5621129e-06 2.3156786e-06 
  109000  0.042327881       18 5.161822e-15 9.5621128e-06 2.3156736e-06 
  110000  0.053033829       18 5.161822e-15 9.5621127e-06 2.3156686e-06 
  111000  0.063616991       18 5.161822e-15 9.5621126e-06 2.3156636e-06 
  112000  0.074167967       18 5.161822e-15 9.5621125e-06 2.3156586e-06 
  113000  0.084756851       18 5.161822e-15 9.5621124e-06 2.3156537e-06 
  114000  0.095295906       18 5.161822e-15 9.5621123e-06 2.3156487e-06 
  115000   0.10580897       18 5.161822e-15 9.5621122e-06 2.3156437e-06 
  116000   0.11637092       18 5.161822e-15 9.5621121e-06 2.3156387e-06 
  117000   0.12711096       18 5.161822e-15 9.5621119e-06 2.3156337e-06 
  118000   0.13762283       18 5.161822e-15 9.5621118e-06 2.3156287e-06 
  119000   0.14810085       18 5.161822e-15 9.5621117e-06 2.3156237e-06 
  120000   0.15859103       18 5.161822e-15 9.5621116e-06 2.3156187e-06 
  120008   0.15881085       18 5.161822e-15 9.5621116e-06 2.3156187e-06 
Loop time of 0.158829 on 40 procs for 15000 steps with 18 atoms

97.8% CPU use with 40 MPI tasks x no OpenMP threads
timestep 300
fix_modify k1 demflag 0
fix_modify vf1 demflag 0
fix_modify d1 demflag 0
Step CPU Atoms biomass c_myPres c_myHeight 
  120008            0       18 5.161822e-15 9.5621116e-06 2.3156187e-06 
number of iteration: 640 
height = 2.319875e-06 
S-sub-bulk = 2.979844e-02
S-sub-base = 2.981352e-02
S-o2-bulk = 1.000000e-02
S-o2-base = 9.999174e-03

  120009  0.077049971       18 5.2476075e-15 8.789311e-05 2.3198753e-06 
Loop time of 0.0770702 on 40 procs for 1 steps with 18 atoms

99.7% CPU use with 40 MPI tasks x no OpenMP threads
fix_modify k1 demflag 1
fix_modify vf1 demflag 1
fix_modify d1 demflag 1
timestep 1e-3
run 15000 pre no post no
Step CPU Atoms biomass c_myPres c_myHeight 
  120009            0       18 5.2476075e-15 8.789311e-05 2.3198753e-06 
  121000  0.010501146       18 5.2476075e-15 2.4537946e-05 2.3250814e-06 
  122000  0.021034956       18 5.2476075e-15 2.4537627e-05 2.3250762e-06 
  123000  0.031593084       18 5.2476075e-15 2.4537473e-05 2.3250709e-06 
  124000  0.042200089       18 5.2476075e-15 2.4537154e-05 2.3250657e-06 
  125000  0.052762985       18 5.2476075e-15 2.4536999e-05 2.3250604e-06 
  126000  0.063341141       18 5.2476075e-15 2.453668e-05 2.3250551e-06 
  127000   0.07390213       18 5.2476075e-15 2.4536525e-05 2.3250499e-06 
  128000  0.084526062       18 5.2476075e-15 2.453637e-05 2.3250446e-06 
  129000  0.095088005       18 5.2476075e-15 2.4536052e-05 2.3250393e-06 
  130000   0.10564899       18 5.2476075e-15 2.4535897e-05 2.325034e-06 
  131000   0.11615014       18 5.2476075e-15 2.4535578e-05 2.3250288e-06 
  132000   0.12673616       18 5.2476075e-15 2.4535423e-05 2.3250235e-06 
  133000   0.13724804       18 5.2476075e-15 2.4535104e-05 2.3250182e-06 
  134000   0.14773917       18 5.2476075e-15 2.4534949e-05 2.3250129e-06 
  135000   0.15830112       18 5.2476075e-15 2.4534631e-05 2.3250077e-06 
  135009   0.15852404       18 5.2476075e-15 6.1629861e-06 2.3254455e-06 
Loop time of 0.158541 on 40 procs for 15000 steps with 18 atoms

98.2% CPU use with 40 MPI tasks x no OpenMP threads
timestep 300
fix_modify k1 demflag 0
fix_modify vf1 demflag 0
fix_modify d1 demflag 0
Step CPU Atoms biomass c_myPres c_myHeight 
  135009            0       18 5.2476075e-15 6.1629861e-06 2.3254455e-06 
number of iteration: 635 
height = 2.329030e-06 
S-sub-bulk = 2.977961e-02
S-sub-base = 2.979403e-02
S-o2-bulk = 1.000000e-02
S-o2-base = 9.999159e-03

  135010  0.076305866       18 5.3348113e-15 9.9314837e-05 2.3290301e-06 
Loop time of 0.0763272 on 40 procs for 1 steps with 18 atoms

99.9% CPU use with 40 MPI tasks x no OpenMP threads
fix_modify k1 demflag 1
fix_modify vf1 demflag 1
fix_modify d1 demflag 1
timestep 1e-3
run 15000 pre no post no
Step CPU Atoms biomass c_myPres c_myHeight 
  135010            0       18 5.3348113e-15 9.9314837e-05 2.3290301e-06 
  136000  0.010492086       18 5.3348113e-15 1.7901367e-05 2.3347979e-06 
  137000  0.020997047       18 5.3348113e-15 1.7900976e-05 2.3347923e-06 
  138000   0.03155899       18 5.3348113e-15 1.7900578e-05 2.3347868e-06 
  139000  0.042062044       18 5.3348113e-15 1.7900173e-05 2.3347813e-06 
  140000  0.052598953       18 5.3348113e-15 1.7899761e-05 2.3347757e-06 
  141000  0.063102007       18 5.3348113e-15 1.7899342e-05 2.3347702e-06 
  142000  0.073621035       18 5.3348113e-15 1.7898916e-05 2.3347647e-06 
  143000   0.08415699       18 5.3348113e-15 1.7898482e-05 2.3347591e-06 
  144000  0.094671011       18 5.3348113e-15 1.7898041e-05 2.3347536e-06 
  145000   0.10524297       18 5.3348113e-15 1.7897593e-05 2.334748e-06 
  146000    0.1158011       18 5.3348113e-15 1.7897136e-05 2.3347425e-06 
  147000     0.126302       18 5.3348113e-15 1.7896672e-05 2.334737e-06 
  148000   0.13687515       18 5.3348113e-15  1.78962e-05 2.3347314e-06 
  149000   0.14741611       18 5.3348113e-15 1.789572e-05 2.3347259e-06 
  150000   0.15793419       18 5.3348113e-15 1.7895231e-05 2.3347203e-06 
  150010   0.15817213       18 5.3348113e-15 1.7895226e-05 2.3347203e-06 
Loop time of 0.15819 on 40 procs for 15000 steps with 18 atoms

97.6% CPU use with 40 MPI tasks x no OpenMP threads
timestep 300
fix_modify k1 demflag 0
fix_modify vf1 demflag 0
fix_modify d1 demflag 0
Step CPU Atoms biomass c_myPres c_myHeight 
  150010            0       18 5.3348113e-15 1.7895226e-05 2.3347203e-06 
number of iteration: 630 
height = 2.338672e-06 
S-sub-bulk = 2.976134e-02
S-sub-base = 2.977513e-02
S-o2-bulk = 1.000000e-02
S-o2-base = 9.999144e-03

  150011  0.075684786       18 5.4234571e-15 8.6072747e-05 2.338672e-06 
Loop time of 0.0757036 on 40 procs for 1 steps with 18 atoms

99.9% CPU use with 40 MPI tasks x no OpenMP threads
fix_modify k1 demflag 1
fix_modify vf1 demflag 1
fix_modify d1 demflag 1
timestep 1e-3
run 15000 pre no post no
Step CPU Atoms biomass c_myPres c_myHeight 
  150011            0       18 5.4234571e-15 8.6072747e-05 2.338672e-06 
  151000  0.010473013       18 5.4234571e-15 1.8899038e-05 2.3440601e-06 
  152000  0.021020174       18 5.4234571e-15 1.8885571e-05 2.3440547e-06 
  153000   0.03158617       18 5.4234571e-15 1.8872101e-05 2.3440493e-06 
  154000  0.042110205       18 5.4234571e-15 1.8858628e-05 2.3440439e-06 
  155000  0.052713156       18 5.4234571e-15 1.8845151e-05 2.3440385e-06 
  156000  0.063217163       18 5.4234571e-15 1.8831672e-05 2.3440331e-06 
  157000  0.073760033       18 5.4234571e-15 1.881819e-05 2.3440277e-06 
  158000  0.084293127       18 5.4234571e-15 1.8804705e-05 2.3440223e-06 
  159000   0.09484005       18 5.4234571e-15 1.8791217e-05 2.3440169e-06 
  160000   0.10540819       18 5.4234571e-15 1.8777726e-05 2.3440115e-06 
  161000   0.11591005       18 5.4234571e-15 1.8764233e-05 2.3440061e-06 
  162000   0.12646818       18 5.4234571e-15 1.8750737e-05 2.3440007e-06 
  163000   0.13718915       18 5.4234571e-15 1.8737238e-05 2.3439953e-06 
  164000    0.1478672       18 5.4234571e-15 1.8723737e-05 2.3439898e-06 
  165000   0.15842104       18 5.4234571e-15 1.8710232e-05 2.3439844e-06 
  165011   0.15866709       18 5.4234571e-15 1.3048051e-05 2.3448275e-06 
Loop time of 0.158686 on 40 procs for 15000 steps with 18 atoms

98.7% CPU use with 40 MPI tasks x no OpenMP threads
timestep 300
fix_modify k1 demflag 0
fix_modify vf1 demflag 0
fix_modify d1 demflag 0
Step CPU Atoms biomass c_myPres c_myHeight 
  165011            0       18 5.4234571e-15 1.3048051e-05 2.3448275e-06 
number of iteration: 626 
height = 2.348051e-06 
S-sub-bulk = 2.974357e-02
S-sub-base = 2.975677e-02
S-o2-bulk = 1.000000e-02
S-o2-base = 9.999128e-03

  165012  0.075498104       18 5.5135686e-15 9.4501202e-05 2.3480507e-06 
Loop time of 0.0756072 on 40 procs for 1 steps with 18 atoms

99.4% CPU use with 40 MPI tasks x no OpenMP threads
fix_modify k1 demflag 1
fix_modify vf1 demflag 1
fix_modify d1 demflag 1
timestep 1e-3
run 15000 pre no post no
Step CPU Atoms biomass c_myPres c_myHeight 
  165012            0       18 5.5135686e-15 9.4501202e-05 2.3480507e-06 
  166000  0.010751009       18 5.5135686e-15 1.624701e-05 2.3527864e-06 
  167000  0.021365166       18 5.5135686e-15 1.6241887e-05 2.3527802e-06 
  168000  0.031852007       18 5.5135686e-15 1.6237961e-05 2.3527741e-06 
  169000  0.042335987       18 5.5135686e-15 1.6234221e-05 2.3527681e-06 
  170000  0.052829981       18 5.5135686e-15 1.6230544e-05 2.352762e-06 
  171000  0.063262939       18 5.5135686e-15 1.6226894e-05 2.352756e-06 
  172000  0.073743105       18 5.5135686e-15 1.622326e-05  2.35275e-06 
  173000  0.084357977       18 5.5135686e-15 1.6219633e-05 2.3527439e-06 
  174000  0.094470978       18 5.5135686e-15 1.6216011e-05 2.3527379e-06 
  175000     0.104568       18 5.5135686e-15 1.6212393e-05 2.3527318e-06 
  176000   0.11467814       18 5.5135686e-15 1.6208776e-05 2.3527258e-06 
  177000   0.12476015       18 5.5135686e-15 1.6205161e-05 2.3527198e-06 
  178000   0.13485694       18 5.5135686e-15 1.6201546e-05 2.3527137e-06 
  179000   0.14494014       18 5.5135686e-15 1.6197932e-05 2.3527077e-06 
  180000   0.15506411       18 5.5135686e-15 1.6194317e-05 2.3527016e-06 
  180012   0.15531707       18 5.5135686e-15 1.6194274e-05 2.3527015e-06 
Loop time of 0.155347 on 40 procs for 15000 steps with 18 atoms

98.3% CPU use with 40 MPI tasks x no OpenMP threads
timestep 300
fix_modify k1 demflag 0
fix_modify vf1 demflag 0
fix_modify d1 demflag 0
Step CPU Atoms biomass c_myPres c_myHeight 
  180012            0       18 5.5135686e-15 1.6194274e-05 2.3527015e-06 
number of iteration: 621 
height = 2.357108e-06 
S-sub-bulk = 2.972628e-02
S-sub-base = 2.973892e-02
S-o2-bulk = 1.000000e-02
S-o2-base = 9.999113e-03

  180013  0.078083992       18 5.6051703e-15 6.652735e-05 2.3571078e-06 
Loop time of 0.0781055 on 40 procs for 1 steps with 18 atoms

99.8% CPU use with 40 MPI tasks x no OpenMP threads
fix_modify k1 demflag 1
fix_modify vf1 demflag 1
fix_modify d1 demflag 1
timestep 1e-3
run 15000 pre no post no
Step CPU Atoms biomass c_myPres c_myHeight 
  180013            0       18 5.6051703e-15 6.652735e-05 2.3571078e-06 
  181000  0.010032177       18 5.6051703e-15 1.6193487e-05 2.3630324e-06 
  182000   0.02020812       18 5.6051703e-15 1.6193373e-05 2.3630256e-06 
  183000  0.030385017       18 5.6051703e-15 1.6193237e-05 2.3630186e-06 
  184000  0.040546179       18 5.6051703e-15 1.6193122e-05 2.3630115e-06 
  185000  0.050693989       18 5.6051703e-15 1.6193006e-05 2.3630045e-06 
  186000  0.060839176       18 5.6051703e-15 1.619289e-05 2.3629974e-06 
  187000  0.071003199       18 5.6051703e-15 1.6192753e-05 2.3629904e-06 
  188000  0.081154108       18 5.6051703e-15 1.6192637e-05 2.3629833e-06 
  189000  0.091329098       18 5.6051703e-15 1.619252e-05 2.3629763e-06 
  190000   0.10155106       18 5.6051703e-15 1.6192404e-05 2.3629692e-06 
  191000   0.11175919       18 5.6051703e-15 1.6192286e-05 2.3629622e-06 
  192000   0.12192416       18 5.6051703e-15 1.6192148e-05 2.3629551e-06 
  193000   0.13210821       18 5.6051703e-15 1.6192031e-05 2.3629481e-06 
  194000   0.14249301       18 5.6051703e-15 1.6191913e-05 2.362941e-06 
  195000    0.1526711       18 5.6051703e-15 1.6191794e-05 2.3629339e-06 
  195013   0.15293503       18 5.6051703e-15 1.267977e-05 2.363219e-06 
Loop time of 0.152956 on 40 procs for 15000 steps with 18 atoms

98.9% CPU use with 40 MPI tasks x no OpenMP threads
timestep 300
fix_modify k1 demflag 0
fix_modify vf1 demflag 0
fix_modify d1 demflag 0
Step CPU Atoms biomass c_myPres c_myHeight 
  195013            0       18 5.6051703e-15 1.267977e-05 2.363219e-06 
number of iteration: 616 
height = 2.367044e-06 
S-sub-bulk = 2.970942e-02
S-sub-base = 2.972163e-02
S-o2-bulk = 1.000000e-02
S-o2-base = 9.999101e-03

  195014  0.077126026       18 5.6982869e-15 9.5946764e-05 2.3670445e-06 
Loop time of 0.0771494 on 40 procs for 1 steps with 18 atoms

99.8% CPU use with 40 MPI tasks x no OpenMP threads
fix_modify k1 demflag 1
fix_modify vf1 demflag 1
fix_modify d1 demflag 1
timestep 1e-3
run 15000 pre no post no
Step CPU Atoms biomass c_myPres c_myHeight 
  195014            0       18 5.6982869e-15 9.5946764e-05 2.3670445e-06 
  196000 0.0099778175       18 5.6982869e-15 1.7153983e-05 2.3735739e-06 
  197000  0.020084858       18 5.6982869e-15 1.7152979e-05 2.373565e-06 
  198000  0.030220985       18 5.6982869e-15 1.7151946e-05 2.3735561e-06 
  199000  0.040436983       18 5.6982869e-15 1.7150883e-05 2.3735472e-06 
  200000  0.050565004       18 5.6982869e-15 1.7144457e-05 2.3735677e-06 
  201000   0.06083703       18 5.6982869e-15 1.7143945e-05 2.3735589e-06 
  202000  0.070947886       18 5.6982869e-15 1.7143407e-05  2.37355e-06 
  203000  0.081053019       18 5.6982869e-15 1.7142842e-05 2.3735411e-06 
  204000    0.0911479       18 5.6982869e-15 1.7142251e-05 2.3735322e-06 
  205000   0.10124803       18 5.6982869e-15 1.7141632e-05 2.3735234e-06 
  206000   0.11135697       18 5.6982869e-15 1.7140986e-05 2.3735145e-06 
  207000   0.12146282       18 5.6982869e-15 1.7140313e-05 2.3735056e-06 
  208000   0.13155484       18 5.6982869e-15 1.7139613e-05 2.3734967e-06 
  209000    0.1416378       18 5.6982869e-15 1.7138885e-05 2.3734878e-06 
  210000   0.15171695       18 5.6982869e-15 1.7138129e-05 2.3734789e-06 
  210014    0.1519928       18 5.6982869e-15 1.7138118e-05 2.3734788e-06 
Loop time of 0.152011 on 40 procs for 15000 steps with 18 atoms

98.7% CPU use with 40 MPI tasks x no OpenMP threads
timestep 300
fix_modify k1 demflag 0
fix_modify vf1 demflag 0
fix_modify d1 demflag 0
Step CPU Atoms biomass c_myPres c_myHeight 
  210014            0       18 5.6982869e-15 1.7138118e-05 2.3734788e-06 
number of iteration: 613 
height = 2.377749e-06 
S-sub-bulk = 2.969297e-02
S-sub-base = 2.970469e-02
S-o2-bulk = 1.000000e-02
S-o2-base = 9.999091e-03

  210015  0.076807022       18 5.7929435e-15 7.2687407e-05 2.377749e-06 
Loop time of 0.0768292 on 40 procs for 1 steps with 18 atoms

99.7% CPU use with 40 MPI tasks x no OpenMP threads
fix_modify k1 demflag 1
fix_modify vf1 demflag 1
fix_modify d1 demflag 1
timestep 1e-3
run 15000 pre no post no
Step CPU Atoms biomass c_myPres c_myHeight 
  210015            0       18 5.7929435e-15 7.2687407e-05 2.377749e-06 
  211000 0.0099570751       18 5.7929435e-15 1.0588527e-05 2.383795e-06 
  212000  0.020264149       18 5.7929435e-15 1.0588032e-05 2.3837871e-06 
  213000  0.030378103       18 5.7929435e-15 1.0587643e-05 2.3837792e-06 
  214000  0.040507078       18 5.7929435e-15 1.0587146e-05 2.3837713e-06 
  215000   0.05064106       18 5.7929435e-15 1.0586648e-05 2.3837633e-06 
  216000  0.060761213       18 5.7929435e-15 1.0586257e-05 2.3837554e-06 
  217000  0.070888042       18 5.7929435e-15 1.0585758e-05 2.3837475e-06 
  218000  0.080997229       18 5.7929435e-15 1.0585365e-05 2.3837396e-06 
  219000  0.091109037       18 5.7929435e-15 1.0584864e-05 2.3837316e-06 
  220000   0.10147619       18 5.7929435e-15 1.058447e-05 2.3837237e-06 
  221000   0.11157513       18 5.7929435e-15 1.0583968e-05 2.3837158e-06 
  222000    0.1216712       18 5.7929435e-15 1.0583572e-05 2.3837078e-06 
  223000   0.13179016       18 5.7929435e-15 1.0583068e-05 2.3836999e-06 
  224000   0.14191222       18 5.7929435e-15 1.058267e-05 2.383692e-06 
  225000   0.15217614       18 5.7929435e-15 1.0582164e-05 2.383684e-06 
  225015   0.15247107       18 5.7929435e-15 1.3088051e-05 2.3833196e-06 
Loop time of 0.152491 on 40 procs for 15000 steps with 18 atoms

98.7% CPU use with 40 MPI tasks x no OpenMP threads
timestep 300
fix_modify k1 demflag 0
fix_modify vf1 demflag 0
fix_modify d1 demflag 0
Step CPU Atoms biomass c_myPres c_myHeight 
  225015            0       18 5.7929435e-15 1.3088051e-05 2.3833196e-06 
number of iteration: 609 
height = 2.387839e-06 
S-sub-bulk = 2.967689e-02
S-sub-base = 2.968815e-02
S-o2-bulk = 1.000000e-02
S-o2-base = 9.999077e-03

  225016  0.076306105       18 5.8891655e-15 9.2418907e-05 2.3878393e-06 
Loop time of 0.0763294 on 40 procs for 1 steps with 18 atoms

99.9% CPU use with 40 MPI tasks x no OpenMP threads
fix_modify k1 demflag 1
fix_modify vf1 demflag 1
fix_modify d1 demflag 1
timestep 1e-3
run 15000 pre no post no
Step CPU Atoms biomass c_myPres c_myHeight 
  225016            0       18 5.8891655e-15 9.2418907e-05 2.3878393e-06 
  226000 0.0099129677       18 5.8891655e-15 1.0219318e-05 2.3965924e-06 
  227000  0.020023823       18 5.8891655e-15 1.0628737e-05 2.3966972e-06 
  228000   0.03012085       18 5.8891655e-15 1.1304334e-05 2.3967978e-06 
  229000  0.040338993       18 5.8891655e-15 1.1495526e-05 2.396643e-06 
  230000   0.05042696       18 5.8891655e-15 1.1564636e-05 2.3967506e-06 
  231000  0.060545921       18 5.8891655e-15 1.0409926e-05 2.3965602e-06 
  232000  0.070650816       18 5.8891655e-15 1.0632429e-05 2.3966641e-06 
  233000  0.080737829       18 5.8891655e-15  1.07253e-05 2.3967706e-06 
  234000  0.090832949       18 5.8891655e-15 1.1065081e-05 2.3966125e-06 
  235000   0.10092187       18 5.8891655e-15 1.1144561e-05 2.396714e-06 
  236000     0.111022       18 5.8891655e-15 1.0455178e-05 2.3965182e-06 
  237000   0.12110496       18 5.8891655e-15 1.0156514e-05 2.3966299e-06 
  238000   0.13121486       18 5.8891655e-15 1.0587278e-05 2.3967338e-06 
  239000    0.1412909       18 5.8891655e-15 1.079599e-05 2.3965813e-06 
  240000   0.15154099       18 5.8891655e-15 1.0824763e-05 2.3966892e-06 
  240016   0.15184784       18 5.8891655e-15 1.0264193e-05 2.3966114e-06 
Loop time of 0.151868 on 40 procs for 15000 steps with 18 atoms

98.0% CPU use with 40 MPI tasks x no OpenMP threads
timestep 300
fix_modify k1 demflag 0
fix_modify vf1 demflag 0
fix_modify d1 demflag 0
Step CPU Atoms biomass c_myPres c_myHeight 
  240016            0       18 5.8891655e-15 1.0264193e-05 2.3966114e-06 
number of iteration: 606 
height = 2.401084e-06 
S-sub-bulk = 2.966115e-02
S-sub-base = 2.967198e-02
S-o2-bulk = 1.000000e-02
S-o2-base = 9.999063e-03

  240017  0.076086998       18 5.9869788e-15 9.2591947e-05 2.4010837e-06 
Loop time of 0.0761094 on 40 procs for 1 steps with 18 atoms

99.8% CPU use with 40 MPI tasks x no OpenMP threads
fix_modify k1 demflag 1
fix_modify vf1 demflag 1
fix_modify d1 demflag 1
timestep 1e-3
run 15000 pre no post no
Step CPU Atoms biomass c_myPres c_myHeight 
  240017            0       18 5.9869788e-15 9.2591947e-05 2.4010837e-06 
  241000  0.010037184       18 5.9869788e-15 6.8213357e-06 2.4122555e-06 
  242000  0.020241022       18 5.9869788e-15 6.8179003e-06 2.4122474e-06 
  243000  0.030613184       18 5.9869788e-15 6.8173262e-06 2.412239e-06 
  244000  0.040802002       18 5.9869788e-15 6.8169789e-06 2.4122306e-06 
  245000  0.050994158       18 5.9869788e-15 6.8168471e-06 2.4122222e-06 
  246000  0.061183214       18 5.9869788e-15 6.8166546e-06 2.4122138e-06 
  247000  0.071567059       18 5.9869788e-15 6.8165987e-06 2.4122053e-06 
  248000  0.081942081       18 5.9869788e-15 6.8164462e-06 2.4121969e-06 
  249000  0.092276096       18 5.9869788e-15 6.816415e-06 2.4121884e-06 
  250000   0.10249019       18 5.9869788e-15 6.8162794e-06  2.41218e-06 
  251000   0.11298919       18 5.9869788e-15 6.816259e-06 2.4121716e-06 
  252000   0.12335706       18 5.9869788e-15 6.8161321e-06 2.4121631e-06 
  253000   0.13355923       18 5.9869788e-15 6.8161179e-06 2.4121547e-06 
  254000   0.14394021       18 5.9869788e-15 6.8159956e-06 2.4121462e-06 
  255000   0.15416813       18 5.9869788e-15 6.815875e-06 2.4121378e-06 
  255017   0.15447807       18 5.9869788e-15 6.8420754e-06 2.4121631e-06 
Loop time of 0.1546 on 40 procs for 15000 steps with 18 atoms

98.4% CPU use with 40 MPI tasks x no OpenMP threads
timestep 300
fix_modify k1 demflag 0
fix_modify vf1 demflag 0
fix_modify d1 demflag 0
Step CPU Atoms biomass c_myPres c_myHeight 
  255017            0       18 5.9869788e-15 6.8420754e-06 2.4121631e-06 
number of iteration: 602 
height = 2.416338e-06 
S-sub-bulk = 2.964573e-02
S-sub-base = 2.965616e-02
S-o2-bulk = 1.000000e-02
S-o2-base = 9.999048e-03

  255018  0.075500011       18 6.0864099e-15 9.8603278e-05 2.4163384e-06 
Loop time of 0.0755229 on 40 procs for 1 steps with 18 atoms

99.9% CPU use with 40 MPI tasks x no OpenMP threads
fix_modify k1 demflag 1
fix_modify vf1 demflag 1
fix_modify d1 demflag 1
timestep 1e-3
run 15000 pre no post no
Step CPU Atoms biomass c_myPres c_myHeight 
  255018            0       18 6.0864099e-15 9.8603278e-05 2.4163384e-06 
  256000  0.010079861       18 6.0864099e-15 1.9676867e-05 2.4265043e-06 
  257000  0.020314932       18 6.0864099e-15 1.3949107e-05 2.4264955e-06 
  258000  0.030698061       18 6.0864099e-15 1.8487707e-05 2.4264934e-06 
  259000   0.04091692       18 6.0864099e-15 1.8169624e-05 2.4270859e-06 
  260000   0.05112505       18 6.0864099e-15 1.8166069e-05 2.4270774e-06 
  261000  0.061312914       18 6.0864099e-15 1.8162497e-05 2.427069e-06 
  262000  0.071524858       18 6.0864099e-15 1.8158908e-05 2.4270606e-06 
  263000  0.081894875       18 6.0864099e-15 1.8155304e-05 2.4270522e-06 
  264000  0.092242956       18 6.0864099e-15 1.8151683e-05 2.4270438e-06 
  265000   0.10243201       18 6.0864099e-15 1.8148046e-05 2.4270354e-06 
  266000   0.11263299       18 6.0864099e-15 1.8144393e-05 2.4270271e-06 
  267000   0.12304306       18 6.0864099e-15 1.8140723e-05 2.4270187e-06 
  268000   0.13337088       18 6.0864099e-15 1.8137038e-05 2.4270104e-06 
  269000    0.1437099       18 6.0864099e-15 1.8133337e-05 2.4270021e-06 
  270000   0.15390801       18 6.0864099e-15 1.812962e-05 2.4269939e-06 
  270018   0.15422201       18 6.0864099e-15 1.8129553e-05 2.4269937e-06 
Loop time of 0.154245 on 40 procs for 15000 steps with 18 atoms

98.1% CPU use with 40 MPI tasks x no OpenMP threads
timestep 300
fix_modify k1 demflag 0
fix_modify vf1 demflag 0
fix_modify d1 demflag 0
Step CPU Atoms biomass c_myPres c_myHeight 
  270018            0       18 6.0864099e-15 1.8129553e-05 2.4269937e-06 
number of iteration: 599 
height = 2.431876e-06 
S-sub-bulk = 2.963060e-02
S-sub-base = 2.964065e-02
S-o2-bulk = 1.000000e-02
S-o2-base = 9.999032e-03

  270019  0.074731112       18 6.1874855e-15 9.733899e-05 2.4318765e-06 
Loop time of 0.0747516 on 40 procs for 1 steps with 18 atoms

99.7% CPU use with 40 MPI tasks x no OpenMP threads
fix_modify k1 demflag 1
fix_modify vf1 demflag 1
fix_modify d1 demflag 1
timestep 1e-3
run 15000 pre no post no
Step CPU Atoms biomass c_myPres c_myHeight 
  270019            0       18 6.1874855e-15 9.733899e-05 2.4318765e-06 
  271000  0.010189056       18 6.1874855e-15 1.3341895e-05 2.4429143e-06 
  272000  0.020435095       18 6.1874855e-15 1.3338927e-05 2.4429115e-06 
  273000  0.030676126       18 6.1874855e-15 1.3335953e-05 2.4429087e-06 
  274000  0.040874004       18 6.1874855e-15 1.3332974e-05 2.4429058e-06 
  275000  0.051117182       18 6.1874855e-15 1.3329988e-05 2.4429029e-06 
  276000  0.062636137       18 6.1874855e-15 1.3326997e-05 2.4428999e-06 
  277000  0.072865009       18 6.1874855e-15   1.3324e-05 2.4428969e-06 
  278000  0.083105087       18 6.1874855e-15   1.3889e-05 2.4428938e-06 
  279000  0.093343019       18 6.1874855e-15 1.3886061e-05 2.4428907e-06 
  280000   0.10358906       18 6.1874855e-15 1.3883116e-05 2.4428875e-06 
  281000   0.11381316       18 6.1874855e-15 1.3880165e-05 2.4428843e-06 
  282000   0.12402415       18 6.1874855e-15 1.2895032e-05 2.4428811e-06 
  283000   0.13435602       18 6.1874855e-15 1.2117168e-05 2.4428782e-06 
  284000    0.1445961       18 6.1874855e-15 1.2104463e-05 2.4428748e-06 
  285000   0.15483809       18 6.1874855e-15 1.2091882e-05 2.4428714e-06 
  285019   0.15517211       18 6.1874855e-15 1.3196606e-05 2.4427133e-06 
Loop time of 0.1552 on 40 procs for 15000 steps with 18 atoms

98.7% CPU use with 40 MPI tasks x no OpenMP threads
timestep 300
fix_modify k1 demflag 0
fix_modify vf1 demflag 0
fix_modify d1 demflag 0
Step CPU Atoms biomass c_myPres c_myHeight 
  285019            0       18 6.1874855e-15 1.3196606e-05 2.4427133e-06 
number of iteration: 595 
height = 2.447118e-06 
S-sub-bulk = 2.961573e-02
S-sub-base = 2.962560e-02
S-o2-bulk = 1.000000e-02
S-o2-base = 9.999027e-03

  285020  0.074714899       18 6.2902329e-15 0.00011608772 2.4471179e-06 
Loop time of 0.0747361 on 40 procs for 1 steps with 18 atoms

99.6% CPU use with 40 MPI tasks x no OpenMP threads
fix_modify k1 demflag 1
fix_modify vf1 demflag 1
fix_modify d1 demflag 1
timestep 1e-3
run 15000 pre no post no
Step CPU Atoms biomass c_myPres c_myHeight 
  285020            0       18 6.2902329e-15 0.00011608772 2.4471179e-06 
  286000  0.010013103       18 6.2902329e-15 1.6057348e-05 2.4592513e-06 
  287000   0.02025795       18 6.2902329e-15 1.6041545e-05 2.4592437e-06 
  288000  0.030461073       18 6.2902329e-15 1.6025741e-05 2.4592362e-06 
  289000  0.040687084       18 6.2902329e-15 1.6009933e-05 2.4592286e-06 
  290000  0.050889015       18 6.2902329e-15 1.5994123e-05 2.459221e-06 
  291000  0.061117887       18 6.2902329e-15 1.5978311e-05 2.4592134e-06 
  292000  0.071333885       18 6.2902329e-15 1.5962495e-05 2.4592059e-06 
  293000  0.081547022       18 6.2902329e-15 1.5962767e-05 2.4591983e-06 
  294000  0.091783047       18 6.2902329e-15 1.5957641e-05 2.4591907e-06 
  295000   0.10197592       18 6.2902329e-15 1.5962145e-05 2.4591831e-06 
  296000   0.11220193       18 6.2902329e-15 1.5958062e-05 2.4591756e-06 
  297000   0.12245798       18 6.2902329e-15 1.596266e-05 2.459168e-06 
  298000   0.13267088       18 6.2902329e-15 1.5962097e-05 2.4591604e-06 
  299000   0.14289808       18 6.2902329e-15 1.5958603e-05 2.4591528e-06 
  300000   0.15310502       18 6.2902329e-15 1.5957276e-05 2.4591452e-06 
  300020   0.15345097       18 6.2902329e-15 1.5956959e-05 2.4591451e-06 
Loop time of 0.153471 on 40 procs for 15000 steps with 18 atoms

98.6% CPU use with 40 MPI tasks x no OpenMP threads
timestep 300
fix_modify k1 demflag 0
fix_modify vf1 demflag 0
fix_modify d1 demflag 0
Step CPU Atoms biomass c_myPres c_myHeight 
  300020            0       18 6.2902329e-15 1.5956959e-05 2.4591451e-06 
number of iteration: 594 
height = 2.463588e-06 
S-sub-bulk = 2.960111e-02
S-sub-base = 2.961064e-02
S-o2-bulk = 1.000000e-02
S-o2-base = 9.999022e-03

  300021  0.074180126       18 6.3946796e-15 0.00010374362 2.463588e-06 
Loop time of 0.074201 on 40 procs for 1 steps with 18 atoms

99.7% CPU use with 40 MPI tasks x no OpenMP threads
fix_modify k1 demflag 1
fix_modify vf1 demflag 1
fix_modify d1 demflag 1
timestep 1e-3
run 15000 pre no post no
Step CPU Atoms biomass c_myPres c_myHeight 
  300021            0       18 6.3946796e-15 0.00010374362 2.463588e-06 
  301000  0.010005951       18 6.3946796e-15 1.4979749e-05 2.4759536e-06 
  302000  0.020486832       18 6.3946796e-15 1.5223247e-05 2.4759437e-06 
  303000  0.030788898       18 6.3946796e-15 1.4706779e-05 2.4759357e-06 
  304000  0.041002035       18 6.3946796e-15 1.4938834e-05 2.4759277e-06 
  305000  0.051297903       18 6.3946796e-15 1.5182215e-05 2.4759179e-06 
  306000  0.061494827       18 6.3946796e-15 1.4665689e-05  2.47591e-06 
  307000  0.071677923       18 6.3946796e-15 1.4897705e-05 2.475902e-06 
  308000  0.081856966       18 6.3946796e-15 1.5141068e-05 2.4758922e-06 
  309000  0.092011929       18 6.3946796e-15 1.4624541e-05 2.4758844e-06 
  310000   0.10218883       18 6.3946796e-15 1.4856574e-05 2.4758764e-06 
  311000   0.11240196       18 6.3946796e-15 1.5099971e-05 2.4758667e-06 
  312000   0.12259197       18 6.3946796e-15 1.4583496e-05 2.4758589e-06 
  313000   0.13279796       18 6.3946796e-15 1.4815597e-05 2.475851e-06 
  314000   0.14299703       18 6.3946796e-15 1.5059078e-05 2.4758414e-06 
  315000   0.15317893       18 6.3946796e-15 1.4542701e-05 2.4758336e-06 
  315021   0.15353489       18 6.3946796e-15 1.0000396e-05 2.4757658e-06 
Loop time of 0.153557 on 40 procs for 15000 steps with 18 atoms

98.1% CPU use with 40 MPI tasks x no OpenMP threads
timestep 300
fix_modify k1 demflag 0
fix_modify vf1 demflag 0
fix_modify d1 demflag 0
Step CPU Atoms biomass c_myPres c_myHeight 
  315021            0       18 6.3946796e-15 1.0000396e-05 2.4757658e-06 
number of iteration: 591 
height = 2.480127e-06 
S-sub-bulk = 2.958670e-02
S-sub-base = 2.959592e-02
S-o2-bulk = 1.000000e-02
S-o2-base = 9.999009e-03

  315022     0.073771       18 6.5008538e-15 0.00010639027 2.4801269e-06 
Loop time of 0.0737926 on 40 procs for 1 steps with 18 atoms

99.8% CPU use with 40 MPI tasks x no OpenMP threads
fix_modify k1 demflag 1
fix_modify vf1 demflag 1
fix_modify d1 demflag 1
timestep 1e-3
run 15000 pre no post no
Step CPU Atoms biomass c_myPres c_myHeight 
  315022            0       18 6.5008538e-15 0.00010639027 2.4801269e-06 
  316000 0.0099730492       18 6.5008538e-15 1.0807373e-05 2.4929101e-06 
  317000  0.020334005       18 6.5008538e-15 1.0807207e-05 2.4929025e-06 
  318000  0.030539036       18 6.5008538e-15 1.0807041e-05 2.4928949e-06 
  319000  0.040738106       18 6.5008538e-15 1.0806875e-05 2.4928873e-06 
  320000  0.050927162       18 6.5008538e-15 1.0806708e-05 2.4928797e-06 
  321000   0.06111002       18 6.5008538e-15 1.0806542e-05 2.4928721e-06 
  322000  0.071331024       18 6.5008538e-15 1.0806376e-05 2.4928645e-06 
  323000  0.081660032       18 6.5008538e-15 1.080621e-05 2.4928569e-06 
  324000  0.091925144       18 6.5008538e-15 1.0806044e-05 2.4928493e-06 
  325000   0.10221195       18 6.5008538e-15 1.0805877e-05 2.4928417e-06 
  326000   0.11252117       18 6.5008538e-15 1.0805711e-05 2.4928341e-06 
  327000   0.12269807       18 6.5008538e-15 1.0805545e-05 2.4928265e-06 
  328000    0.1329031       18 6.5008538e-15 1.0805379e-05 2.4928189e-06 
  329000   0.14309716       18 6.5008538e-15 1.0805212e-05 2.4928113e-06 
  330000   0.15341711       18 6.5008538e-15 1.0805046e-05 2.4928037e-06 
  330022   0.15377307       18 6.5008538e-15 1.0805043e-05 2.4928036e-06 
Loop time of 0.153794 on 40 procs for 15000 steps with 18 atoms

98.6% CPU use with 40 MPI tasks x no OpenMP threads
timestep 300
fix_modify k1 demflag 0
fix_modify vf1 demflag 0
fix_modify d1 demflag 0
Step CPU Atoms biomass c_myPres c_myHeight 
  330022            0       18 6.5008538e-15 1.0805043e-05 2.4928036e-06 
number of iteration: 589 
height = 2.497183e-06 
S-sub-bulk = 2.957248e-02
S-sub-base = 2.958141e-02
S-o2-bulk = 1.000000e-02
S-o2-base = 9.998995e-03

  330023  0.073488951       18 6.608784e-15 0.00010306979 2.4971832e-06 
Loop time of 0.0735099 on 40 procs for 1 steps with 18 atoms

99.9% CPU use with 40 MPI tasks x no OpenMP threads
fix_modify k1 demflag 1
fix_modify vf1 demflag 1
fix_modify d1 demflag 1
timestep 1e-3
run 15000 pre no post no
Step CPU Atoms biomass c_myPres c_myHeight 
  330023            0       18 6.608784e-15 0.00010306979 2.4971832e-06 
  331000 0.0099921227       18 6.608784e-15 1.5609574e-05 2.5097706e-06 
  332000   0.02019906       18 6.608784e-15 1.5606316e-05 2.5097636e-06 
  333000  0.030411005       18 6.608784e-15 1.5605631e-05 2.509756e-06 
  334000  0.040591002       18 6.608784e-15 1.5604945e-05 2.5097484e-06 
  335000  0.050776958       18 6.608784e-15 1.5604259e-05 2.5097408e-06 
  336000  0.060996056       18 6.608784e-15 1.5603572e-05 2.5097332e-06 
  337000   0.07120204       18 6.608784e-15 1.5602884e-05 2.5097255e-06 
  338000  0.081439018       18 6.608784e-15 1.5602194e-05 2.5097179e-06 
  339000  0.091615915       18 6.608784e-15 1.5601504e-05 2.5097103e-06 
  340000   0.10183907       18 6.608784e-15 1.5600813e-05 2.5097027e-06 
  341000   0.11205101       18 6.608784e-15 1.5600121e-05 2.5096951e-06 
  342000   0.12226796       18 6.608784e-15 1.5599428e-05 2.5096874e-06 
  343000   0.13247013       18 6.608784e-15 1.5598734e-05 2.5096798e-06 
  344000   0.14267802       18 6.608784e-15 1.5598039e-05 2.5096722e-06 
  345000   0.15285206       18 6.608784e-15 1.5277728e-05 2.5097338e-06 
  345023   0.15321994       18 6.608784e-15 4.8229159e-06  2.50953e-06 
Loop time of 0.153239 on 40 procs for 15000 steps with 18 atoms

98.9% CPU use with 40 MPI tasks x no OpenMP threads
timestep 300
fix_modify k1 demflag 0
fix_modify vf1 demflag 0
fix_modify d1 demflag 0
Step CPU Atoms biomass c_myPres c_myHeight 
  345023            0       18 6.608784e-15 4.8229159e-06  2.50953e-06 
number of iteration: 587 
height = 2.514073e-06 
S-sub-bulk = 2.955844e-02
S-sub-base = 2.956710e-02
S-o2-bulk = 1.000000e-02
S-o2-base = 9.998978e-03

  345024  0.073453903       18 6.7184992e-15 0.00012329682 2.5140734e-06 
Loop time of 0.0735681 on 40 procs for 1 steps with 18 atoms

99.8% CPU use with 40 MPI tasks x no OpenMP threads
fix_modify k1 demflag 1
fix_modify vf1 demflag 1
fix_modify d1 demflag 1
timestep 1e-3
run 15000 pre no post no
Step CPU Atoms biomass c_myPres c_myHeight 
  345024            0       18 6.7184992e-15 0.00012329682 2.5140734e-06 
  346000 0.0098869801       18 6.7184992e-15 1.0930759e-05 2.5281498e-06 
  347000  0.019980907       18 6.7184992e-15 1.0925582e-05 2.5281768e-06 
  348000  0.030179024       18 6.7184992e-15 1.0920395e-05 2.5281667e-06 
  349000  0.040267944       18 6.7184992e-15 1.0915198e-05 2.5281611e-06 
  350000  0.050398827       18 6.7184992e-15 1.0909991e-05 2.5283348e-06 
  351000  0.060475826       18 6.7184992e-15 1.0904773e-05 2.5283297e-06 
  352000  0.070576906       18 6.7184992e-15 1.0899546e-05 2.5283246e-06 
  353000  0.080670834       18 6.7184992e-15 1.0894308e-05 2.5283195e-06 
  354000  0.090788841       18 6.7184992e-15 1.088906e-05 2.5283143e-06 
  355000   0.10093284       18 6.7184992e-15 1.0883803e-05 2.5283091e-06 
  356000   0.11105299       18 6.7184992e-15 1.0878534e-05 2.5283039e-06 
  357000   0.12118292       18 6.7184992e-15 1.0873256e-05 2.5282987e-06 
  358000   0.13129783       18 6.7184992e-15 1.0867968e-05 2.5282934e-06 
  359000   0.14143801       18 6.7184992e-15 7.2945849e-06 2.5286522e-06 
  360000   0.15158582       18 6.7184992e-15 7.2892761e-06 2.5286478e-06 
  360024   0.15195799       18 6.7184992e-15 7.2891486e-06 2.5286477e-06 
Loop time of 0.151978 on 40 procs for 15000 steps with 18 atoms

98.7% CPU use with 40 MPI tasks x no OpenMP threads
timestep 300
fix_modify k1 demflag 0
fix_modify vf1 demflag 0
fix_modify d1 demflag 0
Step CPU Atoms biomass c_myPres c_myHeight 
  360024            0       18 6.7184992e-15 7.2891486e-06 2.5286477e-06 
number of iteration: 584 
height = 2.532660e-06 
S-sub-bulk = 2.954455e-02
S-sub-base = 2.955305e-02
S-o2-bulk = 1.000000e-02
S-o2-base = 9.998967e-03

  360025  0.072758913       18 6.830029e-15 0.00010896229 2.5326599e-06 
Loop time of 0.0727884 on 40 procs for 1 steps with 18 atoms

99.6% CPU use with 40 MPI tasks x no OpenMP threads
fix_modify k1 demflag 1
fix_modify vf1 demflag 1
fix_modify d1 demflag 1
timestep 1e-3
run 15000 pre no post no
Step CPU Atoms biomass c_myPres c_myHeight 
  360025            0       18 6.830029e-15 0.00010896229 2.5326599e-06 
  361000 0.0099129677       18 6.830029e-15 1.3073869e-05 2.5446203e-06 
  362000  0.020055056       18 6.830029e-15 1.3060991e-05 2.5446105e-06 
  363000  0.030192137       18 6.830029e-15 1.3048057e-05 2.5446007e-06 
  364000   0.04034996       18 6.830029e-15 1.3035071e-05 2.5445909e-06 
  365000  0.050477028       18 6.830029e-15 1.3022038e-05 2.5445811e-06 
  366000  0.060619116       18 6.830029e-15 1.3008964e-05 2.5445714e-06 
  367000  0.070773125       18 6.830029e-15 1.2995851e-05 2.5445616e-06 
  368000  0.080924988       18 6.830029e-15 1.2982704e-05 2.5445519e-06 
  369000  0.091078043       18 6.830029e-15 1.2969527e-05 2.5445422e-06 
  370000   0.10122108       18 6.830029e-15 1.2956325e-05 2.5445325e-06 
  371000   0.11135101       18 6.830029e-15 1.2943101e-05 2.5445228e-06 
  372000   0.12151909       18 6.830029e-15 1.2929859e-05 2.5445132e-06 
  373000   0.13168502       18 6.830029e-15 1.2916603e-05 2.5445035e-06 
  374000   0.14184809       18 6.830029e-15 1.2903336e-05 2.5444939e-06 
  375000   0.15199208       18 6.830029e-15 1.2890062e-05 2.5444843e-06 
  375025   0.15237403       18 6.830029e-15 8.1123609e-06 2.5446329e-06 
Loop time of 0.152395 on 40 procs for 15000 steps with 18 atoms

98.7% CPU use with 40 MPI tasks x no OpenMP threads
timestep 300
fix_modify k1 demflag 0
fix_modify vf1 demflag 0
fix_modify d1 demflag 0
Step CPU Atoms biomass c_myPres c_myHeight 
  375025            0       18 6.830029e-15 8.1123609e-06 2.5446329e-06 
number of iteration: 583 
height = 2.548871e-06 
S-sub-bulk = 2.953079e-02
S-sub-base = 2.953907e-02
S-o2-bulk = 1.000000e-02
S-o2-base = 9.998955e-03

  375026  0.072668076       18 6.9434032e-15 0.00010434988 2.5488711e-06 
Loop time of 0.0726891 on 40 procs for 1 steps with 18 atoms

99.8% CPU use with 40 MPI tasks x no OpenMP threads
fix_modify k1 demflag 1
fix_modify vf1 demflag 1
fix_modify d1 demflag 1
timestep 1e-3
run 15000 pre no post no
Step CPU Atoms biomass c_myPres c_myHeight 
  375026            0       18 6.9434032e-15 0.00010434988 2.5488711e-06 
  376000 0.0099160671       18 6.9434032e-15 7.0966701e-06 2.5620435e-06 
  377000  0.020123959       18 6.9434032e-15 7.0920691e-06 2.5620382e-06 
  378000  0.030290127       18 6.9434032e-15 7.0874672e-06 2.5620328e-06 
  379000  0.040446997       18 6.9434032e-15 7.0878849e-06 2.5620283e-06 
  380000  0.050629139       18 6.9434032e-15 7.0871993e-06 2.5620235e-06 
  381000  0.060843945       18 6.9434032e-15 7.0873193e-06 2.5620188e-06 
  382000  0.071038008       18 6.9434032e-15 7.0863966e-06 2.562014e-06 
  383000  0.081251144       18 6.9434032e-15 7.0863226e-06 2.5620092e-06 
  384000  0.091457129       18 6.9434032e-15 7.0861819e-06 2.5620045e-06 
  385000   0.10166192       18 6.9434032e-15 7.085796e-06 2.5619996e-06 
  386000   0.11185598       18 6.9434032e-15 7.0856156e-06 2.5619948e-06 
  387000   0.12206411       18 6.9434032e-15 7.0856489e-06  2.56199e-06 
  388000   0.13227201       18 6.9434032e-15 7.0850298e-06 2.5619851e-06 
  389000   0.14250898       18 6.9434032e-15 7.0846865e-06 2.5619802e-06 
  390000   0.15282011       18 6.9434032e-15 7.0843946e-06 2.5619753e-06 
  390026   0.15322804       18 6.9434032e-15 7.0848521e-06 2.5619752e-06 
Loop time of 0.153247 on 40 procs for 15000 steps with 18 atoms

98.6% CPU use with 40 MPI tasks x no OpenMP threads
timestep 300
fix_modify k1 demflag 0
fix_modify vf1 demflag 0
fix_modify d1 demflag 0
Step CPU Atoms biomass c_myPres c_myHeight 
  390026            0       18 6.9434032e-15 7.0848521e-06 2.5619752e-06 
number of iteration: 581 
height = 2.566094e-06 
S-sub-bulk = 2.951716e-02
S-sub-base = 2.952522e-02
S-o2-bulk = 1.000000e-02
S-o2-base = 9.998940e-03

  390027  0.072468996       18 7.0586524e-15 0.00011251135 2.5660941e-06 
Loop time of 0.07249 on 40 procs for 1 steps with 18 atoms

99.9% CPU use with 40 MPI tasks x no OpenMP threads
fix_modify k1 demflag 1
fix_modify vf1 demflag 1
fix_modify d1 demflag 1
timestep 1e-3
run 15000 pre no post no
Step CPU Atoms biomass c_myPres c_myHeight 
  390027            0       18 7.0586524e-15 0.00011251135 2.5660941e-06 
  391000 0.0098559856       18 7.0586524e-15 1.4999072e-07 2.5796553e-06 
  392000   0.01996994       18 7.0586524e-15 1.4999065e-07 2.5796452e-06 
  393000   0.03006196       18 7.0586524e-15 1.4999059e-07 2.5796352e-06 
  394000  0.040453911       18 7.0586524e-15 1.4999052e-07 2.5796252e-06 
  395000  0.050605059       18 7.0586524e-15 1.4999046e-07 2.5796151e-06 
  396000  0.060730934       18 7.0586524e-15 1.4999039e-07 2.5796051e-06 
  397000  0.070852995       18 7.0586524e-15 4.5487352e-06 2.5799525e-06 
  398000  0.081094027       18 7.0586524e-15 4.541166e-06 2.5799425e-06 
  399000  0.091197968       18 7.0586524e-15 4.5336844e-06 2.5799325e-06 
  400000   0.10133004       18 7.0586524e-15 4.5262899e-06 2.5799224e-06 
  401000   0.11142707       18 7.0586524e-15 4.5189819e-06 2.5799124e-06 
  402000    0.1215539       18 7.0586524e-15 4.5117598e-06 2.5799023e-06 
  403000   0.13178802       18 7.0586524e-15 4.5046227e-06 2.5798923e-06 
  404000   0.14188194       18 7.0586524e-15 4.4975702e-06 2.5798822e-06 
  405000   0.15199089       18 7.0586524e-15 4.4906015e-06 2.5800724e-06 
  405027   0.15239191       18 7.0586524e-15 1.5518461e-05 2.5797496e-06 
Loop time of 0.152418 on 40 procs for 15000 steps with 18 atoms

98.3% CPU use with 40 MPI tasks x no OpenMP threads
timestep 300
fix_modify k1 demflag 0
fix_modify vf1 demflag 0
fix_modify d1 demflag 0
Step CPU Atoms biomass c_myPres c_myHeight 
  405027            0       18 7.0586524e-15 1.5518461e-05 2.5797496e-06 
number of iteration: 580 
height = 2.584507e-06 
S-sub-bulk = 2.950362e-02
S-sub-base = 2.951148e-02
S-o2-bulk = 1.000000e-02
S-o2-base = 9.998911e-03

  405028  0.073069096       18 7.1758074e-15 0.00010006659 2.5845071e-06 
Loop time of 0.0730904 on 40 procs for 1 steps with 18 atoms

99.5% CPU use with 40 MPI tasks x no OpenMP threads
fix_modify k1 demflag 1
fix_modify vf1 demflag 1
fix_modify d1 demflag 1
timestep 1e-3
run 15000 pre no post no
Step CPU Atoms biomass c_myPres c_myHeight 
  405028            0       18 7.1758074e-15 0.00010006659 2.5845071e-06 
  406000 0.0099611282       18 7.1758074e-15 4.0421909e-06 2.595894e-06 
  407000  0.020175219       18 7.1758074e-15 1.6511417e-06 2.5958691e-06 
  408000  0.030512094       18 7.1758074e-15 1.6514439e-06 2.5958604e-06 
  409000  0.041007042       18 7.1758074e-15 1.6517484e-06 2.5958518e-06 
  410000  0.051392078       18 7.1758074e-15 1.6520551e-06 2.5958431e-06 
  411000  0.061613083       18 7.1758074e-15 1.652364e-06 2.5958344e-06 
  412000  0.071864128       18 7.1758074e-15 1.6526752e-06 2.5958257e-06 
  413000     0.082093       18 7.1758074e-15 1.6529885e-06 2.5958171e-06 
  414000  0.092353106       18 7.1758074e-15 1.6533041e-06 2.5958086e-06 
  415000   0.10286307       18 7.1758074e-15 1.6536219e-06 2.5958002e-06 
  416000   0.11305714       18 7.1758074e-15 1.653942e-06 2.5957919e-06 
  417000   0.12328815       18 7.1758074e-15 1.6542642e-06 2.5957835e-06 
  418000   0.13355613       18 7.1758074e-15 1.6545888e-06 2.5957871e-06 
  419000   0.14379311       18 7.1758074e-15 1.6549155e-06 2.5957797e-06 
  420000   0.15403509       18 7.1758074e-15 1.6552446e-06 2.5957722e-06 
  420028   0.15445304       18 7.1758074e-15 1.6552538e-06 2.595772e-06 
Loop time of 0.154476 on 40 procs for 15000 steps with 18 atoms

98.3% CPU use with 40 MPI tasks x no OpenMP threads
timestep 300
fix_modify k1 demflag 0
fix_modify vf1 demflag 0
fix_modify d1 demflag 0
Step CPU Atoms biomass c_myPres c_myHeight 
  420028            0       18 7.1758074e-15 1.6552538e-06 2.595772e-06 
number of iteration: 579 
height = 2.600615e-06 
S-sub-bulk = 2.949017e-02
S-sub-base = 2.949784e-02
S-o2-bulk = 1.000000e-02
S-o2-base = 9.998901e-03

  420029  0.072512865       18 7.2948997e-15 0.00012790749 2.6006151e-06 
Loop time of 0.0725339 on 40 procs for 1 steps with 18 atoms

99.7% CPU use with 40 MPI tasks x no OpenMP threads
fix_modify k1 demflag 1
fix_modify vf1 demflag 1
fix_modify d1 demflag 1
timestep 1e-3
run 15000 pre no post no
Step CPU Atoms biomass c_myPres c_myHeight 
  420029            0       18 7.2948997e-15 0.00012790749 2.6006151e-06 
  421000 0.0098769665       18 7.2948997e-15 1.3626635e-05 2.6137804e-06 
  422000  0.020190001       18 7.2948997e-15 1.3910596e-05 2.613772e-06 
  423000   0.03036499       18 7.2948997e-15 1.4816264e-05 2.613762e-06 
  424000  0.040524006       18 7.2948997e-15 1.4424392e-05 2.6137533e-06 
  425000  0.050697088       18 7.2948997e-15 1.3621107e-05 2.6137446e-06 
  426000  0.060879946       18 7.2948997e-15 1.3669439e-05 2.6137359e-06 
  427000  0.072451115       18 7.2948997e-15 1.2803833e-05 2.6137271e-06 
  428000  0.082626104       18 7.2948997e-15 1.3118274e-05 2.6137182e-06 
  429000  0.093871117       18 7.2948997e-15 1.4670928e-05 2.6137091e-06 
  430000   0.10408592       18 7.2948997e-15 1.4936377e-05 2.6137003e-06 
  431000   0.11428404       18 7.2948997e-15 1.4742733e-05 2.6136926e-06 
  432000   0.12446904       18 7.2948997e-15 1.3400326e-05 2.6136834e-06 
  433000   0.13464904       18 7.2948997e-15 1.4170548e-05 2.6136745e-06 
  434000   0.14483309       18 7.2948997e-15 1.3616233e-05 2.6136663e-06 
  435000   0.15503001       18 7.2948997e-15 1.5096452e-05 2.6136562e-06 
  435029   0.15545607       18 7.2948997e-15 4.4641073e-06 2.6127109e-06 
Loop time of 0.155476 on 40 procs for 15000 steps with 18 atoms

98.6% CPU use with 40 MPI tasks x no OpenMP threads
timestep 300
fix_modify k1 demflag 0
fix_modify vf1 demflag 0
fix_modify d1 demflag 0
Step CPU Atoms biomass c_myPres c_myHeight 
  435029            0       18 7.2948997e-15 4.4641073e-06 2.6127109e-06 
number of iteration: 578 
height = 2.618140e-06 
S-sub-bulk = 2.947679e-02
S-sub-base = 2.948429e-02
S-o2-bulk = 1.000000e-02
S-o2-base = 9.998885e-03

  435030  0.072320938       18 7.4159612e-15 0.00012493044 2.6181397e-06 
Loop time of 0.0723422 on 40 procs for 1 steps with 18 atoms

99.7% CPU use with 40 MPI tasks x no OpenMP threads
fix_modify k1 demflag 1
fix_modify vf1 demflag 1
fix_modify d1 demflag 1
timestep 1e-3
run 15000 pre no post no
Step CPU Atoms biomass c_myPres c_myHeight 
  435030            0       18 7.4159612e-15 0.00012493044 2.6181397e-06 
  436000 0.0099279881       18 7.4159612e-15 1.0546599e-05 2.6324574e-06 
  437000  0.020129204       18 7.4159612e-15 1.054673e-05 2.6324502e-06 
  438000  0.030354977       18 7.4159612e-15 1.0546862e-05 2.6324429e-06 
  439000  0.040538073       18 7.4159612e-15 1.0546994e-05 2.6324356e-06 
  440000  0.050755978       18 7.4159612e-15 1.0547125e-05 2.6324284e-06 
  441000  0.060963154       18 7.4159612e-15 1.0547257e-05 2.6324211e-06 
  442000   0.07115221       18 7.4159612e-15 1.0547389e-05 2.6324138e-06 
  443000  0.081343174       18 7.4159612e-15 1.0547521e-05 2.6324065e-06 
  444000  0.091548204       18 7.4159612e-15 1.0547652e-05 2.6323993e-06 
  445000   0.10175705       18 7.4159612e-15 1.0547784e-05 2.6323924e-06 
  446000   0.11196899       18 7.4159612e-15 1.0547917e-05 2.6323855e-06 
  447000   0.12253213       18 7.4159612e-15 1.0548049e-05 2.6323787e-06 
  448000   0.13274097       18 7.4159612e-15 1.0548181e-05 2.6323718e-06 
  449000   0.14295006       18 7.4159612e-15 1.0548313e-05 2.632365e-06 
  450000   0.15313005       18 7.4159612e-15 1.0548446e-05 2.6323581e-06 
  450030   0.15357518       18 7.4159612e-15 1.054845e-05 2.6323579e-06 
Loop time of 0.153596 on 40 procs for 15000 steps with 18 atoms

98.4% CPU use with 40 MPI tasks x no OpenMP threads
timestep 300
fix_modify k1 demflag 0
fix_modify vf1 demflag 0
fix_modify d1 demflag 0
Step CPU Atoms biomass c_myPres c_myHeight 
  450030            0       18 7.4159612e-15 1.054845e-05 2.6323579e-06 
number of iteration: 577 
height = 2.637078e-06 
S-sub-bulk = 2.946346e-02
S-sub-base = 2.947080e-02
S-o2-bulk = 1.000000e-02
S-o2-base = 9.998867e-03

  450031  0.072252035       18 7.5390245e-15 0.00013054436 2.6370781e-06 
Loop time of 0.0723651 on 40 procs for 1 steps with 18 atoms

99.8% CPU use with 40 MPI tasks x no OpenMP threads
fix_modify k1 demflag 1
fix_modify vf1 demflag 1
fix_modify d1 demflag 1
timestep 1e-3
run 15000 pre no post no
Step CPU Atoms biomass c_myPres c_myHeight 
  450031            0       18 7.5390245e-15 0.00013054436 2.6370781e-06 
  451000 0.0098719597       18 7.5390245e-15 1.8666472e-05 2.6509842e-06 
  452000  0.020085096       18 7.5390245e-15 1.865994e-05 2.6509777e-06 
  453000  0.030294895       18 7.5390245e-15 1.8653308e-05 2.6509712e-06 
  454000  0.040755987       18 7.5390245e-15 1.8646577e-05 2.6509647e-06 
  455000  0.050960064       18 7.5390245e-15 1.8639746e-05 2.6509582e-06 
  456000  0.061135054       18 7.5390245e-15 1.8632814e-05 2.6509518e-06 
  457000  0.071318865       18 7.5390245e-15 1.8625779e-05 2.6509453e-06 
  458000  0.081485033       18 7.5390245e-15 1.861864e-05 2.6509388e-06 
  459000  0.091692924       18 7.5390245e-15 1.8611398e-05 2.6509323e-06 
  460000   0.10188007       18 7.5390245e-15 1.860405e-05 2.6509257e-06 
  461000   0.11209297       18 7.5390245e-15 1.8596596e-05 2.6509213e-06 
  462000   0.12225103       18 7.5390245e-15 1.8589035e-05 2.6509162e-06 
  463000   0.13243508       18 7.5390245e-15 1.8581366e-05 2.6509106e-06 
  464000   0.14261103       18 7.5390245e-15 1.8573588e-05 2.6509065e-06 
  465000   0.15292788       18 7.5390245e-15  1.85657e-05 2.650901e-06 
  465031   0.15338588       18 7.5390245e-15 3.0367645e-07 2.6517299e-06 
Loop time of 0.153406 on 40 procs for 15000 steps with 18 atoms

98.3% CPU use with 40 MPI tasks x no OpenMP threads
timestep 300
fix_modify k1 demflag 0
fix_modify vf1 demflag 0
fix_modify d1 demflag 0
Step CPU Atoms biomass c_myPres c_myHeight 
  465031            0       18 7.5390245e-15 3.0367645e-07 2.6517299e-06 
number of iteration: 577 
height = 2.655433e-06 
S-sub-bulk = 2.945016e-02
S-sub-base = 2.945736e-02
S-o2-bulk = 1.000000e-02
S-o2-base = 9.998847e-03

  465032  0.072324038       18 7.6641225e-15 0.00012111896 2.6554331e-06 
Loop time of 0.072346 on 40 procs for 1 steps with 18 atoms

99.8% CPU use with 40 MPI tasks x no OpenMP threads
fix_modify k1 demflag 1
fix_modify vf1 demflag 1
fix_modify d1 demflag 1
timestep 1e-3
run 15000 pre no post no
Step CPU Atoms biomass c_myPres c_myHeight 
  465032            0       18 7.6641225e-15 0.00012111896 2.6554331e-06 
  466000 0.0099139214       18 7.6641225e-15 2.4024193e-05 2.666733e-06 
  467000  0.020148993       18 7.6641225e-15 2.402403e-05 2.6667263e-06 
  468000  0.030361891       18 7.6641225e-15 2.4023853e-05 2.6667196e-06 
  469000  0.040572882       18 7.6641225e-15 2.4023663e-05 2.6667129e-06 
  470000  0.050760984       18 7.6641225e-15 2.4023459e-05 2.6667062e-06 
  471000  0.060985804       18 7.6641225e-15 2.4023242e-05 2.6666995e-06 
  472000  0.071215868       18 7.6641225e-15 2.4023011e-05 2.6666928e-06 
  473000  0.081463814       18 7.6641225e-15 2.4022766e-05 2.6666861e-06 
  474000  0.091705799       18 7.6641225e-15 2.4022507e-05 2.6666794e-06 
  475000   0.10202885       18 7.6641225e-15 2.4022233e-05 2.6666727e-06 
  476000    0.1122818       18 7.6641225e-15 2.4021945e-05 2.6666659e-06 
  477000   0.12260699       18 7.6641225e-15 2.4021643e-05 2.6666592e-06 
  478000   0.13285398       18 7.6641225e-15 2.4021325e-05 2.6666525e-06 
  479000     0.143085       18 7.6641225e-15 2.4020993e-05 2.6666458e-06 
  480000   0.15331292       18 7.6641225e-15 2.4020646e-05 2.666639e-06 
  480032   0.15377378       18 7.6641225e-15 2.4020634e-05 2.6666388e-06 
Loop time of 0.153794 on 40 procs for 15000 steps with 18 atoms

98.2% CPU use with 40 MPI tasks x no OpenMP threads
timestep 300
fix_modify k1 demflag 0
fix_modify vf1 demflag 0
fix_modify d1 demflag 0
Step CPU Atoms biomass c_myPres c_myHeight 
  480032            0       18 7.6641225e-15 2.4020634e-05 2.6666388e-06 
number of iteration: 576 
height = 2.671209e-06 
S-sub-bulk = 2.943690e-02
S-sub-base = 2.944396e-02
S-o2-bulk = 1.000000e-02
S-o2-base = 9.998827e-03

  480033  0.072179794       18 7.7912887e-15 0.00013130494 2.6712095e-06 
Loop time of 0.0722012 on 40 procs for 1 steps with 18 atoms

99.7% CPU use with 40 MPI tasks x no OpenMP threads
fix_modify k1 demflag 1
fix_modify vf1 demflag 1
fix_modify d1 demflag 1
timestep 1e-3
run 15000 pre no post no
Step CPU Atoms biomass c_myPres c_myHeight 
  480033            0       18 7.7912887e-15 0.00013130494 2.6712095e-06 
  481000 0.0098950863       18 7.7912887e-15 1.284847e-05 2.6850902e-06 
  482000  0.020195961       18 7.7912887e-15 1.2836724e-05 2.6850817e-06 
  483000  0.030402899       18 7.7912887e-15 1.2824822e-05 2.6850733e-06 
  484000  0.040710926       18 7.7912887e-15 1.2812755e-05 2.6850648e-06 
  485000   0.05104804       18 7.7912887e-15 1.2800512e-05 2.6850563e-06 
  486000  0.061282873       18 7.7912887e-15 1.2788083e-05 2.6850479e-06 
  487000  0.071475029       18 7.7912887e-15 1.2775458e-05 2.6850394e-06 
  488000   0.08169508       18 7.7912887e-15 1.2762627e-05 2.6850309e-06 
  489000  0.091926098       18 7.7912887e-15 1.274958e-05 2.6852283e-06 
  490000   0.10213709       18 7.7912887e-15 1.2736304e-05 2.6852203e-06 
  491000   0.11234093       18 7.7912887e-15 1.2722789e-05 2.6852123e-06 
  492000   0.12255692       18 7.7912887e-15 1.2709024e-05 2.6852043e-06 
  493000   0.13278294       18 7.7912887e-15 1.1732524e-05 2.685408e-06 
  494000   0.14298105       18 7.7912887e-15 1.1718235e-05 2.6854001e-06 
  495000   0.15317488       18 7.7912887e-15 1.1703663e-05 2.6853921e-06 
  495033   0.15364194       18 7.7912887e-15 2.7811019e-06 2.6850765e-06 
Loop time of 0.153661 on 40 procs for 15000 steps with 18 atoms

98.5% CPU use with 40 MPI tasks x no OpenMP threads
timestep 300
fix_modify k1 demflag 0
fix_modify vf1 demflag 0
fix_modify d1 demflag 0
Step CPU Atoms biomass c_myPres c_myHeight 
  495033            0       18 7.7912887e-15 2.7811019e-06 2.6850765e-06 
number of iteration: 575 
height = 2.689974e-06 
S-sub-bulk = 2.942364e-02
S-sub-base = 2.943069e-02
S-o2-bulk = 1.000000e-02
S-o2-base = 9.998816e-03

  495034  0.073534966       18 7.9205573e-15 0.00013604405 2.6899735e-06 
Loop time of 0.073567 on 40 procs for 1 steps with 18 atoms

99.7% CPU use with 40 MPI tasks x no OpenMP threads
fix_modify k1 demflag 1
fix_modify vf1 demflag 1
fix_modify d1 demflag 1
timestep 1e-3
run 15000 pre no post no
Step CPU Atoms biomass c_myPres c_myHeight 
  495034            0       18 7.9205573e-15 0.00013604405 2.6899735e-06 
  496000 0.0097689629       18 7.9205573e-15 3.2034232e-06 2.7024647e-06 
  497000  0.019912004       18 7.9205573e-15 3.2033801e-06 2.7024582e-06 
  498000  0.030032873       18 7.9205573e-15 3.2033369e-06 2.7024517e-06 
  499000  0.040167809       18 7.9205573e-15 3.2032938e-06 2.7024453e-06 
  500000   0.05032897       18 7.9205573e-15 3.2032506e-06 2.7024388e-06 
  501000  0.060467005       18 7.9205573e-15 3.2032075e-06 2.7024323e-06 
  502000  0.070621967       18 7.9205573e-15 3.2031644e-06 2.7024258e-06 
  503000  0.080783844       18 7.9205573e-15 3.2031212e-06 2.702416e-06 
  504000  0.090932846       18 7.9205573e-15 3.2030781e-06 2.7024095e-06 
  505000   0.10107303       18 7.9205573e-15 3.2030349e-06 2.702403e-06 
  506000   0.11120796       18 7.9205573e-15 3.2029918e-06 2.7023965e-06 
  507000   0.12132096       18 7.9205573e-15 3.2029487e-06  2.70239e-06 
  508000     0.131464       18 7.9205573e-15 3.2029056e-06 2.7023836e-06 
  509000    0.1416409       18 7.9205573e-15 3.2028624e-06 2.7023771e-06 
  510000   0.15177798       18 7.9205573e-15 3.2028193e-06 2.7023706e-06 
  510034   0.15226388       18 7.9205573e-15 3.2028178e-06 2.7023704e-06 
Loop time of 0.152282 on 40 procs for 15000 steps with 18 atoms

98.7% CPU use with 40 MPI tasks x no OpenMP threads
timestep 300
fix_modify k1 demflag 0
fix_modify vf1 demflag 0
fix_modify d1 demflag 0
Step CPU Atoms biomass c_myPres c_myHeight 
  510034            0       18 7.9205573e-15 3.2028178e-06 2.7023704e-06 
number of iteration: 575 
height = 2.912720e-06 
S-sub-bulk = 2.941039e-02
S-sub-base = 2.941751e-02
S-o2-bulk = 1.000000e-02
S-o2-base = 9.998808e-03

  510035  0.072076082       21 8.0519634e-15 0.0015358718 2.9127198e-06 
Loop time of 0.072098 on 40 procs for 1 steps with 21 atoms

99.8% CPU use with 40 MPI tasks x no OpenMP threads
fix_modify k1 demflag 1
fix_modify vf1 demflag 1
fix_modify d1 demflag 1
timestep 1e-3
run 15000 pre no post no
Step CPU Atoms biomass c_myPres c_myHeight 
  510035            0       21 8.0519634e-15 0.0015358718 2.9127198e-06 
  511000  0.010020971       21 8.0519634e-15 1.6220474e-05 3.0109145e-06 
  512000  0.020287991       21 8.0519634e-15 1.6220493e-05 3.0109095e-06 
  513000  0.030723095       21 8.0519634e-15 1.6220512e-05 3.0109045e-06 
  514000  0.041022062       21 8.0519634e-15 1.6220532e-05 3.0108996e-06 
  515000  0.051292181       21 8.0519634e-15 1.6220551e-05 3.0108946e-06 
  516000  0.061553955       21 8.0519634e-15 1.622057e-05 3.0108896e-06 
  517000  0.071803093       21 8.0519634e-15 1.622059e-05 3.0108847e-06 
  518000  0.082103014       21 8.0519634e-15 1.6220609e-05 3.0108897e-06 
  519000  0.092374086       21 8.0519634e-15 1.6220628e-05 3.0108848e-06 
  520000   0.10267997       21 8.0519634e-15 1.6220648e-05 3.0108798e-06 
  521000   0.11294603       21 8.0519634e-15 1.6220667e-05 3.0108749e-06 
  522000   0.12322807       21 8.0519634e-15 1.6220686e-05  3.01087e-06 
  523000   0.13352919       21 8.0519634e-15 1.6220705e-05 3.0108651e-06 
  524000   0.14382315       21 8.0519634e-15 1.6220725e-05 3.0108602e-06 
  525000      0.15414       21 8.0519634e-15 1.6220744e-05 3.0108553e-06 
  525035   0.15462708       21 8.0519634e-15 5.7706843e-06 3.0124588e-06 
Loop time of 0.154646 on 40 procs for 15000 steps with 21 atoms

98.1% CPU use with 40 MPI tasks x no OpenMP threads
timestep 300
fix_modify k1 demflag 0
fix_modify vf1 demflag 0
fix_modify d1 demflag 0
Step CPU Atoms biomass c_myPres c_myHeight 
  525035            0       21 8.0519634e-15 5.7706843e-06 3.0124588e-06 
number of iteration: 791 
height = 3.015548e-06 
S-sub-bulk = 2.939712e-02
S-sub-base = 2.940232e-02
S-o2-bulk = 1.000000e-02
S-o2-base = 9.998496e-03

  525036   0.10029984       21 8.1855405e-15 0.00011357379 3.0155481e-06 
Loop time of 0.100321 on 40 procs for 1 steps with 21 atoms

99.9% CPU use with 40 MPI tasks x no OpenMP threads
fix_modify k1 demflag 1
fix_modify vf1 demflag 1
fix_modify d1 demflag 1
timestep 1e-3
run 15000 pre no post no
Step CPU Atoms biomass c_myPres c_myHeight 
  525036            0       21 8.1855405e-15 0.00011357379 3.0155481e-06 
  526000   0.01000309       21 8.1855405e-15 2.3089265e-05 3.0313595e-06 
  527000  0.020252943       21 8.1855405e-15 2.3084685e-05 3.0313547e-06 
  528000  0.030520916       21 8.1855405e-15 2.3080059e-05 3.0313499e-06 
  529000  0.040793896       21 8.1855405e-15 2.3075386e-05 3.0313451e-06 
  530000  0.051070929       21 8.1855405e-15 2.3070666e-05 3.0313403e-06 
  531000  0.061297894       21 8.1855405e-15 2.3077548e-05 3.0313434e-06 
  532000   0.07157588       21 8.1855405e-15 2.3072759e-05 3.0313386e-06 
  533000  0.081845999       21 8.1855405e-15 2.3067924e-05 3.0313338e-06 
  534000  0.092099905       21 8.1855405e-15 2.3063042e-05 3.031329e-06 
  535000   0.10234809       21 8.1855405e-15 2.3058113e-05 3.0313242e-06 
  536000   0.11261296       21 8.1855405e-15 2.3053138e-05 3.0313194e-06 
  537000   0.12285495       21 8.1855405e-15 2.3048116e-05 3.0313146e-06 
  538000   0.13312292       21 8.1855405e-15 2.3043048e-05 3.0313097e-06 
  539000   0.14337301       21 8.1855405e-15 2.3049587e-05 3.031313e-06 
  540000   0.15363789       21 8.1855405e-15 2.3044449e-05 3.0313084e-06 
  540036   0.15413404       21 8.1855405e-15 2.3044263e-05 3.0313082e-06 
Loop time of 0.154154 on 40 procs for 15000 steps with 21 atoms

98.3% CPU use with 40 MPI tasks x no OpenMP threads
timestep 300
fix_modify k1 demflag 0
fix_modify vf1 demflag 0
fix_modify d1 demflag 0
Step CPU Atoms biomass c_myPres c_myHeight 
  540036            0       21 8.1855405e-15 2.3044263e-05 3.0313082e-06 
number of iteration: 745 
height = 3.036933e-06 
S-sub-bulk = 2.938383e-02
S-sub-base = 2.938897e-02
S-o2-bulk = 1.000000e-02
S-o2-base = 9.998467e-03

  540037   0.09281683       21 8.3213255e-15 0.00013572423 3.0369327e-06 
Loop time of 0.0928376 on 40 procs for 1 steps with 21 atoms

99.7% CPU use with 40 MPI tasks x no OpenMP threads
fix_modify k1 demflag 1
fix_modify vf1 demflag 1
fix_modify d1 demflag 1
timestep 1e-3
run 15000 pre no post no
Step CPU Atoms biomass c_myPres c_myHeight 
  540037            0       21 8.3213255e-15 0.00013572423 3.0369327e-06 
  541000  0.010042191       21 8.3213255e-15 2.4612558e-05 3.053851e-06 
  542000  0.020286083       21 8.3213255e-15 2.3963603e-05 3.0538911e-06 
  543000  0.030516148       21 8.3213255e-15 2.5681711e-05 3.053969e-06 
  544000  0.040738106       21 8.3213255e-15 2.5650588e-05 3.0539914e-06 
  545000  0.050956011       21 8.3213255e-15 2.4203662e-05 3.0540166e-06 
  546000  0.061197996       21 8.3213255e-15 2.5659515e-05 3.0538256e-06 
  547000  0.071442127       21 8.3213255e-15 2.5989987e-05 3.0538592e-06 
  548000  0.081663132       21 8.3213255e-15 2.4221047e-05 3.053833e-06 
  549000  0.091889143       21 8.3213255e-15 2.5753831e-05 3.0539248e-06 
  550000   0.10217309       21 8.3213255e-15 2.6195756e-05 3.0539793e-06 
  551000   0.11253715       21 8.3213255e-15 2.5011536e-05 3.0539998e-06 
  552000   0.12277007       21 8.3213255e-15 2.4648394e-05 3.0537568e-06 
  553000   0.13300514       21 8.3213255e-15 2.4645958e-05 3.0537777e-06 
  554000   0.14322519       21 8.3213255e-15 2.4713131e-05 3.0538041e-06 
  555000    0.1534512       21 8.3213255e-15 2.3287564e-05 3.0538471e-06 
  555037   0.15396619       21 8.3213255e-15 2.7342361e-06 3.0540488e-06 
Loop time of 0.153985 on 40 procs for 15000 steps with 21 atoms

98.4% CPU use with 40 MPI tasks x no OpenMP threads
timestep 300
fix_modify k1 demflag 0
fix_modify vf1 demflag 0
fix_modify d1 demflag 0
Step CPU Atoms biomass c_myPres c_myHeight 
  555037            0       21 8.3213255e-15 2.7342361e-06 3.0540488e-06 
number of iteration: 744 
height = 3.461242e-06 
S-sub-bulk = 2.937050e-02
S-sub-base = 2.937579e-02
S-o2-bulk = 1.000000e-02
S-o2-base = 9.998453e-03

  555038  0.092841148       26 8.4593555e-15 0.0022561896 3.4612416e-06 
Loop time of 0.0928623 on 40 procs for 1 steps with 26 atoms

99.8% CPU use with 40 MPI tasks x no OpenMP threads
fix_modify k1 demflag 1
fix_modify vf1 demflag 1
fix_modify d1 demflag 1
timestep 1e-3
run 15000 pre no post no
Step CPU Atoms biomass c_myPres c_myHeight 
  555038            0       26 8.4593555e-15 0.0022561896 3.4612416e-06 
  556000  0.010205984       26 8.4593555e-15 1.5871397e-05 3.5781256e-06 
  557000  0.020688057       26 8.4593555e-15 1.5871397e-05 3.5781237e-06 
  558000  0.031194925       26 8.4593555e-15 1.5871397e-05 3.5781217e-06 
  559000  0.041697025       26 8.4593555e-15 1.5871227e-05 3.5781224e-06 
[...]

number of iteration: 1 
S-sub-bulk = 4.411326e-03
S-sub-base = 6.516839e-06
S-o2-bulk = 1.000000e-02
S-o2-base = 9.430713e-03

number of iteration: 1 
S-sub-bulk = 4.411323e-03
S-sub-base = 6.516840e-06
S-o2-bulk = 1.000000e-02
S-o2-base = 9.430712e-03

number of iteration: 1 
S-sub-bulk = 4.411321e-03
S-sub-base = 6.516842e-06
S-o2-bulk = 1.000000e-02
S-o2-base = 9.430712e-03

number of iteration: 1 
S-sub-bulk = 4.411319e-03
S-sub-base = 6.516843e-06
S-o2-bulk = 1.000000e-02
S-o2-base = 9.430712e-03

number of iteration: 1 
S-sub-bulk = 4.411317e-03
S-sub-base = 6.516844e-06
S-o2-bulk = 1.000000e-02
S-o2-base = 9.430711e-03

number of iteration: 1 
S-sub-bulk = 4.411315e-03
S-sub-base = 6.516846e-06
S-o2-bulk = 1.000000e-02
S-o2-base = 9.430711e-03

number of iteration: 1 
S-sub-bulk = 4.411313e-03
S-sub-base = 6.516847e-06
S-o2-bulk = 1.000000e-02
S-o2-base = 9.430711e-03

number of iteration: 1 
S-sub-bulk = 4.411310e-03
S-sub-base = 6.516849e-06
S-o2-bulk = 1.000000e-02
S-o2-base = 9.430710e-03

number of iteration: 1 
S-sub-bulk = 4.411308e-03
S-sub-base = 6.516850e-06
S-o2-bulk = 1.000000e-02
S-o2-base = 9.430710e-03

number of iteration: 1 
S-sub-bulk = 4.411306e-03
S-sub-base = 6.516851e-06
S-o2-bulk = 1.000000e-02
S-o2-base = 9.430709e-03

number of iteration: 1 
S-sub-bulk = 4.411304e-03
S-sub-base = 6.516853e-06
S-o2-bulk = 1.000000e-02
S-o2-base = 9.430709e-03

number of iteration: 1 
S-sub-bulk = 4.411302e-03
S-sub-base = 6.516854e-06
S-o2-bulk = 1.000000e-02
S-o2-base = 9.430709e-03

number of iteration: 1 
S-sub-bulk = 4.411300e-03
S-sub-base = 6.516855e-06
S-o2-bulk = 1.000000e-02
S-o2-base = 9.430708e-03

number of iteration: 1 
S-sub-bulk = 4.411297e-03
S-sub-base = 6.516857e-06
S-o2-bulk = 1.000000e-02
S-o2-base = 9.430708e-03

number of iteration: 1 
S-sub-bulk = 4.411295e-03
S-sub-base = 6.516858e-06
S-o2-bulk = 1.000000e-02
S-o2-base = 9.430708e-03

number of iteration: 1 
S-sub-bulk = 4.411293e-03
S-sub-base = 6.516859e-06
S-o2-bulk = 1.000000e-02
S-o2-base = 9.430707e-03

number of iteration: 1 
S-sub-bulk = 4.411291e-03
S-sub-base = 6.516861e-06
S-o2-bulk = 1.000000e-02
S-o2-base = 9.430707e-03

number of iteration: 1 
S-sub-bulk = 4.411289e-03
S-sub-base = 6.516862e-06
S-o2-bulk = 1.000000e-02
S-o2-base = 9.430707e-03

number of iteration: 1 
S-sub-bulk = 4.411287e-03
S-sub-base = 6.516863e-06
S-o2-bulk = 1.000000e-02
S-o2-base = 9.430706e-03

number of iteration: 1 
S-sub-bulk = 4.411284e-03
S-sub-base = 6.516865e-06
S-o2-bulk = 1.000000e-02
S-o2-base = 9.430706e-03

number of iteration: 1 
S-sub-bulk = 4.411282e-03
S-sub-base = 6.516866e-06
S-o2-bulk = 1.000000e-02
S-o2-base = 9.430706e-03

number of iteration: 1 
S-sub-bulk = 4.411280e-03
S-sub-base = 6.516868e-06
S-o2-bulk = 1.000000e-02
S-o2-base = 9.430705e-03

number of iteration: 1 
S-sub-bulk = 4.411278e-03
S-sub-base = 6.516869e-06
S-o2-bulk = 1.000000e-02
S-o2-base = 9.430705e-03

number of iteration: 1 
S-sub-bulk = 4.411276e-03
S-sub-base = 6.516870e-06
S-o2-bulk = 1.000000e-02
S-o2-base = 9.430705e-03

number of iteration: 1 
S-sub-bulk = 4.411274e-03
S-sub-base = 6.516872e-06
S-o2-bulk = 1.000000e-02
S-o2-base = 9.430704e-03

number of iteration: 1 
S-sub-bulk = 4.411272e-03
S-sub-base = 6.516873e-06
S-o2-bulk = 1.000000e-02
S-o2-base = 9.430704e-03

number of iteration: 1 
S-sub-bulk = 4.411269e-03
S-sub-base = 6.516874e-06
S-o2-bulk = 1.000000e-02
S-o2-base = 9.430704e-03

number of iteration: 1 
S-sub-bulk = 4.411267e-03
S-sub-base = 6.516876e-06
S-o2-bulk = 1.000000e-02
S-o2-base = 9.430703e-03

number of iteration: 1 
S-sub-bulk = 4.411265e-03
S-sub-base = 6.516877e-06
S-o2-bulk = 1.000000e-02
S-o2-base = 9.430703e-03

number of iteration: 1 
S-sub-bulk = 4.411263e-03
S-sub-base = 6.516878e-06
S-o2-bulk = 1.000000e-02
S-o2-base = 9.430703e-03

number of iteration: 1 
S-sub-bulk = 4.411261e-03
S-sub-base = 6.516880e-06
S-o2-bulk = 1.000000e-02
S-o2-base = 9.430702e-03

number of iteration: 1 
S-sub-bulk = 4.411259e-03
S-sub-base = 6.516881e-06
S-o2-bulk = 1.000000e-02
S-o2-base = 9.430702e-03

number of iteration: 1 
S-sub-bulk = 4.411257e-03
S-sub-base = 6.516882e-06
S-o2-bulk = 1.000000e-02
S-o2-base = 9.430702e-03

number of iteration: 1 
S-sub-bulk = 4.411254e-03
S-sub-base = 6.516884e-06
S-o2-bulk = 1.000000e-02
S-o2-base = 9.430701e-03

number of iteration: 1 
S-sub-bulk = 4.411252e-03
S-sub-base = 6.516885e-06
S-o2-bulk = 1.000000e-02
S-o2-base = 9.430701e-03

number of iteration: 1 
S-sub-bulk = 4.411250e-03
S-sub-base = 6.516886e-06
S-o2-bulk = 1.000000e-02
S-o2-base = 9.430700e-03

number of iteration: 1 
S-sub-bulk = 4.411248e-03
S-sub-base = 6.516888e-06
S-o2-bulk = 1.000000e-02
S-o2-base = 9.430700e-03

number of iteration: 1 
S-sub-bulk = 4.411246e-03
S-sub-base = 6.516889e-06
S-o2-bulk = 1.000000e-02
S-o2-base = 9.430700e-03

number of iteration: 1 
S-sub-bulk = 4.411244e-03
S-sub-base = 6.516891e-06
S-o2-bulk = 1.000000e-02
S-o2-base = 9.430699e-03

number of iteration: 1 
S-sub-bulk = 4.411242e-03
S-sub-base = 6.516892e-06
S-o2-bulk = 1.000000e-02
S-o2-base = 9.430699e-03

number of iteration: 1 
S-sub-bulk = 4.411240e-03
S-sub-base = 6.516893e-06
S-o2-bulk = 1.000000e-02
S-o2-base = 9.430699e-03

number of iteration: 1 
S-sub-bulk = 4.411237e-03
S-sub-base = 6.516895e-06
S-o2-bulk = 1.000000e-02
S-o2-base = 9.430698e-03

number of iteration: 1 
S-sub-bulk = 4.411235e-03
S-sub-base = 6.516896e-06
S-o2-bulk = 1.000000e-02
S-o2-base = 9.430698e-03

number of iteration: 1 
S-sub-bulk = 4.411233e-03
S-sub-base = 6.516897e-06
S-o2-bulk = 1.000000e-02
S-o2-base = 9.430698e-03

number of iteration: 1 
S-sub-bulk = 4.411231e-03
S-sub-base = 6.516899e-06
S-o2-bulk = 1.000000e-02
S-o2-base = 9.430697e-03

number of iteration: 1 
S-sub-bulk = 4.411229e-03
S-sub-base = 6.516900e-06
S-o2-bulk = 1.000000e-02
S-o2-base = 9.430697e-03

number of iteration: 1 
S-sub-bulk = 4.411227e-03
S-sub-base = 6.516901e-06
S-o2-bulk = 1.000000e-02
S-o2-base = 9.430697e-03

number of iteration: 1 
S-sub-bulk = 4.411225e-03
S-sub-base = 6.516903e-06
S-o2-bulk = 1.000000e-02
S-o2-base = 9.430696e-03

number of iteration: 1 
S-sub-bulk = 4.411223e-03
S-sub-base = 6.516904e-06
S-o2-bulk = 1.000000e-02
S-o2-base = 9.430696e-03

number of iteration: 1 
S-sub-bulk = 4.411220e-03
S-sub-base = 6.516905e-06
S-o2-bulk = 1.000000e-02
S-o2-base = 9.430696e-03

number of iteration: 1 
S-sub-bulk = 4.411218e-03
S-sub-base = 6.516907e-06
S-o2-bulk = 1.000000e-02
S-o2-base = 9.430695e-03

number of iteration: 1 
S-sub-bulk = 4.411216e-03
S-sub-base = 6.516908e-06
S-o2-bulk = 1.000000e-02
S-o2-base = 9.430695e-03

number of iteration: 1 
S-sub-bulk = 4.411214e-03
S-sub-base = 6.516909e-06
S-o2-bulk = 1.000000e-02
S-o2-base = 9.430695e-03

number of iteration: 1 
S-sub-bulk = 4.411212e-03
S-sub-base = 6.516911e-06
S-o2-bulk = 1.000000e-02
S-o2-base = 9.430694e-03

number of iteration: 1 
S-sub-bulk = 4.411210e-03
S-sub-base = 6.516912e-06
S-o2-bulk = 1.000000e-02
S-o2-base = 9.430694e-03

number of iteration: 1 
S-sub-bulk = 4.411208e-03
S-sub-base = 6.516913e-06
S-o2-bulk = 1.000000e-02
S-o2-base = 9.430694e-03

number of iteration: 1 
S-sub-bulk = 4.411206e-03
S-sub-base = 6.516915e-06
S-o2-bulk = 1.000000e-02
S-o2-base = 9.430693e-03

number of iteration: 1 
S-sub-bulk = 4.411204e-03
S-sub-base = 6.516916e-06
S-o2-bulk = 1.000000e-02
S-o2-base = 9.430693e-03

number of iteration: 1 
S-sub-bulk = 4.411201e-03
S-sub-base = 6.516918e-06
S-o2-bulk = 1.000000e-02
S-o2-base = 9.430693e-03

number of iteration: 1 
S-sub-bulk = 4.411199e-03
S-sub-base = 6.516919e-06
S-o2-bulk = 1.000000e-02
S-o2-base = 9.430692e-03

number of iteration: 1 
S-sub-bulk = 4.411197e-03
S-sub-base = 6.516920e-06
S-o2-bulk = 1.000000e-02
S-o2-base = 9.430692e-03

number of iteration: 1 
S-sub-bulk = 4.411195e-03
S-sub-base = 6.516922e-06
S-o2-bulk = 1.000000e-02
S-o2-base = 9.430691e-03

number of iteration: 1 
S-sub-bulk = 4.411193e-03
S-sub-base = 6.516923e-06
S-o2-bulk = 1.000000e-02
S-o2-base = 9.430691e-03

number of iteration: 1 
S-sub-bulk = 4.411191e-03
S-sub-base = 6.516924e-06
S-o2-bulk = 1.000000e-02
S-o2-base = 9.430691e-03

number of iteration: 1 
S-sub-bulk = 4.411189e-03
S-sub-base = 6.516926e-06
S-o2-bulk = 1.000000e-02
S-o2-base = 9.430690e-03

number of iteration: 1 
S-sub-bulk = 4.411187e-03
S-sub-base = 6.516927e-06
S-o2-bulk = 1.000000e-02
S-o2-base = 9.430690e-03

number of iteration: 1 
S-sub-bulk = 4.411185e-03
S-sub-base = 6.516928e-06
S-o2-bulk = 1.000000e-02
S-o2-base = 9.430690e-03

number of iteration: 1 
S-sub-bulk = 4.411183e-03
S-sub-base = 6.516930e-06
S-o2-bulk = 1.000000e-02
S-o2-base = 9.430689e-03

number of iteration: 1 
S-sub-bulk = 4.411180e-03
S-sub-base = 6.516931e-06
S-o2-bulk = 1.000000e-02
S-o2-base = 9.430689e-03

number of iteration: 1 
S-sub-bulk = 4.411178e-03
S-sub-base = 6.516932e-06
S-o2-bulk = 1.000000e-02
S-o2-base = 9.430689e-03

number of iteration: 1 
S-sub-bulk = 4.411176e-03
S-sub-base = 6.516934e-06
S-o2-bulk = 1.000000e-02
S-o2-base = 9.430688e-03

number of iteration: 1 
S-sub-bulk = 4.411174e-03
S-sub-base = 6.516935e-06
S-o2-bulk = 1.000000e-02
S-o2-base = 9.430688e-03

number of iteration: 1 
S-sub-bulk = 4.411172e-03
S-sub-base = 6.516936e-06
S-o2-bulk = 1.000000e-02
S-o2-base = 9.430688e-03

number of iteration: 1 
S-sub-bulk = 4.411170e-03
S-sub-base = 6.516938e-06
S-o2-bulk = 1.000000e-02
S-o2-base = 9.430687e-03

number of iteration: 1 
S-sub-bulk = 4.411168e-03
S-sub-base = 6.516939e-06
S-o2-bulk = 1.000000e-02
S-o2-base = 9.430687e-03

number of iteration: 1 
S-sub-bulk = 4.411166e-03
S-sub-base = 6.516940e-06
S-o2-bulk = 1.000000e-02
S-o2-base = 9.430687e-03

number of iteration: 1 
S-sub-bulk = 4.411164e-03
S-sub-base = 6.516942e-06
S-o2-bulk = 1.000000e-02
S-o2-base = 9.430686e-03

number of iteration: 1 
S-sub-bulk = 4.411162e-03
S-sub-base = 6.516943e-06
S-o2-bulk = 1.000000e-02
S-o2-base = 9.430686e-03

number of iteration: 1 
S-sub-bulk = 4.411160e-03
S-sub-base = 6.516944e-06
S-o2-bulk = 1.000000e-02
S-o2-base = 9.430686e-03

number of iteration: 1 
S-sub-bulk = 4.411157e-03
S-sub-base = 6.516946e-06
S-o2-bulk = 1.000000e-02
S-o2-base = 9.430685e-03

number of iteration: 1 
S-sub-bulk = 4.411155e-03
S-sub-base = 6.516947e-06
S-o2-bulk = 1.000000e-02
S-o2-base = 9.430685e-03

number of iteration: 1 
S-sub-bulk = 4.411153e-03
S-sub-base = 6.516948e-06
S-o2-bulk = 1.000000e-02
S-o2-base = 9.430685e-03

number of iteration: 1 
S-sub-bulk = 4.411151e-03
S-sub-base = 6.516950e-06
S-o2-bulk = 1.000000e-02
S-o2-base = 9.430684e-03

number of iteration: 1 
S-sub-bulk = 4.411149e-03
S-sub-base = 6.516951e-06
S-o2-bulk = 1.000000e-02
S-o2-base = 9.430684e-03

number of iteration: 1 
S-sub-bulk = 4.411147e-03
S-sub-base = 6.516952e-06
S-o2-bulk = 1.000000e-02
S-o2-base = 9.430684e-03

number of iteration: 1 
S-sub-bulk = 4.411145e-03
S-sub-base = 6.516954e-06
S-o2-bulk = 1.000000e-02
S-o2-base = 9.430683e-03

number of iteration: 1 
S-sub-bulk = 4.411143e-03
S-sub-base = 6.516955e-06
S-o2-bulk = 1.000000e-02
S-o2-base = 9.430683e-03

number of iteration: 1 
S-sub-bulk = 4.411141e-03
S-sub-base = 6.516956e-06
S-o2-bulk = 1.000000e-02
S-o2-base = 9.430683e-03

number of iteration: 1 
S-sub-bulk = 4.411139e-03
S-sub-base = 6.516958e-06
S-o2-bulk = 1.000000e-02
S-o2-base = 9.430682e-03

number of iteration: 1 
S-sub-bulk = 4.411137e-03
S-sub-base = 6.516959e-06
S-o2-bulk = 1.000000e-02
S-o2-base = 9.430682e-03

number of iteration: 1 
S-sub-bulk = 4.411135e-03
S-sub-base = 6.516961e-06
S-o2-bulk = 1.000000e-02
S-o2-base = 9.430681e-03

number of iteration: 1 
S-sub-bulk = 4.411133e-03
S-sub-base = 6.516962e-06
S-o2-bulk = 1.000000e-02
S-o2-base = 9.430681e-03

number of iteration: 1 
S-sub-bulk = 4.411131e-03
S-sub-base = 6.516963e-06
S-o2-bulk = 1.000000e-02
S-o2-base = 9.430681e-03

number of iteration: 1 
S-sub-bulk = 4.411128e-03
S-sub-base = 6.516965e-06
S-o2-bulk = 1.000000e-02
S-o2-base = 9.430680e-03

number of iteration: 1 
S-sub-bulk = 4.411126e-03
S-sub-base = 6.516966e-06
S-o2-bulk = 1.000000e-02
S-o2-base = 9.430680e-03

number of iteration: 1 
S-sub-bulk = 4.411124e-03
S-sub-base = 6.516967e-06
S-o2-bulk = 1.000000e-02
S-o2-base = 9.430680e-03

number of iteration: 1 
S-sub-bulk = 4.411122e-03
S-sub-base = 6.516969e-06
S-o2-bulk = 1.000000e-02
S-o2-base = 9.430679e-03

number of iteration: 1 
S-sub-bulk = 4.411120e-03
S-sub-base = 6.516970e-06
S-o2-bulk = 1.000000e-02
S-o2-base = 9.430679e-03

number of iteration: 1 
S-sub-bulk = 4.411118e-03
S-sub-base = 6.516971e-06
S-o2-bulk = 1.000000e-02
S-o2-base = 9.430679e-03

number of iteration: 1 
S-sub-bulk = 4.411116e-03
S-sub-base = 6.516973e-06
S-o2-bulk = 1.000000e-02
S-o2-base = 9.430678e-03

number of iteration: 1 
S-sub-bulk = 4.411114e-03
S-sub-base = 6.516974e-06
S-o2-bulk = 1.000000e-02
S-o2-base = 9.430678e-03

number of iteration: 1 
S-sub-bulk = 4.411112e-03
S-sub-base = 6.516975e-06
S-o2-bulk = 1.000000e-02
S-o2-base = 9.430678e-03

number of iteration: 1 
S-sub-bulk = 4.411110e-03
S-sub-base = 6.516977e-06
S-o2-bulk = 1.000000e-02
S-o2-base = 9.430677e-03

number of iteration: 1 
S-sub-bulk = 4.411108e-03
S-sub-base = 6.516978e-06
S-o2-bulk = 1.000000e-02
S-o2-base = 9.430677e-03

number of iteration: 1 
S-sub-bulk = 4.411106e-03
S-sub-base = 6.516979e-06
S-o2-bulk = 1.000000e-02
S-o2-base = 9.430677e-03

number of iteration: 1 
S-sub-bulk = 4.411104e-03
S-sub-base = 6.516981e-06
S-o2-bulk = 1.000000e-02
S-o2-base = 9.430676e-03

number of iteration: 1 
S-sub-bulk = 4.411102e-03
S-sub-base = 6.516982e-06
S-o2-bulk = 1.000000e-02
S-o2-base = 9.430676e-03

number of iteration: 1 
S-sub-bulk = 4.411100e-03
S-sub-base = 6.516983e-06
S-o2-bulk = 1.000000e-02
S-o2-base = 9.430676e-03

number of iteration: 1 
S-sub-bulk = 4.411098e-03
S-sub-base = 6.516985e-06
S-o2-bulk = 1.000000e-02
S-o2-base = 9.430675e-03

number of iteration: 1 
S-sub-bulk = 4.411096e-03
S-sub-base = 6.516986e-06
S-o2-bulk = 1.000000e-02
S-o2-base = 9.430675e-03

number of iteration: 1 
S-sub-bulk = 4.411094e-03
S-sub-base = 6.516987e-06
S-o2-bulk = 1.000000e-02
S-o2-base = 9.430675e-03

number of iteration: 1 
S-sub-bulk = 4.411091e-03
S-sub-base = 6.516989e-06
S-o2-bulk = 1.000000e-02
S-o2-base = 9.430674e-03

number of iteration: 1 
S-sub-bulk = 4.411089e-03
S-sub-base = 6.516990e-06
S-o2-bulk = 1.000000e-02
S-o2-base = 9.430674e-03

number of iteration: 1 
S-sub-bulk = 4.411087e-03
S-sub-base = 6.516991e-06
S-o2-bulk = 1.000000e-02
S-o2-base = 9.430674e-03

number of iteration: 1 
S-sub-bulk = 4.411085e-03
S-sub-base = 6.516993e-06
S-o2-bulk = 1.000000e-02
S-o2-base = 9.430673e-03

number of iteration: 1 
S-sub-bulk = 4.411083e-03
S-sub-base = 6.516994e-06
S-o2-bulk = 1.000000e-02
S-o2-base = 9.430673e-03

number of iteration: 1 
S-sub-bulk = 4.411081e-03
S-sub-base = 6.516995e-06
S-o2-bulk = 1.000000e-02
S-o2-base = 9.430672e-03

number of iteration: 1 
S-sub-bulk = 4.411079e-03
S-sub-base = 6.516997e-06
S-o2-bulk = 1.000000e-02
S-o2-base = 9.430672e-03

number of iteration: 1 
S-sub-bulk = 4.411077e-03
S-sub-base = 6.516998e-06
S-o2-bulk = 1.000000e-02
S-o2-base = 9.430672e-03

number of iteration: 1 
S-sub-bulk = 4.411075e-03
S-sub-base = 6.516999e-06
S-o2-bulk = 1.000000e-02
S-o2-base = 9.430671e-03

number of iteration: 1 
S-sub-bulk = 4.411073e-03
S-sub-base = 6.517001e-06
S-o2-bulk = 1.000000e-02
S-o2-base = 9.430671e-03

number of iteration: 1 
S-sub-bulk = 4.411071e-03
S-sub-base = 6.517002e-06
S-o2-bulk = 1.000000e-02
S-o2-base = 9.430671e-03

number of iteration: 1 
S-sub-bulk = 4.411069e-03
S-sub-base = 6.517003e-06
S-o2-bulk = 1.000000e-02
S-o2-base = 9.430670e-03

number of iteration: 1 
S-sub-bulk = 4.411067e-03
S-sub-base = 6.517005e-06
S-o2-bulk = 1.000000e-02
S-o2-base = 9.430670e-03

number of iteration: 1 
S-sub-bulk = 4.411065e-03
S-sub-base = 6.517006e-06
S-o2-bulk = 1.000000e-02
S-o2-base = 9.430670e-03

number of iteration: 1 
S-sub-bulk = 4.411063e-03
S-sub-base = 6.517007e-06
S-o2-bulk = 1.000000e-02
S-o2-base = 9.430669e-03

number of iteration: 1 
S-sub-bulk = 4.411061e-03
S-sub-base = 6.517009e-06
S-o2-bulk = 1.000000e-02
S-o2-base = 9.430669e-03

number of iteration: 1 
S-sub-bulk = 4.411059e-03
S-sub-base = 6.517010e-06
S-o2-bulk = 1.000000e-02
S-o2-base = 9.430669e-03

number of iteration: 1 
S-sub-bulk = 4.411057e-03
S-sub-base = 6.517011e-06
S-o2-bulk = 1.000000e-02
S-o2-base = 9.430668e-03

number of iteration: 1 
S-sub-bulk = 4.411055e-03
S-sub-base = 6.517013e-06
S-o2-bulk = 1.000000e-02
S-o2-base = 9.430668e-03

number of iteration: 1 
S-sub-bulk = 4.411053e-03
S-sub-base = 6.517014e-06
S-o2-bulk = 1.000000e-02
S-o2-base = 9.430668e-03

number of iteration: 1 
S-sub-bulk = 4.411051e-03
S-sub-base = 6.517015e-06
S-o2-bulk = 1.000000e-02
S-o2-base = 9.430667e-03

number of iteration: 1 
S-sub-bulk = 4.411049e-03
S-sub-base = 6.517017e-06
S-o2-bulk = 1.000000e-02
S-o2-base = 9.430667e-03

number of iteration: 1 
S-sub-bulk = 4.411047e-03
S-sub-base = 6.517018e-06
S-o2-bulk = 1.000000e-02
S-o2-base = 9.430667e-03

number of iteration: 1 
S-sub-bulk = 4.411045e-03
S-sub-base = 6.517019e-06
S-o2-bulk = 1.000000e-02
S-o2-base = 9.430666e-03

number of iteration: 1 
S-sub-bulk = 4.411043e-03
S-sub-base = 6.517021e-06
S-o2-bulk = 1.000000e-02
S-o2-base = 9.430666e-03

number of iteration: 1 
S-sub-bulk = 4.411041e-03
S-sub-base = 6.517022e-06
S-o2-bulk = 1.000000e-02
S-o2-base = 9.430666e-03

number of iteration: 1 
S-sub-bulk = 4.411039e-03
S-sub-base = 6.517023e-06
S-o2-bulk = 1.000000e-02
S-o2-base = 9.430665e-03

number of iteration: 1 
S-sub-bulk = 4.411037e-03
S-sub-base = 6.517024e-06
S-o2-bulk = 1.000000e-02
S-o2-base = 9.430665e-03

number of iteration: 1 
S-sub-bulk = 4.411035e-03
S-sub-base = 6.517026e-06
S-o2-bulk = 1.000000e-02
S-o2-base = 9.430665e-03

number of iteration: 1 
S-sub-bulk = 4.411033e-03
S-sub-base = 6.517027e-06
S-o2-bulk = 1.000000e-02
S-o2-base = 9.430664e-03

number of iteration: 1 
S-sub-bulk = 4.411031e-03
S-sub-base = 6.517028e-06
S-o2-bulk = 1.000000e-02
S-o2-base = 9.430664e-03

number of iteration: 1 
S-sub-bulk = 4.411029e-03
S-sub-base = 6.517030e-06
S-o2-bulk = 1.000000e-02
S-o2-base = 9.430663e-03

number of iteration: 1 
S-sub-bulk = 4.411027e-03
S-sub-base = 6.517031e-06
S-o2-bulk = 1.000000e-02
S-o2-base = 9.430663e-03

number of iteration: 1 
S-sub-bulk = 4.411025e-03
S-sub-base = 6.517032e-06
S-o2-bulk = 1.000000e-02
S-o2-base = 9.430663e-03

number of iteration: 1 
S-sub-bulk = 4.411023e-03
S-sub-base = 6.517034e-06
S-o2-bulk = 1.000000e-02
S-o2-base = 9.430662e-03

number of iteration: 1 
S-sub-bulk = 4.411021e-03
S-sub-base = 6.517035e-06
S-o2-bulk = 1.000000e-02
S-o2-base = 9.430662e-03

number of iteration: 1 
S-sub-bulk = 4.411019e-03
S-sub-base = 6.517036e-06
S-o2-bulk = 1.000000e-02
S-o2-base = 9.430662e-03

number of iteration: 1 
S-sub-bulk = 4.411017e-03
S-sub-base = 6.517038e-06
S-o2-bulk = 1.000000e-02
S-o2-base = 9.430661e-03

number of iteration: 1 
S-sub-bulk = 4.411015e-03
S-sub-base = 6.517039e-06
S-o2-bulk = 1.000000e-02
S-o2-base = 9.430661e-03

number of iteration: 1 
S-sub-bulk = 4.411013e-03
S-sub-base = 6.517040e-06
S-o2-bulk = 1.000000e-02
S-o2-base = 9.430661e-03

number of iteration: 1 
S-sub-bulk = 4.411011e-03
S-sub-base = 6.517042e-06
S-o2-bulk = 1.000000e-02
S-o2-base = 9.430660e-03

number of iteration: 1 
S-sub-bulk = 4.411009e-03
S-sub-base = 6.517043e-06
S-o2-bulk = 1.000000e-02
S-o2-base = 9.430660e-03

number of iteration: 1 
S-sub-bulk = 4.411007e-03
S-sub-base = 6.517044e-06
S-o2-bulk = 1.000000e-02
S-o2-base = 9.430660e-03

number of iteration: 1 
S-sub-bulk = 4.411005e-03
S-sub-base = 6.517046e-06
S-o2-bulk = 1.000000e-02
S-o2-base = 9.430659e-03

number of iteration: 1 
S-sub-bulk = 4.411003e-03
S-sub-base = 6.517047e-06
S-o2-bulk = 1.000000e-02
S-o2-base = 9.430659e-03

number of iteration: 1 
S-sub-bulk = 4.411001e-03
S-sub-base = 6.517048e-06
S-o2-bulk = 1.000000e-02
S-o2-base = 9.430659e-03

ERROR: Stop here (../fix_bio_verify.cpp:251)
