LAMMPS (5 Nov 2016)
# NUFEB simulation

atom_style	bio
atom_modify	map array sort 1000 5.0e-7
boundary	pp pp ff
newton		off
processors  * * 1

comm_modify	vel yes

read_data_bio atom.in
  orthogonal box = (0 0 0) to (2e-05 2e-05 0.0006)
  2 by 2 by 1 MPI processor grid
  reading atoms ...
  9 atoms
  5 nutrients

group HET type 1
9 atoms in group HET

neighbor	5e-7 bin
neigh_modify	delay 0 one 2000

##############Define DEM Variables&Commands##############

pair_style  gran/hooke/history 1.e-4 NULL 1.e-5 NULL 0.0 1
pair_coeff  * *

timestep 300

variable kanc equal 50

fix 1 all nve/limit 1e-8
fix fv all viscous 1e-5

fix zw all wall/gran hooke/history 2000 NULL 500.0 NULL 1.5 0 zplane  0.0   6e-04
fix zwa all walladh v_kanc zplane  0.0   6e-04

##############Define IBm Variables##############

#EPS density, ratio variables and division diameter
variable EPSdens equal 30
variable EPSratio equal 1.25
variable divDia equal 4e-6

#kinetics variables
variable etaHET equal 0.0
variable diffT equal 1e-4
variable tol equal 1e-7
variable layer equal 0

##############Define IBm Commands##############

fix k1 all kinetics 1 5 5 150 v_diffT v_layer demflag 0
fix kgm all kinetics/growth/monod v_EPSdens v_etaHET
fix g1 all kinetics/diffusion v_tol pp pp nd kg bulk 2.31e-7 1.25e-3 0.1
fix d1 all divide 1 v_EPSdens v_divDia 31231 demflag 0
fix vf1 all verify 1 bm1 1 demflag 0

##############Simulation Output##############

compute myPres all pressure thermo_temp
compute myHeight all ave_height 10 10

#dump		id all custom 200000 snapshot.bubblemd id type diameter x y z
thermo_style    custom step cpu atoms biomass c_myPres c_myHeight
thermo		1000
thermo_modify	lost ignore

##############Two-loops Run##############

run 10000 pre no post no every 1 "fix_modify k1 demflag 1" "fix_modify vf1 demflag 1" "fix_modify d1 demflag 1" "timestep 1e-3" "run 10000 pre no post no" "timestep 300" "fix_modify k1 demflag 0" "fix_modify vf1 demflag 0" "fix_modify d1 demflag 0"
WARNING: EPS is not defined in fix_kinetics/kinetics/monod (../fix_bio_kinetics_monod.cpp:255)
Neighbor list info ...
  2 neighbor list requests
  update every 1 steps, delay 0 steps, check yes
  max neighbors/atom: 2000, page size: 100000
  master list distance cutoff = 4.5e-06
  ghost atom cutoff = 4.5e-06
  binsize = 2.25e-06 -> bins = 9 9 267
Memory usage per processor = 7.31608 Mbytes
Step CPU Atoms biomass c_myPres c_myHeight 
       0            0        9 3.0159289e-15            0      2.7e-07 
number of iteration: 1807 
height = 6.056208e-07 
S-sub-bulk = 2.998275e-02
S-sub-base = 2.999049e-02
S-o2-bulk = 1.000000e-02
S-o2-base = 9.998280e-03

       1   0.42259097       18 3.0660898e-15  0.002233948 6.0562075e-07 
Loop time of 0.422605 on 4 procs for 1 steps with 18 atoms

99.6% CPU use with 4 MPI tasks x no OpenMP threads
fix_modify k1 demflag 1
fix_modify vf1 demflag 1
fix_modify d1 demflag 1
timestep 1e-3
run 10000 pre no post no
Step CPU Atoms biomass c_myPres c_myHeight 
       1            0       18 3.0660898e-15  0.002233948 6.0562075e-07 
    1000 0.0057148933       18 3.0660898e-15 7.0314589e-06 6.5765948e-07 
    2000  0.012208939       18 3.0660898e-15 4.7542934e-06  6.57672e-07 
    3000  0.017560959       18 3.0660898e-15 4.2901218e-06 6.5767019e-07 
    4000  0.022981882       18 3.0660898e-15 4.2901218e-06 6.5766963e-07 
    5000  0.029460907       18 3.0660898e-15 4.2901218e-06 6.5766908e-07 
    6000  0.035328865       18 3.0660898e-15 4.2901218e-06 6.5766852e-07 
    7000  0.040541887       18 3.0660898e-15 4.2901218e-06 6.5766796e-07 
    8000  0.046118021       18 3.0660898e-15 4.2901218e-06 6.5766741e-07 
    9000  0.051635027       18 3.0660898e-15 4.2901218e-06 6.5766685e-07 
   10000  0.056886911       18 3.0660898e-15 4.2901218e-06 6.5766629e-07 
   10001  0.056910992       18 3.0660898e-15 1.2695736e-05 6.5763269e-07 
Loop time of 0.056922 on 4 procs for 10000 steps with 18 atoms

100.1% CPU use with 4 MPI tasks x no OpenMP threads
timestep 300
fix_modify k1 demflag 0
fix_modify vf1 demflag 0
fix_modify d1 demflag 0
Step CPU Atoms biomass c_myPres c_myHeight 
   10001            0       18 3.0660898e-15 1.2695736e-05 6.5763269e-07 
number of iteration: 1 
height = 6.592478e-07 
S-sub-bulk = 2.998275e-02
S-sub-base = 2.999049e-02
S-o2-bulk = 1.000000e-02
S-o2-base = 9.998279e-03

   10002 0.0022120476       18 3.117085e-15 7.4003864e-05 6.5924782e-07 
Loop time of 0.00222635 on 4 procs for 1 steps with 18 atoms

44.9% CPU use with 4 MPI tasks x no OpenMP threads
fix_modify k1 demflag 1
fix_modify vf1 demflag 1
fix_modify d1 demflag 1
timestep 1e-3
run 10000 pre no post no
Step CPU Atoms biomass c_myPres c_myHeight 
   10002            0       18 3.117085e-15 7.4003864e-05 6.5924782e-07 
   11000 0.0072901249       18 3.117085e-15 2.6249585e-05 6.6043962e-07 
   12000  0.012603998       18 3.117085e-15 2.9339115e-05 6.6041303e-07 
   13000  0.018167019       18 3.117085e-15 2.9339002e-05 6.6041251e-07 
   14000  0.023511171       18 3.117085e-15 2.933889e-05 6.6041172e-07 
   15000   0.02878499       18 3.117085e-15 2.9338777e-05 6.6041123e-07 
   16000  0.035773993       18 3.117085e-15 2.9338664e-05 6.6041041e-07 
   17000  0.041738987       18 3.117085e-15 2.9338552e-05 6.6040988e-07 
   18000  0.047409058       18 3.117085e-15 2.9338439e-05 6.6040915e-07 
   19000  0.053048134       18 3.117085e-15 2.9338326e-05 6.6040839e-07 
   20000  0.058452129       18 3.117085e-15 2.9338214e-05 6.6040785e-07 
   20002  0.058490038       18 3.117085e-15 2.9338214e-05 6.6040897e-07 
Loop time of 0.0585078 on 4 procs for 10000 steps with 18 atoms

100.8% CPU use with 4 MPI tasks x no OpenMP threads
timestep 300
fix_modify k1 demflag 0
fix_modify vf1 demflag 0
fix_modify d1 demflag 0
Step CPU Atoms biomass c_myPres c_myHeight 
   20002            0       18 3.117085e-15 2.9338214e-05 6.6040897e-07 
number of iteration: 1 
height = 6.620571e-07 
S-sub-bulk = 2.998275e-02
S-sub-base = 2.999048e-02
S-o2-bulk = 1.000000e-02
S-o2-base = 9.998278e-03

   20003 0.0021979809       18 3.1689283e-15 9.3030236e-05 6.620571e-07 
Loop time of 0.00221229 on 4 procs for 1 steps with 18 atoms

0.0% CPU use with 4 MPI tasks x no OpenMP threads
fix_modify k1 demflag 1
fix_modify vf1 demflag 1
fix_modify d1 demflag 1
timestep 1e-3
run 10000 pre no post no
Step CPU Atoms biomass c_myPres c_myHeight 
   20003            0       18 3.1689283e-15 9.3030236e-05 6.620571e-07 
   21000 0.0070168972       18 3.1689283e-15 1.915699e-05 6.6298897e-07 
   22000  0.013010025       18 3.1689283e-15 1.8886205e-05 6.6298815e-07 
   23000  0.018344879       18 3.1689283e-15 1.861989e-05 6.6298741e-07 
   24000  0.023830891       18 3.1689283e-15 1.8357092e-05 6.6298677e-07 
   25000  0.029519796       18 3.1689283e-15 1.8099286e-05 6.6298578e-07 
   26000  0.035553932       18 3.1689283e-15 1.7843957e-05 6.6298526e-07 
   27000  0.041876793       18 3.1689283e-15 1.7593763e-05 6.6298441e-07 
   28000  0.047367811       18 3.1689283e-15 1.7347116e-05 6.629834e-07 
   29000  0.052636862       18 3.1689283e-15 1.710422e-05 6.6298289e-07 
   30000  0.058166027       18 3.1689283e-15 1.6865787e-05 6.6298179e-07 
   30003  0.058208942       18 3.1689283e-15 2.9587785e-06 6.6293737e-07 
Loop time of 0.0582255 on 4 procs for 10000 steps with 18 atoms

103.0% CPU use with 4 MPI tasks x no OpenMP threads
timestep 300
fix_modify k1 demflag 0
fix_modify vf1 demflag 0
fix_modify d1 demflag 0
Step CPU Atoms biomass c_myPres c_myHeight 
   30003            0       18 3.1689283e-15 2.9587785e-06 6.6293737e-07 
number of iteration: 1 
height = 6.645812e-07 
S-sub-bulk = 2.998275e-02
S-sub-base = 2.999048e-02
S-o2-bulk = 1.000000e-02
S-o2-base = 9.998276e-03

   30004  0.002215147       18 3.2216339e-15 7.9059014e-05 6.6458122e-07 
Loop time of 0.00222921 on 4 procs for 1 steps with 18 atoms

44.9% CPU use with 4 MPI tasks x no OpenMP threads
fix_modify k1 demflag 1
fix_modify vf1 demflag 1
fix_modify d1 demflag 1
timestep 1e-3
run 10000 pre no post no
Step CPU Atoms biomass c_myPres c_myHeight 
   30004            0       18 3.2216339e-15 7.9059014e-05 6.6458122e-07 
   31000 0.0071201324       18 3.2216339e-15 3.6192588e-06 6.6575977e-07 
   32000  0.012423992       18 3.2216339e-15 3.614439e-06 6.6575869e-07 
   33000  0.018059015       18 3.2216339e-15 3.609622e-06 6.657576e-07 
   34000  0.023378134       18 3.2216339e-15 3.6048083e-06 6.6575652e-07 
   35000  0.028609991       18 3.2216339e-15 3.5999985e-06 6.6575544e-07 
   36000   0.03582406       18 3.2216339e-15 3.5951932e-06 6.6575436e-07 
   37000  0.041150093       18 3.2216339e-15 3.5903929e-06 6.6575329e-07 
   38000  0.046373129       18 3.2216339e-15 3.5855981e-06 6.6575221e-07 
   39000  0.051940918       18 3.2216339e-15 3.5808093e-06 6.6575114e-07 
   40000  0.057244062       18 3.2216339e-15 3.5760271e-06 6.6575006e-07 
   40004  0.057295084       18 3.2216339e-15 3.576008e-06 6.6575006e-07 
Loop time of 0.0573075 on 4 procs for 10000 steps with 18 atoms

101.2% CPU use with 4 MPI tasks x no OpenMP threads
timestep 300
fix_modify k1 demflag 0
fix_modify vf1 demflag 0
fix_modify d1 demflag 0
Step CPU Atoms biomass c_myPres c_myHeight 
   40004            0       18 3.2216339e-15 3.576008e-06 6.6575006e-07 
number of iteration: 1 
height = 6.674907e-07 
S-sub-bulk = 2.998275e-02
S-sub-base = 2.999048e-02
S-o2-bulk = 1.000000e-02
S-o2-base = 9.998275e-03

   40005 0.0021920204       18 3.2752161e-15 9.4921427e-05 6.6749071e-07 
Loop time of 0.00220537 on 4 procs for 1 steps with 18 atoms

45.3% CPU use with 4 MPI tasks x no OpenMP threads
fix_modify k1 demflag 1
fix_modify vf1 demflag 1
fix_modify d1 demflag 1
timestep 1e-3
run 10000 pre no post no
Step CPU Atoms biomass c_myPres c_myHeight 
   40005            0       18 3.2752161e-15 9.4921427e-05 6.6749071e-07 
   41000 0.0070550442       18 3.2752161e-15 1.6303597e-05 6.6847672e-07 
   42000  0.012627125       18 3.2752161e-15 1.6142368e-05 6.6847587e-07 
   43000  0.017946005       18 3.2752161e-15 1.5982629e-05 6.6847523e-07 
   44000  0.023211956       18 3.2752161e-15 1.5825254e-05 6.6847476e-07 
   45000  0.028599977       18 3.2752161e-15 1.5669468e-05 6.6847424e-07 
   46000  0.035157919       18 3.2752161e-15 1.5515648e-05 6.6847354e-07 
   47000  0.040978909       18 3.2752161e-15 1.5363477e-05 6.684726e-07 
   48000  0.046361923       18 3.2752161e-15 1.5213157e-05 6.6847192e-07 
   49000  0.051681995       18 3.2752161e-15 1.506452e-05 6.6847107e-07 
   50000  0.057002068       18 3.2752161e-15 1.4917631e-05 6.6847047e-07 
   50005   0.05706501       18 3.2752161e-15 3.7174076e-06 6.684639e-07 
Loop time of 0.0570812 on 4 procs for 10000 steps with 18 atoms

101.6% CPU use with 4 MPI tasks x no OpenMP threads
timestep 300
fix_modify k1 demflag 0
fix_modify vf1 demflag 0
fix_modify d1 demflag 0
Step CPU Atoms biomass c_myPres c_myHeight 
   50005            0       18 3.2752161e-15 3.7174076e-06 6.684639e-07 
number of iteration: 1 
height = 6.700865e-07 
S-sub-bulk = 2.998275e-02
S-sub-base = 2.999047e-02
S-o2-bulk = 1.000000e-02
S-o2-base = 9.998274e-03

   50006 0.0022838116       18 3.3296895e-15 8.4033546e-05 6.7008646e-07 
Loop time of 0.00229651 on 4 procs for 1 steps with 18 atoms

87.1% CPU use with 4 MPI tasks x no OpenMP threads
fix_modify k1 demflag 1
fix_modify vf1 demflag 1
fix_modify d1 demflag 1
timestep 1e-3
run 10000 pre no post no
Step CPU Atoms biomass c_myPres c_myHeight 
   50006            0       18 3.3296895e-15 8.4033546e-05 6.7008646e-07 
   51000 0.0063340664       18 3.3296895e-15 1.1295222e-05 6.7159836e-07 
   52000  0.012266159       18 3.3296895e-15 1.1292451e-05 6.7159715e-07 
   53000  0.017682076       18 3.3296895e-15 1.1289669e-05 6.7159622e-07 
   54000  0.022865057       18 3.3296895e-15 1.1286877e-05 6.7159504e-07 
   55000  0.028053999       18 3.3296895e-15 1.1284073e-05 6.7159368e-07 
   56000   0.03354907       18 3.3296895e-15 1.1281257e-05 6.7159228e-07 
   57000  0.040297031       18 3.3296895e-15 1.140794e-05 6.716074e-07 
   58000  0.045536041       18 3.3296895e-15 1.1406017e-05 6.7160635e-07 
   59000  0.050872087       18 3.3296895e-15 1.0997493e-05 6.7164459e-07 
   60000  0.056054115       18 3.3296895e-15 1.0995552e-05 6.7164341e-07 
   60006  0.056125164       18 3.3296895e-15 1.099554e-05 6.7164215e-07 
Loop time of 0.0561364 on 4 procs for 10000 steps with 18 atoms

99.8% CPU use with 4 MPI tasks x no OpenMP threads
timestep 300
fix_modify k1 demflag 0
fix_modify vf1 demflag 0
fix_modify d1 demflag 0
Step CPU Atoms biomass c_myPres c_myHeight 
   60006            0       18 3.3296895e-15 1.099554e-05 6.7164215e-07 
number of iteration: 1 
height = 6.733981e-07 
S-sub-bulk = 2.998275e-02
S-sub-base = 2.999047e-02
S-o2-bulk = 1.000000e-02
S-o2-base = 9.998272e-03

   60007 0.0021979809       18 3.3850689e-15 8.2888254e-05 6.7339814e-07 
Loop time of 0.0022102 on 4 procs for 1 steps with 18 atoms

135.7% CPU use with 4 MPI tasks x no OpenMP threads
fix_modify k1 demflag 1
fix_modify vf1 demflag 1
fix_modify d1 demflag 1
timestep 1e-3
run 10000 pre no post no
Step CPU Atoms biomass c_myPres c_myHeight 
   60007            0       18 3.3850689e-15 8.2888254e-05 6.7339814e-07 
   61000 0.0053300858       18 3.3850689e-15 2.3288738e-05 6.7497702e-07 
   62000  0.012431145       18 3.3850689e-15 2.3288697e-05 6.7497593e-07 
   63000  0.017727137       18 3.3850689e-15 2.3288655e-05 6.7497483e-07 
   64000  0.023077965       18 3.3850689e-15 2.3288614e-05 6.7497373e-07 
   65000   0.02850318       18 3.3850689e-15 2.3288572e-05 6.7497264e-07 
   66000  0.033766031       18 3.3850689e-15 2.3288531e-05 6.7497154e-07 
   67000  0.040708065       18 3.3850689e-15 2.3288489e-05 6.7497045e-07 
   68000  0.045991182       18 3.3850689e-15 2.3288448e-05 6.7496935e-07 
   69000  0.051270008       18 3.3850689e-15 2.3288406e-05 6.7496825e-07 
   70000   0.05659318       18 3.3850689e-15 2.3288364e-05 6.7496715e-07 
   70007  0.056671143       18 3.3850689e-15 3.8736303e-06 6.748565e-07 
Loop time of 0.0566814 on 4 procs for 10000 steps with 18 atoms

98.8% CPU use with 4 MPI tasks x no OpenMP threads
timestep 300
fix_modify k1 demflag 0
fix_modify vf1 demflag 0
fix_modify d1 demflag 0
Step CPU Atoms biomass c_myPres c_myHeight 
   70007            0       18 3.3850689e-15 3.8736303e-06 6.748565e-07 
number of iteration: 1 
height = 6.766017e-07 
S-sub-bulk = 2.998275e-02
S-sub-base = 2.999046e-02
S-o2-bulk = 1.000000e-02
S-o2-base = 9.998270e-03

   70008 0.0022070408       18 3.4413693e-15 0.00010695733 6.7660172e-07 
Loop time of 0.00222087 on 4 procs for 1 steps with 18 atoms

135.1% CPU use with 4 MPI tasks x no OpenMP threads
fix_modify k1 demflag 1
fix_modify vf1 demflag 1
fix_modify d1 demflag 1
timestep 1e-3
run 10000 pre no post no
Step CPU Atoms biomass c_myPres c_myHeight 
   70008            0       18 3.4413693e-15 0.00010695733 6.7660172e-07 
   71000 0.0052330494       18 3.4413693e-15 9.6733107e-06 6.780794e-07 
   72000  0.012405157       18 3.4413693e-15 9.673266e-06 6.780785e-07 
   73000  0.017724037       18 3.4413693e-15 9.6732212e-06 6.7807732e-07 
   74000  0.022988081       18 3.4413693e-15 9.6731763e-06 6.7807621e-07 
   75000   0.02828908       18 3.4413693e-15 9.6731314e-06 6.7807528e-07 
   76000  0.033566952       18 3.4413693e-15 9.6730864e-06 6.7807406e-07 
   77000  0.039977074       18 3.4413693e-15 9.6730413e-06 6.7807299e-07 
   78000  0.046122074       18 3.4413693e-15 9.6729961e-06  6.78072e-07 
   79000   0.05141902       18 3.4413693e-15 9.6729509e-06 6.7807088e-07 
   80000  0.056652069       18 3.4413693e-15 9.6729055e-06 6.7806993e-07 
   80008  0.056735992       18 3.4413693e-15 9.6729052e-06 6.7806981e-07 
Loop time of 0.056746 on 4 procs for 10000 steps with 18 atoms

100.4% CPU use with 4 MPI tasks x no OpenMP threads
timestep 300
fix_modify k1 demflag 0
fix_modify vf1 demflag 0
fix_modify d1 demflag 0
Step CPU Atoms biomass c_myPres c_myHeight 
   80008            0       18 3.4413693e-15 9.6729052e-06 6.7806981e-07 
number of iteration: 1 
height = 6.797780e-07 
S-sub-bulk = 2.998275e-02
S-sub-base = 2.999046e-02
S-o2-bulk = 1.000000e-02
S-o2-base = 9.998269e-03

   80009 0.0021708012       18 3.4986062e-15 0.00010944451 6.7977799e-07 
Loop time of 0.00218499 on 4 procs for 1 steps with 18 atoms

0.0% CPU use with 4 MPI tasks x no OpenMP threads
fix_modify k1 demflag 1
fix_modify vf1 demflag 1
fix_modify d1 demflag 1
timestep 1e-3
run 10000 pre no post no
Step CPU Atoms biomass c_myPres c_myHeight 
   80009            0       18 3.4986062e-15 0.00010944451 6.7977799e-07 
   81000 0.0053169727       18 3.4986062e-15 2.089889e-05 6.8148751e-07 
   82000  0.011448145       18 3.4986062e-15 2.0898002e-05 6.8148635e-07 
   83000  0.017765999       18 3.4986062e-15 2.0897113e-05 6.8148518e-07 
   84000  0.023058176       18 3.4986062e-15 2.0896222e-05 6.8148402e-07 
   85000  0.028301001       18 3.4986062e-15 2.0895329e-05 6.8148285e-07 
   86000  0.033569098       18 3.4986062e-15 2.0894434e-05 6.8148218e-07 
   87000  0.038892031       18 3.4986062e-15 2.0893538e-05 6.814815e-07 
   88000  0.046059132       18 3.4986062e-15 2.089264e-05 6.8148082e-07 
   89000  0.051316977       18 3.4986062e-15 2.089174e-05 6.8148014e-07 
   90000  0.056750059       18 3.4986062e-15 2.0890838e-05 6.8147945e-07 
   90009  0.056843042       18 3.4986062e-15 5.3990836e-24 6.8126714e-07 
Loop time of 0.0568526 on 4 procs for 10000 steps with 18 atoms

102.0% CPU use with 4 MPI tasks x no OpenMP threads
timestep 300
fix_modify k1 demflag 0
fix_modify vf1 demflag 0
fix_modify d1 demflag 0
Step CPU Atoms biomass c_myPres c_myHeight 
   90009            0       18 3.4986062e-15 5.3990836e-24 6.8126714e-07 
number of iteration: 1 
height = 6.831321e-07 
S-sub-bulk = 2.998275e-02
S-sub-base = 2.999045e-02
S-o2-bulk = 1.000000e-02
S-o2-base = 9.998267e-03

   90010 0.0021970272       18 3.556795e-15 0.00011312182 6.831321e-07 
Loop time of 0.0022108 on 4 procs for 1 steps with 18 atoms

90.5% CPU use with 4 MPI tasks x no OpenMP threads
fix_modify k1 demflag 1
fix_modify vf1 demflag 1
fix_modify d1 demflag 1
timestep 1e-3
run 10000 pre no post no
Step CPU Atoms biomass c_myPres c_myHeight 
   90010            0       18 3.556795e-15 0.00011312182 6.831321e-07 
   91000 0.0051589012       18 3.556795e-15 2.624987e-06 6.8459446e-07 
   92000  0.010375023       18 3.556795e-15 2.624987e-06 6.8459307e-07 
   93000  0.017529964       18 3.556795e-15 2.6249869e-06 6.8459168e-07 
   94000  0.022755861       18 3.556795e-15 2.6249869e-06 6.845903e-07 
   95000  0.027961969       18 3.556795e-15 2.6249869e-06 6.8458891e-07 
   96000  0.033247948       18 3.556795e-15 2.6249868e-06 6.8458753e-07 
   97000  0.038507938       18 3.556795e-15 2.6249868e-06 6.8458617e-07 
   98000  0.045156956       18 3.556795e-15 2.6249868e-06 6.8458485e-07 
   99000   0.05089283       18 3.556795e-15 2.6249867e-06 6.8458352e-07 
  100000   0.05616188       18 3.556795e-15 2.6249867e-06 6.845822e-07 
  100010   0.05625701       18 3.556795e-15 2.6249867e-06 6.8458219e-07 
Loop time of 0.0562658 on 4 procs for 10000 steps with 18 atoms

99.5% CPU use with 4 MPI tasks x no OpenMP threads
timestep 300
fix_modify k1 demflag 0
fix_modify vf1 demflag 0
fix_modify d1 demflag 0
Step CPU Atoms biomass c_myPres c_myHeight 
  100010            0       18 3.556795e-15 2.6249867e-06 6.8458219e-07 
number of iteration: 1 
height = 6.863253e-07 
S-sub-bulk = 2.998275e-02
S-sub-base = 2.999045e-02
S-o2-bulk = 1.000000e-02
S-o2-base = 9.998265e-03

  100011 0.0022110939       18 3.6159516e-15 0.00010404917 6.8632527e-07 
Loop time of 0.00222421 on 4 procs for 1 steps with 18 atoms

179.8% CPU use with 4 MPI tasks x no OpenMP threads
fix_modify k1 demflag 1
fix_modify vf1 demflag 1
fix_modify d1 demflag 1
timestep 1e-3
run 10000 pre no post no
Step CPU Atoms biomass c_myPres c_myHeight 
  100011            0       18 3.6159516e-15 0.00010404917 6.8632527e-07 
  101000 0.0051898956       18 3.6159516e-15 1.2081464e-05 6.8773743e-07 
  102000  0.010392904       18 3.6159516e-15 1.2081124e-05 6.8773597e-07 
  103000  0.016920805       18 3.6159516e-15 1.2080783e-05 6.8773451e-07 
  104000  0.022781849       18 3.6159516e-15 1.208044e-05 6.8773305e-07 
  105000  0.027981997       18 3.6159516e-15 1.2080097e-05 6.8773158e-07 
  106000   0.03320694       18 3.6159516e-15 1.2079752e-05 6.8773012e-07 
  107000  0.038455963       18 3.6159516e-15 1.2079406e-05 6.8772866e-07 
  108000  0.043686867       18 3.6159516e-15 1.2079058e-05 6.8772719e-07 
  109000   0.05053401       18 3.6159516e-15 1.207871e-05 6.8772573e-07 
  110000  0.055734873       18 3.6159516e-15 1.207836e-05 6.8772427e-07 
  110011  0.055835009       18 3.6159516e-15 6.3683042e-07 6.8754352e-07 
Loop time of 0.0558445 on 4 procs for 10000 steps with 18 atoms

98.5% CPU use with 4 MPI tasks x no OpenMP threads
timestep 300
fix_modify k1 demflag 0
fix_modify vf1 demflag 0
fix_modify d1 demflag 0
Step CPU Atoms biomass c_myPres c_myHeight 
  110011            0       18 3.6159516e-15 6.3683042e-07 6.8754352e-07 
number of iteration: 1 
height = 6.893952e-07 
S-sub-bulk = 2.998275e-02
S-sub-base = 2.999044e-02
S-o2-bulk = 1.000000e-02
S-o2-base = 9.998263e-03

  110012 0.0021979809       18 3.6760921e-15 9.7906183e-05 6.8939518e-07 
Loop time of 0.00221139 on 4 procs for 1 steps with 18 atoms

45.2% CPU use with 4 MPI tasks x no OpenMP threads
fix_modify k1 demflag 1
fix_modify vf1 demflag 1
fix_modify d1 demflag 1
timestep 1e-3
run 10000 pre no post no
Step CPU Atoms biomass c_myPres c_myHeight 
  110012            0       18 3.6760921e-15 9.7906183e-05 6.8939518e-07 
  111000 0.0051250458       18 3.6760921e-15 1.1276684e-06 6.9067497e-07 
  112000  0.010362148       18 3.6760921e-15 1.1276194e-06 6.9067355e-07 
  113000  0.015736103       18 3.6760921e-15 1.1275704e-06 6.9067213e-07 
  114000  0.022746086       18 3.6760921e-15 1.1275214e-06 6.9067071e-07 
  115000  0.027938128       18 3.6760921e-15 1.1274724e-06 6.9066929e-07 
  116000  0.033173084       18 3.6760921e-15 1.1274234e-06 6.9066788e-07 
  117000  0.038355112       18 3.6760921e-15 1.1273744e-06 6.9066646e-07 
  118000  0.043478012       18 3.6760921e-15 1.1273255e-06 6.9066504e-07 
  119000  0.050382137       18 3.6760921e-15 1.1272765e-06 6.9066363e-07 
  120000   0.05559516       18 3.6760921e-15 1.1272276e-06 6.9066222e-07 
  120012  0.055698156       18 3.6760921e-15 1.127227e-06 6.906622e-07 
Loop time of 0.0557098 on 4 procs for 10000 steps with 18 atoms

100.5% CPU use with 4 MPI tasks x no OpenMP threads
timestep 300
fix_modify k1 demflag 0
fix_modify vf1 demflag 0
fix_modify d1 demflag 0
Step CPU Atoms biomass c_myPres c_myHeight 
  120012            0       18 3.6760921e-15 1.127227e-06 6.906622e-07 
number of iteration: 1 
height = 6.924914e-07 
S-sub-bulk = 2.998275e-02
S-sub-base = 2.999043e-02
S-o2-bulk = 1.000000e-02
S-o2-base = 9.998261e-03

  120013 0.0022170544       18 3.7372329e-15 0.00011167263 6.9249143e-07 
Loop time of 0.00222999 on 4 procs for 1 steps with 18 atoms

134.5% CPU use with 4 MPI tasks x no OpenMP threads
fix_modify k1 demflag 1
fix_modify vf1 demflag 1
fix_modify d1 demflag 1
timestep 1e-3
run 10000 pre no post no
Step CPU Atoms biomass c_myPres c_myHeight 
  120013            0       18 3.7372329e-15 0.00011167263 6.9249143e-07 
  121000 0.0053098202       18 3.7372329e-15 2.861998e-05 6.9444412e-07 
  122000  0.010733843       18 3.7372329e-15  2.82149e-05 6.9444288e-07 
  123000  0.016034842       18 3.7372329e-15 2.7818036e-05 6.9444138e-07 
  124000  0.023012877       18 3.7372329e-15 2.7427629e-05 6.9444022e-07 
  125000  0.028385878       18 3.7372329e-15 2.7044156e-05  6.94439e-07 
  126000  0.033685923       18 3.7372329e-15 2.6668526e-05 6.9443745e-07 
  127000  0.039001942       18 3.7372329e-15 2.6299166e-05 6.9443614e-07 
  128000  0.044262886       18 3.7372329e-15 2.5935545e-05 6.9443504e-07 
  129000  0.050192833       18 3.7372329e-15 2.5578753e-05 6.9443371e-07 
  130000  0.058736801       18 3.7372329e-15 2.522755e-05 6.9443241e-07 
  130013  0.058875799       18 3.7372329e-15 1.197028e-05 6.9431755e-07 
Loop time of 0.0588889 on 4 procs for 10000 steps with 18 atoms

100.2% CPU use with 4 MPI tasks x no OpenMP threads
timestep 300
fix_modify k1 demflag 0
fix_modify vf1 demflag 0
fix_modify d1 demflag 0
Step CPU Atoms biomass c_myPres c_myHeight 
  130013            0       18 3.7372329e-15 1.197028e-05 6.9431755e-07 
number of iteration: 1 
height = 6.961199e-07 
S-sub-bulk = 2.998275e-02
S-sub-base = 2.999043e-02
S-o2-bulk = 1.000000e-02
S-o2-base = 9.998259e-03

  130014  0.002147913       18 3.7993906e-15 0.00012428243 6.9611994e-07 
Loop time of 0.00216126 on 4 procs for 1 steps with 18 atoms

46.3% CPU use with 4 MPI tasks x no OpenMP threads
fix_modify k1 demflag 1
fix_modify vf1 demflag 1
fix_modify d1 demflag 1
timestep 1e-3
run 10000 pre no post no
Step CPU Atoms biomass c_myPres c_myHeight 
  130014            0       18 3.7993906e-15 0.00012428243 6.9611994e-07 
  131000  0.005398035       18 3.7993906e-15 1.4245064e-05 6.9850289e-07 
  132000  0.011061907       18 3.7993906e-15 1.4244791e-05 6.9850181e-07 
  133000  0.016361952       18 3.7993906e-15 1.4244517e-05 6.9850068e-07 
  134000  0.023572922       18 3.7993906e-15 1.4244244e-05 6.9849971e-07 
  135000   0.02895093       18 3.7993906e-15 1.4243971e-05 6.984985e-07 
  136000  0.034219027       18 3.7993906e-15 1.4243698e-05 6.9849761e-07 
  137000   0.03948307       18 3.7993906e-15 1.4243425e-05 6.9849659e-07 
  138000  0.044902086       18 3.7993906e-15 1.4243152e-05 6.9849664e-07 
  139000  0.051562071       18 3.7993906e-15 1.4242879e-05 6.9852151e-07 
  140000  0.057344913       18 3.7993906e-15 1.4242606e-05 6.9852039e-07 
  140014  0.057465076       18 3.7993906e-15 1.4242602e-05 6.9852037e-07 
Loop time of 0.0574751 on 4 procs for 10000 steps with 18 atoms

100.9% CPU use with 4 MPI tasks x no OpenMP threads
timestep 300
fix_modify k1 demflag 0
fix_modify vf1 demflag 0
fix_modify d1 demflag 0
Step CPU Atoms biomass c_myPres c_myHeight 
  140014            0       18 3.7993906e-15 1.4242602e-05 6.9852037e-07 
number of iteration: 1 
height = 7.002810e-07 
S-sub-bulk = 2.998275e-02
S-sub-base = 2.999042e-02
S-o2-bulk = 1.000000e-02
S-o2-base = 9.998257e-03

  140015 0.0022261143       18 3.8625821e-15 0.00010789833 7.0028098e-07 
Loop time of 0.00223899 on 4 procs for 1 steps with 18 atoms

44.7% CPU use with 4 MPI tasks x no OpenMP threads
fix_modify k1 demflag 1
fix_modify vf1 demflag 1
fix_modify d1 demflag 1
timestep 1e-3
run 10000 pre no post no
Step CPU Atoms biomass c_myPres c_myHeight 
  140015            0       18 3.8625821e-15 0.00010789833 7.0028098e-07 
  141000 0.0052778721       18 3.8625821e-15 2.1998374e-05 7.0243374e-07 
  142000  0.010565996       18 3.8625821e-15 2.1515839e-05 7.0243271e-07 
  143000   0.01589489       18 3.8625821e-15 2.1042405e-05 7.0243152e-07 
  144000   0.02265501       18 3.8625821e-15 2.0578261e-05 7.0243049e-07 
  145000  0.028590918       18 3.8625821e-15 2.012352e-05 7.0242919e-07 
  146000  0.033937931       18 3.8625821e-15 1.9677281e-05 7.0242808e-07 
  147000  0.039214849       18 3.8625821e-15 1.9239569e-05 7.0242686e-07 
  148000  0.044453859       18 3.8625821e-15 1.8809286e-05 7.024259e-07 
  149000  0.050284863       18 3.8625821e-15 1.8387573e-05 7.0242478e-07 
  150000  0.057148933       18 3.8625821e-15 1.8019805e-05 7.024241e-07 
  150015  0.057283878       18 3.8625821e-15 5.429344e-06 7.0237116e-07 
Loop time of 0.0572944 on 4 procs for 10000 steps with 18 atoms

99.5% CPU use with 4 MPI tasks x no OpenMP threads
timestep 300
fix_modify k1 demflag 0
fix_modify vf1 demflag 0
fix_modify d1 demflag 0
Step CPU Atoms biomass c_myPres c_myHeight 
  150015            0       18 3.8625821e-15 5.429344e-06 7.0237116e-07 
number of iteration: 1 
height = 7.041322e-07 
S-sub-bulk = 2.998275e-02
S-sub-base = 2.999042e-02
S-o2-bulk = 1.000000e-02
S-o2-base = 9.998255e-03

  150016 0.0022251606       18 3.9268246e-15 0.00012560572 7.0413217e-07 
Loop time of 0.00223756 on 4 procs for 1 steps with 18 atoms

134.1% CPU use with 4 MPI tasks x no OpenMP threads
fix_modify k1 demflag 1
fix_modify vf1 demflag 1
fix_modify d1 demflag 1
timestep 1e-3
run 10000 pre no post no
Step CPU Atoms biomass c_myPres c_myHeight 
  150016            0       18 3.9268246e-15 0.00012560572 7.0413217e-07 
  151000 0.0052909851       18 3.9268246e-15 7.8852657e-06 7.0631377e-07 
  152000  0.010711908       18 3.9268246e-15 7.8850974e-06 7.0631264e-07 
  153000  0.015962839       18 3.9268246e-15 7.884929e-06 7.0631166e-07 
  154000  0.022104025       18 3.9268246e-15 7.8847607e-06 7.0631048e-07 
  155000  0.028445959       18 3.9268246e-15 7.8845924e-06 7.0630945e-07 
  156000  0.033707857       18 3.9268246e-15 7.8844241e-06 7.0630831e-07 
  157000  0.039080858       18 3.9268246e-15 7.8842558e-06 7.0630756e-07 
  158000  0.044428825       18 3.9268246e-15 7.8840875e-06 7.0630676e-07 
  159000  0.049665928       18 3.9268246e-15 7.8839193e-06 7.0631108e-07 
  160000  0.056849003       18 3.9268246e-15 7.883751e-06 7.0633093e-07 
  160016  0.056982994       18 3.9268246e-15 7.8837483e-06 7.0633092e-07 
Loop time of 0.0569921 on 4 procs for 10000 steps with 18 atoms

98.3% CPU use with 4 MPI tasks x no OpenMP threads
timestep 300
fix_modify k1 demflag 0
fix_modify vf1 demflag 0
fix_modify d1 demflag 0
Step CPU Atoms biomass c_myPres c_myHeight 
  160016            0       18 3.9268246e-15 7.8837483e-06 7.0633092e-07 
number of iteration: 1 
height = 7.080712e-07 
S-sub-bulk = 2.998275e-02
S-sub-base = 2.999041e-02
S-o2-bulk = 1.000000e-02
S-o2-base = 9.998253e-03

  160017  0.002259016       18 3.9921356e-15 0.00011900972 7.0807125e-07 
Loop time of 0.00227165 on 4 procs for 1 steps with 18 atoms

176.1% CPU use with 4 MPI tasks x no OpenMP threads
fix_modify k1 demflag 1
fix_modify vf1 demflag 1
fix_modify d1 demflag 1
timestep 1e-3
run 10000 pre no post no
Step CPU Atoms biomass c_myPres c_myHeight 
  160017            0       18 3.9921356e-15 0.00011900972 7.0807125e-07 
  161000 0.0051958561       18 3.9921356e-15 2.3625456e-05 7.1048832e-07 
  162000  0.010541916       18 3.9921356e-15 2.3039689e-05 7.1048784e-07 
  163000  0.015990973       18 3.9921356e-15 2.2471863e-05 7.104867e-07 
  164000  0.021236897       18 3.9921356e-15 2.1914893e-05 7.1048573e-07 
  165000  0.028364897       18 3.9921356e-15  2.13702e-05 7.1048458e-07 
  166000  0.033727884       18 3.9921356e-15 2.083616e-05 7.1048358e-07 
  167000  0.039029837       18 3.9921356e-15 2.0312917e-05 7.1048245e-07 
  168000  0.044342995       18 3.9921356e-15 1.9799412e-05 7.1048145e-07 
  169000  0.049669981       18 3.9921356e-15 1.9635099e-05 7.1048086e-07 
  170000  0.056313992       18 3.9921356e-15 1.9629092e-05 7.1047979e-07 
  170017  0.056460857       18 3.9921356e-15 2.1253835e-06 7.1046954e-07 
Loop time of 0.0564731 on 4 procs for 10000 steps with 18 atoms

99.2% CPU use with 4 MPI tasks x no OpenMP threads
timestep 300
fix_modify k1 demflag 0
fix_modify vf1 demflag 0
fix_modify d1 demflag 0
Step CPU Atoms biomass c_myPres c_myHeight 
  170017            0       18 3.9921356e-15 2.1253835e-06 7.1046954e-07 
number of iteration: 1 
height = 7.122067e-07 
S-sub-bulk = 2.998275e-02
S-sub-base = 2.999040e-02
S-o2-bulk = 1.000000e-02
S-o2-base = 9.998250e-03

  170018 0.0023958683       18 4.0585328e-15 0.00012472693 7.1220674e-07 
Loop time of 0.00240993 on 4 procs for 1 steps with 18 atoms

124.5% CPU use with 4 MPI tasks x no OpenMP threads
fix_modify k1 demflag 1
fix_modify vf1 demflag 1
fix_modify d1 demflag 1
timestep 1e-3
run 10000 pre no post no
Step CPU Atoms biomass c_myPres c_myHeight 
  170018            0       18 4.0585328e-15 0.00012472693 7.1220674e-07 
  171000 0.0054340363       18 4.0585328e-15 1.1991058e-05 7.1505175e-07 
  172000  0.010856867       18 4.0585328e-15 1.2035818e-05 7.150533e-07 
  173000  0.016305923       18 4.0585328e-15 1.2035972e-05 7.1505444e-07 
  174000  0.021621943       18 4.0585328e-15 1.2036126e-05 7.150555e-07 
  175000  0.028478861       18 4.0585328e-15 1.2036279e-05 7.1505581e-07 
  176000  0.034392834       18 4.0585328e-15 1.2036432e-05 7.1505334e-07 
  177000  0.039844036       18 4.0585328e-15 1.2036584e-05 7.1504497e-07 
  178000  0.045235872       18 4.0585328e-15 1.2036737e-05 7.1503101e-07 
  179000   0.05061698       18 4.0585328e-15 1.1008381e-05 7.151391e-07 
  180000   0.05597806       18 4.0585328e-15 1.1960768e-05 7.1513161e-07 
  180018  0.056157827       18 4.0585328e-15 1.1960737e-05 7.1513159e-07 
Loop time of 0.056169 on 4 procs for 10000 steps with 18 atoms

99.7% CPU use with 4 MPI tasks x no OpenMP threads
timestep 300
fix_modify k1 demflag 0
fix_modify vf1 demflag 0
fix_modify d1 demflag 0
Step CPU Atoms biomass c_myPres c_myHeight 
  180018            0       18 4.0585328e-15 1.1960737e-05 7.1513159e-07 
number of iteration: 1 
height = 7.169672e-07 
S-sub-bulk = 2.998275e-02
S-sub-base = 2.999040e-02
S-o2-bulk = 1.000000e-02
S-o2-base = 9.998248e-03

  180019 0.0025961399       18 4.1260343e-15 0.00010634443 7.1696716e-07 
Loop time of 0.00261068 on 4 procs for 1 steps with 18 atoms

38.3% CPU use with 4 MPI tasks x no OpenMP threads
fix_modify k1 demflag 1
fix_modify vf1 demflag 1
fix_modify d1 demflag 1
timestep 1e-3
run 10000 pre no post no
Step CPU Atoms biomass c_myPres c_myHeight 
  180019            0       18 4.1260343e-15 0.00010634443 7.1696716e-07 
  181000 0.0062849522       18 4.1260343e-15 2.1842354e-05 7.2012939e-07 
  182000  0.011729002       18 4.1260343e-15 2.0414778e-05 7.2013048e-07 
  183000  0.017197132       18 4.1260343e-15 1.9752356e-05 7.201297e-07 
  184000  0.022563934       18 4.1260343e-15 1.9104862e-05 7.2012896e-07 
  185000  0.028136969       18 4.1260343e-15 1.8471849e-05 7.201283e-07 
  186000  0.035676956       18 4.1260343e-15 1.7852543e-05 7.2012756e-07 
  187000  0.041104078       18 4.1260343e-15 1.7246594e-05 7.2012709e-07 
  188000  0.046442032       18 4.1260343e-15 1.7132812e-05 7.2012551e-07 
  189000  0.051857948       18 4.1260343e-15 1.7130836e-05 7.2012482e-07 
  190000  0.057297945       18 4.1260343e-15 1.7128858e-05 7.2012414e-07 
  190019  0.057446003       18 4.1260343e-15 7.9823682e-06 7.1993684e-07 
Loop time of 0.0574572 on 4 procs for 10000 steps with 18 atoms

102.7% CPU use with 4 MPI tasks x no OpenMP threads
timestep 300
fix_modify k1 demflag 0
fix_modify vf1 demflag 0
fix_modify d1 demflag 0
Step CPU Atoms biomass c_myPres c_myHeight 
  190019            0       18 4.1260343e-15 7.9823682e-06 7.1993684e-07 
number of iteration: 1 
height = 7.218702e-07 
S-sub-bulk = 2.998275e-02
S-sub-base = 2.999039e-02
S-o2-bulk = 1.000000e-02
S-o2-base = 9.998245e-03

  190020 0.0023500919       18 4.1946586e-15 0.00013876322 7.2187019e-07 
Loop time of 0.00236958 on 4 procs for 1 steps with 18 atoms

42.2% CPU use with 4 MPI tasks x no OpenMP threads
fix_modify k1 demflag 1
fix_modify vf1 demflag 1
fix_modify d1 demflag 1
timestep 1e-3
run 10000 pre no post no
Step CPU Atoms biomass c_myPres c_myHeight 
  190020            0       18 4.1946586e-15 0.00013876322 7.2187019e-07 
  191000 0.0070800781       18 4.1946586e-15 5.9915774e-06 7.2546246e-07 
  192000  0.012433052       18 4.1946586e-15 5.9915774e-06 7.2546119e-07 
  193000  0.017634153       18 4.1946586e-15 5.9915773e-06 7.2545989e-07 
  194000  0.022920132       18 4.1946586e-15 5.9915773e-06 7.2545857e-07 
  195000  0.028148174       18 4.1946586e-15 5.9915773e-06 7.2545724e-07 
  196000  0.035161972       18 4.1946586e-15 5.9915772e-06 7.2545592e-07 
  197000  0.040471077       18 4.1946586e-15 5.9915772e-06 7.2545459e-07 
  198000  0.045737028       18 4.1946586e-15 5.9915772e-06 7.2545327e-07 
  199000  0.050994158       18 4.1946586e-15 5.9915771e-06 7.2545194e-07 
  200000  0.056318998       18 4.1946586e-15 5.9915771e-06 7.2545062e-07 
  200020  0.056471109       18 4.1946586e-15 5.9915771e-06 7.2545059e-07 
Loop time of 0.0564826 on 4 procs for 10000 steps with 18 atoms

100.9% CPU use with 4 MPI tasks x no OpenMP threads
timestep 300
fix_modify k1 demflag 0
fix_modify vf1 demflag 0
fix_modify d1 demflag 0
Step CPU Atoms biomass c_myPres c_myHeight 
  200020            0       18 4.1946586e-15 5.9915771e-06 7.2545059e-07 
number of iteration: 1 
height = 7.273110e-07 
S-sub-bulk = 2.998275e-02
S-sub-base = 2.999038e-02
S-o2-bulk = 1.000000e-02
S-o2-base = 9.998242e-03

  200021 0.0021979809       18 4.2644241e-15 0.00014073041 7.2731105e-07 
Loop time of 0.00221372 on 4 procs for 1 steps with 18 atoms

45.2% CPU use with 4 MPI tasks x no OpenMP threads
fix_modify k1 demflag 1
fix_modify vf1 demflag 1
fix_modify d1 demflag 1
timestep 1e-3
run 10000 pre no post no
Step CPU Atoms biomass c_myPres c_myHeight 
  200021            0       18 4.2644241e-15 0.00014073041 7.2731105e-07 
  201000 0.0071120262       18 4.2644241e-15 3.1150037e-05 7.3073745e-07 
  202000  0.012521982       18 4.2644241e-15 3.1131848e-05 7.3073639e-07 
  203000  0.017863989       18 4.2644241e-15 3.111365e-05 7.3073532e-07 
  204000  0.023211956       18 4.2644241e-15 3.1095444e-05 7.3073425e-07 
  205000  0.028595924       18 4.2644241e-15 3.1077228e-05 7.3073318e-07 
  206000  0.035297871       18 4.2644241e-15 3.1059004e-05 7.3073211e-07 
  207000   0.04104495       18 4.2644241e-15 3.104077e-05 7.3073103e-07 
  208000  0.046483994       18 4.2644241e-15 3.1022528e-05 7.3072996e-07 
  209000  0.051846027       18 4.2644241e-15 3.1004277e-05 7.3072888e-07 
  210000  0.057214975       18 4.2644241e-15 3.0986017e-05 7.3072786e-07 
  210021  0.057370901       18 4.2644241e-15 6.5809014e-24 7.3085299e-07 
Loop time of 0.0573821 on 4 procs for 10000 steps with 18 atoms

99.3% CPU use with 4 MPI tasks x no OpenMP threads
timestep 300
fix_modify k1 demflag 0
fix_modify vf1 demflag 0
fix_modify d1 demflag 0
Step CPU Atoms biomass c_myPres c_myHeight 
  210021            0       18 4.2644241e-15 6.5809014e-24 7.3085299e-07 
number of iteration: 1 
height = 7.324932e-07 
S-sub-bulk = 2.998275e-02
S-sub-base = 2.999037e-02
S-o2-bulk = 1.000000e-02
S-o2-base = 9.998240e-03

  210022  0.002229929       18  4.33535e-15 0.00013834924 7.3249321e-07 
Loop time of 0.002244 on 4 procs for 1 steps with 18 atoms

89.1% CPU use with 4 MPI tasks x no OpenMP threads
fix_modify k1 demflag 1
fix_modify vf1 demflag 1
fix_modify d1 demflag 1
timestep 1e-3
run 10000 pre no post no
Step CPU Atoms biomass c_myPres c_myHeight 
  210022            0       18  4.33535e-15 0.00013834924 7.3249321e-07 
  211000 0.0069599152       18  4.33535e-15 1.1803135e-05 7.3774018e-07 
  212000   0.01236105       18  4.33535e-15 1.1803184e-05 7.377389e-07 
  213000  0.017612934       18  4.33535e-15 1.1803233e-05 7.3773762e-07 
  214000  0.022948027       18  4.33535e-15 1.1803282e-05 7.3773634e-07 
  215000  0.028300047       18  4.33535e-15 1.1803332e-05 7.3773507e-07 
  216000  0.034473896       18  4.33535e-15 1.1803381e-05 7.377338e-07 
  217000  0.040744066       18  4.33535e-15 1.180343e-05 7.3773253e-07 
  218000  0.045978069       18  4.33535e-15 1.1803479e-05 7.3773127e-07 
  219000  0.051200867       18  4.33535e-15 1.1803528e-05 7.3773001e-07 
  220000  0.056498051       18  4.33535e-15 1.1803577e-05 7.3772875e-07 
  220022  0.056659937       18  4.33535e-15 1.1803579e-05 7.3772872e-07 
Loop time of 0.0566728 on 4 procs for 10000 steps with 18 atoms

98.8% CPU use with 4 MPI tasks x no OpenMP threads
timestep 300
fix_modify k1 demflag 0
fix_modify vf1 demflag 0
fix_modify d1 demflag 0
Step CPU Atoms biomass c_myPres c_myHeight 
  220022            0       18  4.33535e-15 1.1803579e-05 7.3772872e-07 
number of iteration: 1 
height = 7.394777e-07 
S-sub-bulk = 2.998275e-02
S-sub-base = 2.999036e-02
S-o2-bulk = 1.000000e-02
S-o2-base = 9.998237e-03

  220023 0.0022280216       18 4.4074556e-15 0.00012837192 7.3947768e-07 
Loop time of 0.00224161 on 4 procs for 1 steps with 18 atoms

178.4% CPU use with 4 MPI tasks x no OpenMP threads
fix_modify k1 demflag 1
fix_modify vf1 demflag 1
fix_modify d1 demflag 1
timestep 1e-3
run 10000 pre no post no
Step CPU Atoms biomass c_myPres c_myHeight 
  220023            0       18 4.4074556e-15 0.00012837192 7.3947768e-07 
  221000 0.0058608055       18 4.4074556e-15 2.1381995e-05 7.4378164e-07 
  222000  0.012445927       18 4.4074556e-15 2.1381598e-05 7.4378037e-07 
  223000  0.017702818       18 4.4074556e-15  2.13812e-05 7.4377937e-07 
  224000  0.023029804       18 4.4074556e-15 2.1380801e-05 7.4377852e-07 
  225000  0.028366804       18 4.4074556e-15 2.1380401e-05 7.4377767e-07 
  226000  0.033571005       18 4.4074556e-15 2.1379999e-05 7.4377682e-07 
  227000  0.040630817       18 4.4074556e-15 2.1379597e-05 7.4377597e-07 
  228000  0.045937777       18 4.4074556e-15 2.1379194e-05 7.4377512e-07 
  229000  0.051196814       18 4.4074556e-15 2.1378789e-05 7.4377426e-07 
  230000  0.056432009       18 4.4074556e-15 2.1378384e-05 7.437734e-07 
  230023  0.056598902       18 4.4074556e-15 3.882787e-06 7.4357093e-07 
Loop time of 0.0566102 on 4 procs for 10000 steps with 18 atoms

98.9% CPU use with 4 MPI tasks x no OpenMP threads
timestep 300
fix_modify k1 demflag 0
fix_modify vf1 demflag 0
fix_modify d1 demflag 0
Step CPU Atoms biomass c_myPres c_myHeight 
  230023            0       18 4.4074556e-15 3.882787e-06 7.4357093e-07 
number of iteration: 1 
height = 7.455583e-07 
S-sub-bulk = 2.998275e-02
S-sub-base = 2.999035e-02
S-o2-bulk = 1.000000e-02
S-o2-base = 9.998234e-03

  230024 0.0021879673       18 4.4807604e-15 0.00013282922 7.4555828e-07 
Loop time of 0.0022037 on 4 procs for 1 steps with 18 atoms

136.1% CPU use with 4 MPI tasks x no OpenMP threads
fix_modify k1 demflag 1
fix_modify vf1 demflag 1
fix_modify d1 demflag 1
timestep 1e-3
run 10000 pre no post no
Step CPU Atoms biomass c_myPres c_myHeight 
  230024            0       18 4.4807604e-15 0.00013282922 7.4555828e-07 
  231000 0.0052511692       18 4.4807604e-15 8.0379989e-06 7.5028576e-07 
  232000  0.012505054       18 4.4807604e-15 8.0379632e-06 7.502845e-07 
  233000  0.017913103       18 4.4807604e-15 8.0379276e-06 7.5028323e-07 
  234000  0.023194075       18 4.4807604e-15 8.0378919e-06 7.5028196e-07 
  235000  0.028429031       18 4.4807604e-15 8.0378563e-06 7.5028069e-07 
  236000  0.033653021       18 4.4807604e-15 8.0378206e-06 7.5027943e-07 
  237000  0.040093184       18 4.4807604e-15 8.037785e-06 7.5027816e-07 
  238000  0.045949221       18 4.4807604e-15 1.4968467e-05 7.5032183e-07 
  239000  0.051331043       18 4.4807604e-15 1.4965693e-05 7.5032058e-07 
  240000  0.056657076       18 4.4807604e-15 1.4888358e-05 7.5033481e-07 
  240024  0.056827068       18 4.4807604e-15 1.4888291e-05 7.5033478e-07 
Loop time of 0.0568383 on 4 procs for 10000 steps with 18 atoms

100.3% CPU use with 4 MPI tasks x no OpenMP threads
timestep 300
fix_modify k1 demflag 0
fix_modify vf1 demflag 0
fix_modify d1 demflag 0
Step CPU Atoms biomass c_myPres c_myHeight 
  240024            0       18 4.4807604e-15 1.4888291e-05 7.5033478e-07 
number of iteration: 1 
height = 7.522829e-07 
S-sub-bulk = 2.998275e-02
S-sub-base = 2.999035e-02
S-o2-bulk = 1.000000e-02
S-o2-base = 9.998231e-03

  240025 0.0021901131       18 4.5552845e-15 0.00011300067 7.5228295e-07 
Loop time of 0.00220442 on 4 procs for 1 steps with 18 atoms

0.0% CPU use with 4 MPI tasks x no OpenMP threads
fix_modify k1 demflag 1
fix_modify vf1 demflag 1
fix_modify d1 demflag 1
timestep 1e-3
run 10000 pre no post no
Step CPU Atoms biomass c_myPres c_myHeight 
  240025            0       18 4.5552845e-15 0.00011300067 7.5228295e-07 
  241000 0.0050599575       18 4.5552845e-15 2.4072192e-06 7.5612775e-07 
  242000  0.011631966       18 4.5552845e-15 2.4072192e-06 7.5612675e-07 
  243000  0.017462969       18 4.5552845e-15 2.4072191e-06 7.5612576e-07 
  244000  0.022629023       18 4.5552845e-15 2.4072191e-06 7.5612477e-07 
  245000  0.027922869       18 4.5552845e-15 2.4072191e-06 7.5612377e-07 
  246000  0.033516884       18 4.5552845e-15 2.407219e-06 7.5612278e-07 
  247000  0.038695812       18 4.5552845e-15 2.407219e-06 7.5612178e-07 
  248000  0.045683861       18 4.5552845e-15 2.407219e-06 7.5612078e-07 
  249000  0.050886869       18 4.5552845e-15 2.4072189e-06 7.5611977e-07 
  250000  0.056125879       18 4.5552845e-15 2.4072189e-06 7.5611877e-07 
  250025  0.056298018       18 4.5552845e-15 1.9181822e-05 7.5573416e-07 
Loop time of 0.0563096 on 4 procs for 10000 steps with 18 atoms

99.5% CPU use with 4 MPI tasks x no OpenMP threads
timestep 300
fix_modify k1 demflag 0
fix_modify vf1 demflag 0
fix_modify d1 demflag 0
Step CPU Atoms biomass c_myPres c_myHeight 
  250025            0       18 4.5552845e-15 1.9181822e-05 7.5573416e-07 
number of iteration: 1 
height = 7.579234e-07 
S-sub-bulk = 2.998275e-02
S-sub-base = 2.999034e-02
S-o2-bulk = 1.000000e-02
S-o2-base = 9.998228e-03

  250026 0.0022540092       18 4.6310481e-15 0.00012539234 7.5792338e-07 
Loop time of 0.00226903 on 4 procs for 1 steps with 18 atoms

132.2% CPU use with 4 MPI tasks x no OpenMP threads
fix_modify k1 demflag 1
fix_modify vf1 demflag 1
fix_modify d1 demflag 1
timestep 1e-3
run 10000 pre no post no
Step CPU Atoms biomass c_myPres c_myHeight 
  250026            0       18 4.6310481e-15 0.00012539234 7.5792338e-07 
  251000 0.0051448345       18 4.6310481e-15 3.2553022e-06 7.6154434e-07 
  252000  0.010654926       18 4.6310481e-15 3.255301e-06 7.6154301e-07 
  253000   0.01779294       18 4.6310481e-15 3.2552997e-06 7.6154168e-07 
  254000  0.023108006       18 4.6310481e-15 3.2552985e-06 7.6154035e-07 
  255000  0.028440952       18 4.6310481e-15 3.2552972e-06 7.6153902e-07 
  256000  0.033830881       18 4.6310481e-15 3.255296e-06 7.6153768e-07 
  257000  0.039152861       18 4.6310481e-15 3.2552947e-06 7.6153635e-07 
  258000  0.046393871       18 4.6310481e-15 3.2552935e-06 7.615528e-07 
  259000  0.051748991       18 4.6310481e-15 3.2552923e-06 7.6155148e-07 
  260000  0.056993961       18 4.6310481e-15 3.255291e-06 7.6155023e-07 
  260026  0.057173967       18 4.6310481e-15 3.255291e-06 7.615502e-07 
Loop time of 0.0571858 on 4 procs for 10000 steps with 18 atoms

97.9% CPU use with 4 MPI tasks x no OpenMP threads
timestep 300
fix_modify k1 demflag 0
fix_modify vf1 demflag 0
fix_modify d1 demflag 0
Step CPU Atoms biomass c_myPres c_myHeight 
  260026            0       18 4.6310481e-15 3.255291e-06 7.615502e-07 
number of iteration: 1 
height = 7.634315e-07 
S-sub-bulk = 2.998275e-02
S-sub-base = 2.999033e-02
S-o2-bulk = 1.000000e-02
S-o2-base = 9.998225e-03

  260027 0.0022261143       18 4.7080717e-15 0.00014198093 7.6343152e-07 
Loop time of 0.00224185 on 4 procs for 1 steps with 18 atoms

133.8% CPU use with 4 MPI tasks x no OpenMP threads
fix_modify k1 demflag 1
fix_modify vf1 demflag 1
fix_modify d1 demflag 1
timestep 1e-3
run 10000 pre no post no
Step CPU Atoms biomass c_myPres c_myHeight 
  260027            0       18 4.7080717e-15 0.00014198093 7.6343152e-07 
  261000 0.0051422119       18 4.7080717e-15 4.4710111e-06 7.6724645e-07 
  262000  0.010660172       18 4.7080717e-15 4.471011e-06 7.6724557e-07 
  263000  0.017865181       18 4.7080717e-15 4.471011e-06 7.672447e-07 
  264000  0.023259163       18 4.7080717e-15 4.4710109e-06 7.6724382e-07 
  265000  0.028586149       18 4.7080717e-15 4.4710109e-06 7.6724294e-07 
  266000  0.033894062       18 4.7080717e-15 4.4710108e-06 7.6724206e-07 
  267000  0.039407015       18 4.7080717e-15 4.4710108e-06 7.6724118e-07 
  268000   0.04608202       18 4.7080717e-15 4.4710107e-06 7.672403e-07 
  269000  0.051895142       18 4.7080717e-15 4.4710106e-06 7.6723941e-07 
  270000  0.057271004       18 4.7080717e-15 4.4710106e-06 7.6723852e-07 
  270027  0.057457209       18 4.7080717e-15 1.2985303e-05 7.6721343e-07 
Loop time of 0.0574691 on 4 procs for 10000 steps with 18 atoms

99.2% CPU use with 4 MPI tasks x no OpenMP threads
timestep 300
fix_modify k1 demflag 0
fix_modify vf1 demflag 0
fix_modify d1 demflag 0
Step CPU Atoms biomass c_myPres c_myHeight 
  270027            0       18 4.7080717e-15 1.2985303e-05 7.6721343e-07 
number of iteration: 1 
height = 7.690631e-07 
S-sub-bulk = 2.998275e-02
S-sub-base = 2.999032e-02
S-o2-bulk = 1.000000e-02
S-o2-base = 9.998222e-03

  270028 0.0022060871       18 4.7863764e-15 0.00011709945 7.6906309e-07 
Loop time of 0.00221944 on 4 procs for 1 steps with 18 atoms

135.2% CPU use with 4 MPI tasks x no OpenMP threads
fix_modify k1 demflag 1
fix_modify vf1 demflag 1
fix_modify d1 demflag 1
timestep 1e-3
run 10000 pre no post no
Step CPU Atoms biomass c_myPres c_myHeight 
  270028            0       18 4.7863764e-15 0.00011709945 7.6906309e-07 
  271000 0.0051009655       18 4.7863764e-15 4.1652864e-06 7.7303608e-07 
  272000  0.010302067       18 4.7863764e-15 4.1652863e-06 7.7303495e-07 
  273000  0.016910076       18 4.7863764e-15 4.1652863e-06 7.7303382e-07 
  274000  0.022799969       18 4.7863764e-15 4.1652863e-06 7.730327e-07 
  275000  0.027984142       18 4.7863764e-15 4.1652863e-06 7.7303157e-07 
  276000  0.033265114       18 4.7863764e-15 4.1652862e-06 7.7303045e-07 
  277000  0.038478136       18 4.7863764e-15 4.1652862e-06 7.7302932e-07 
  278000  0.043728113       18 4.7863764e-15 4.1652862e-06 7.730282e-07 
  279000  0.050878048       18 4.7863764e-15 4.1652862e-06 7.7302711e-07 
  280000  0.056118965       18 4.7863764e-15 4.1652861e-06 7.7302602e-07 
  280028  0.056308031       18 4.7863764e-15 4.1652861e-06 7.7302598e-07 
Loop time of 0.056318 on 4 procs for 10000 steps with 18 atoms

99.4% CPU use with 4 MPI tasks x no OpenMP threads
timestep 300
fix_modify k1 demflag 0
fix_modify vf1 demflag 0
fix_modify d1 demflag 0
Step CPU Atoms biomass c_myPres c_myHeight 
  280028            0       18 4.7863764e-15 4.1652861e-06 7.7302598e-07 
number of iteration: 1 
height = 7.750628e-07 
S-sub-bulk = 2.998275e-02
S-sub-base = 2.999031e-02
S-o2-bulk = 1.000000e-02
S-o2-base = 9.998218e-03

  280029 0.0021960735       18 4.8659834e-15 0.00012567485 7.7506279e-07 
Loop time of 0.00221038 on 4 procs for 1 steps with 18 atoms

135.7% CPU use with 4 MPI tasks x no OpenMP threads
fix_modify k1 demflag 1
fix_modify vf1 demflag 1
fix_modify d1 demflag 1
timestep 1e-3
run 10000 pre no post no
Step CPU Atoms biomass c_myPres c_myHeight 
  280029            0       18 4.8659834e-15 0.00012567485 7.7506279e-07 
  281000 0.0051209927       18 4.8659834e-15 9.1697324e-06 7.7872193e-07 
  282000  0.010335922       18 4.8659834e-15 8.3133004e-06 7.7872146e-07 
  283000  0.015516996       18 4.8659834e-15 8.3132984e-06 7.787202e-07 
  284000  0.022763968       18 4.8659834e-15 8.3132965e-06 7.7871893e-07 
  285000  0.027955055       18 4.8659834e-15 8.3132945e-06 7.7871767e-07 
  286000  0.033210993       18 4.8659834e-15 8.3132925e-06 7.7871641e-07 
  287000  0.038455963       18 4.8659834e-15 8.3132905e-06 7.7894874e-07 
  288000  0.044001102       18 4.8659834e-15 8.3132886e-06 7.7894752e-07 
  289000  0.050976992       18 4.8659834e-15 8.3132866e-06 7.7894629e-07 
  290000  0.056497097       18 4.8659834e-15 8.3132846e-06 7.7894506e-07 
  290029  0.056694984       18 4.8659834e-15 9.7891544e-06 7.7883485e-07 
Loop time of 0.056705 on 4 procs for 10000 steps with 18 atoms

100.5% CPU use with 4 MPI tasks x no OpenMP threads
timestep 300
fix_modify k1 demflag 0
fix_modify vf1 demflag 0
fix_modify d1 demflag 0
Step CPU Atoms biomass c_myPres c_myHeight 
  290029            0       18 4.8659834e-15 9.7891544e-06 7.7883485e-07 
number of iteration: 1 
height = 7.807898e-07 
S-sub-bulk = 2.998275e-02
S-sub-base = 2.999030e-02
S-o2-bulk = 1.000000e-02
S-o2-base = 9.998215e-03

  290030 0.0021898746       18 4.9469145e-15 0.00013695895 7.8078979e-07 
Loop time of 0.00220346 on 4 procs for 1 steps with 18 atoms

0.0% CPU use with 4 MPI tasks x no OpenMP threads
fix_modify k1 demflag 1
fix_modify vf1 demflag 1
fix_modify d1 demflag 1
timestep 1e-3
run 10000 pre no post no
Step CPU Atoms biomass c_myPres c_myHeight 
  290030            0       18 4.9469145e-15 0.00013695895 7.8078979e-07 
  291000 0.0050530434       18 4.9469145e-15 1.5752987e-05 7.8475565e-07 
  292000   0.01033783       18 4.9469145e-15 1.574781e-05 7.8475453e-07 
  293000  0.015771866       18 4.9469145e-15 1.5742646e-05 7.8475341e-07 
  294000  0.022651911       18 4.9469145e-15 1.5737496e-05 7.8475229e-07 
  295000  0.028053999       18 4.9469145e-15 1.573236e-05 7.8475118e-07 
  296000  0.033376932       18 4.9469145e-15 1.5727238e-05 7.8475006e-07 
  297000   0.03868103       18 4.9469145e-15 1.5722129e-05 7.8474895e-07 
  298000  0.043905973       18 4.9469145e-15 1.5717035e-05 7.8474784e-07 
  299000  0.049978971       18 4.9469145e-15 1.5711955e-05 7.8474673e-07 
  300000  0.056367874       18 4.9469145e-15 1.570689e-05 7.8474562e-07 
  300030  0.056573868       18 4.9469145e-15 1.5706738e-05 7.8474558e-07 
Loop time of 0.0565834 on 4 procs for 10000 steps with 18 atoms

100.7% CPU use with 4 MPI tasks x no OpenMP threads
timestep 300
fix_modify k1 demflag 0
fix_modify vf1 demflag 0
fix_modify d1 demflag 0
Step CPU Atoms biomass c_myPres c_myHeight 
  300030            0       18 4.9469145e-15 1.5706738e-05 7.8474558e-07 
number of iteration: 1 
height = 7.868224e-07 
S-sub-bulk = 2.998275e-02
S-sub-base = 2.999029e-02
S-o2-bulk = 1.000000e-02
S-o2-base = 9.998211e-03

  300031 0.0021910667       18 5.0291916e-15 0.00010729119 7.8682245e-07 
Loop time of 0.00220442 on 4 procs for 1 steps with 18 atoms

136.1% CPU use with 4 MPI tasks x no OpenMP threads
fix_modify k1 demflag 1
fix_modify vf1 demflag 1
fix_modify d1 demflag 1
timestep 1e-3
run 10000 pre no post no
Step CPU Atoms biomass c_myPres c_myHeight 
  300031            0       18 5.0291916e-15 0.00010729119 7.8682245e-07 
  301000 0.0056881905       18 5.0291916e-15 9.1240878e-06 7.9107394e-07 
  302000  0.011086226       18 5.0291916e-15 9.1607819e-06 7.9104696e-07 
  303000  0.016399145       18 5.0291916e-15 9.2213258e-06 7.9104583e-07 
  304000  0.023004055       18 5.0291916e-15 6.8517583e-06 7.910033e-07 
  305000  0.028882027       18 5.0291916e-15 6.6957783e-06 7.9100171e-07 
  306000  0.034288168       18 5.0291916e-15 9.1087957e-06 7.9109114e-07 
  307000  0.040013075       18 5.0291916e-15 8.4358006e-06 7.910684e-07 
  308000  0.045369148       18 5.0291916e-15 9.0901773e-06 7.9106725e-07 
  309000  0.050897121       18 5.0291916e-15 9.1268687e-06 7.9104027e-07 
  310000  0.057759047       18 5.0291916e-15 9.1874099e-06 7.9103914e-07 
  310031  0.057976007       18 5.0291916e-15 6.244575e-06 7.9102661e-07 
Loop time of 0.0579854 on 4 procs for 10000 steps with 18 atoms

100.0% CPU use with 4 MPI tasks x no OpenMP threads
timestep 300
fix_modify k1 demflag 0
fix_modify vf1 demflag 0
fix_modify d1 demflag 0
Step CPU Atoms biomass c_myPres c_myHeight 
  310031            0       18 5.0291916e-15 6.244575e-06 7.9102661e-07 
number of iteration: 1 
height = 7.929524e-07 
S-sub-bulk = 2.998275e-02
S-sub-base = 2.999028e-02
S-o2-bulk = 1.000000e-02
S-o2-base = 9.998208e-03

  310032 0.0021731853       18 5.1128371e-15 0.00013117282 7.9295245e-07 
Loop time of 0.0021863 on 4 procs for 1 steps with 18 atoms

91.5% CPU use with 4 MPI tasks x no OpenMP threads
fix_modify k1 demflag 1
fix_modify vf1 demflag 1
fix_modify d1 demflag 1
timestep 1e-3
run 10000 pre no post no
Step CPU Atoms biomass c_myPres c_myHeight 
  310032            0       18 5.1128371e-15 0.00013117282 7.9295245e-07 
  311000 0.0050601959       18 5.1128371e-15 7.6609427e-06 7.9680873e-07 
  312000  0.010480165       18 5.1128371e-15 7.6619245e-06 7.9680783e-07 
  313000  0.015680075       18 5.1128371e-15 7.6619251e-06 7.968069e-07 
  314000  0.020978212       18 5.1128371e-15 7.6619258e-06 7.9680598e-07 
  315000  0.027898073       18 5.1128371e-15 7.6619264e-06 7.9680506e-07 
  316000  0.033129215       18 5.1128371e-15 7.6619271e-06 7.9680413e-07 
  317000  0.038360119       18 5.1128371e-15 7.6619277e-06 7.9680321e-07 
  318000  0.043672085       18 5.1128371e-15 7.6619284e-06 7.9680229e-07 
  319000  0.048933029       18 5.1128371e-15 7.661929e-06 7.9680137e-07 
  320000  0.055805206       18 5.1128371e-15 7.6619297e-06 7.9680044e-07 
  320032  0.056065083       18 5.1128371e-15 7.6619297e-06 7.9680041e-07 
Loop time of 0.0560752 on 4 procs for 10000 steps with 18 atoms

99.9% CPU use with 4 MPI tasks x no OpenMP threads
timestep 300
fix_modify k1 demflag 0
fix_modify vf1 demflag 0
fix_modify d1 demflag 0
Step CPU Atoms biomass c_myPres c_myHeight 
  320032            0       18 5.1128371e-15 7.6619297e-06 7.9680041e-07 
number of iteration: 1 
height = 7.990462e-07 
S-sub-bulk = 2.998275e-02
S-sub-base = 2.999027e-02
S-o2-bulk = 1.000000e-02
S-o2-base = 9.998204e-03

  320033 0.0022201538       18 5.1978738e-15 0.00013289029 7.9904618e-07 
Loop time of 0.0022316 on 4 procs for 1 steps with 18 atoms

179.2% CPU use with 4 MPI tasks x no OpenMP threads
fix_modify k1 demflag 1
fix_modify vf1 demflag 1
fix_modify d1 demflag 1
timestep 1e-3
run 10000 pre no post no
Step CPU Atoms biomass c_myPres c_myHeight 
  320033            0       18 5.1978738e-15 0.00013289029 7.9904618e-07 
  321000 0.0050041676       18 5.1978738e-15 6.5755293e-06 8.0246841e-07 
  322000  0.010179043       18 5.1978738e-15 6.5754429e-06 8.024674e-07 
  323000  0.015411139       18 5.1978738e-15 6.5192333e-06 8.0247907e-07 
  324000  0.020642042       18 5.1978738e-15 6.5191469e-06 8.0247807e-07 
  325000   0.02740097       18 5.1978738e-15 6.5190604e-06 8.0247706e-07 
  326000   0.03274703       18 5.1978738e-15 6.518974e-06 8.0247606e-07 
  327000  0.037961006       18 5.1978738e-15 6.5188876e-06 8.0247505e-07 
  328000  0.043092966       18 5.1978738e-15 6.5188012e-06 8.0247404e-07 
  329000   0.04826808       18 5.1978738e-15 6.5187148e-06 8.0247303e-07 
  330000  0.053549051       18 5.1978738e-15 6.5186285e-06 8.0247202e-07 
  330033  0.053848982       18 5.1978738e-15 1.1110615e-05 8.0229809e-07 
Loop time of 0.0538623 on 4 procs for 10000 steps with 18 atoms

96.5% CPU use with 4 MPI tasks x no OpenMP threads
timestep 300
fix_modify k1 demflag 0
fix_modify vf1 demflag 0
fix_modify d1 demflag 0
Step CPU Atoms biomass c_myPres c_myHeight 
  330033            0       18 5.1978738e-15 1.1110615e-05 8.0229809e-07 
number of iteration: 1 
height = 8.043578e-07 
S-sub-bulk = 2.998275e-02
S-sub-base = 2.999026e-02
S-o2-bulk = 1.000000e-02
S-o2-base = 9.998200e-03

  330034 0.0023310184       18 5.2843249e-15 0.0001320452 8.0435777e-07 
Loop time of 0.00234461 on 4 procs for 1 steps with 18 atoms

170.6% CPU use with 4 MPI tasks x no OpenMP threads
fix_modify k1 demflag 1
fix_modify vf1 demflag 1
fix_modify d1 demflag 1
timestep 1e-3
run 10000 pre no post no
Step CPU Atoms biomass c_myPres c_myHeight 
  330034            0       18 5.2843249e-15 0.0001320452 8.0435777e-07 
  331000 0.0059261322       18 5.2843249e-15 1.2406595e-05 8.0766786e-07 
  332000  0.014461994       18 5.2843249e-15 1.2406597e-05 8.0766699e-07 
  333000  0.023993015       18 5.2843249e-15  1.24066e-05 8.0767686e-07 
  334000  0.031840086       18 5.2843249e-15 1.2406602e-05 8.0767601e-07 
  335000  0.037281036       18 5.2843249e-15 1.2406605e-05 8.0767517e-07 
  336000  0.042604923       18 5.2843249e-15 1.2406607e-05 8.0767432e-07 
  337000  0.047969103       18 5.2843249e-15 1.240661e-05 8.0767348e-07 
  338000  0.053262949       18 5.2843249e-15 1.2406612e-05 8.0767264e-07 
  339000  0.059229136       18 5.2843249e-15 1.2406614e-05 8.0767179e-07 
  340000  0.065526962       18 5.2843249e-15 1.2406617e-05 8.0767095e-07 
  340034  0.065756083       18 5.2843249e-15 1.2406617e-05 8.0767092e-07 
Loop time of 0.0657678 on 4 procs for 10000 steps with 18 atoms

97.3% CPU use with 4 MPI tasks x no OpenMP threads
timestep 300
fix_modify k1 demflag 0
fix_modify vf1 demflag 0
fix_modify d1 demflag 0
Step CPU Atoms biomass c_myPres c_myHeight 
  340034            0       18 5.2843249e-15 1.2406617e-05 8.0767092e-07 
number of iteration: 1 
height = 9.026282e-07 
S-sub-bulk = 2.998275e-02
S-sub-base = 2.999024e-02
S-o2-bulk = 1.000000e-02
S-o2-base = 9.998196e-03

  340035 0.0022239685       21 5.3722138e-15 0.0016553148 9.0262818e-07 
Loop time of 0.00223589 on 4 procs for 1 steps with 21 atoms

178.9% CPU use with 4 MPI tasks x no OpenMP threads
fix_modify k1 demflag 1
fix_modify vf1 demflag 1
fix_modify d1 demflag 1
timestep 1e-3
run 10000 pre no post no
Step CPU Atoms biomass c_myPres c_myHeight 
  340035            0       21 5.3722138e-15 0.0016553148 9.0262818e-07 
  341000 0.0052549839       21 5.3722138e-15 9.3610118e-06 9.636467e-07 
  342000   0.01070714       21 5.3722138e-15 1.0305043e-05 9.6359653e-07 
  343000  0.016060114       21 5.3722138e-15 9.5823258e-06 9.6363722e-07 
  344000   0.02223897       21 5.3722138e-15 9.6251928e-06 9.6364236e-07 
  345000  0.028532028       21 5.3722138e-15 7.4813371e-06 9.6354367e-07 
  346000  0.033848047       21 5.3722138e-15 9.7012052e-06 9.6363328e-07 
  347000  0.039178133       21 5.3722138e-15 9.7108023e-06 9.6363838e-07 
  348000  0.044568062       21 5.3722138e-15 9.7151336e-06 9.6364298e-07 
  349000  0.049881935       21 5.3722138e-15 9.7647076e-06 9.6358024e-07 
  350000  0.056919098       21 5.3722138e-15 9.7035933e-06 9.6363048e-07 
  350035   0.05715704       21 5.3722138e-15 1.5558599e-05 9.6356665e-07 
Loop time of 0.0571671 on 4 procs for 10000 steps with 21 atoms

98.0% CPU use with 4 MPI tasks x no OpenMP threads
timestep 300
fix_modify k1 demflag 0
fix_modify vf1 demflag 0
fix_modify d1 demflag 0
Step CPU Atoms biomass c_myPres c_myHeight 
  350035            0       21 5.3722138e-15 1.5558599e-05 9.6356665e-07 
number of iteration: 1 
height = 9.656445e-07 
S-sub-bulk = 2.998275e-02
S-sub-base = 2.999023e-02
S-o2-bulk = 1.000000e-02
S-o2-base = 9.998192e-03

  350036 0.0022168159       21 5.4615646e-15 8.7758588e-05 9.6564454e-07 
Loop time of 0.00222898 on 4 procs for 1 steps with 21 atoms

179.5% CPU use with 4 MPI tasks x no OpenMP threads
fix_modify k1 demflag 1
fix_modify vf1 demflag 1
fix_modify d1 demflag 1
timestep 1e-3
run 10000 pre no post no
Step CPU Atoms biomass c_myPres c_myHeight 
  350036            0       21 5.4615646e-15 8.7758588e-05 9.6564454e-07 
  351000 0.0051839352       21 5.4615646e-15 8.0351099e-06 9.6925265e-07 
  352000   0.01046896       21 5.4615646e-15 8.0351098e-06 9.6925183e-07 
  353000  0.015806913       21 5.4615646e-15 8.0351098e-06 9.6925102e-07 
  354000  0.021816015       21 5.4615646e-15 8.0351098e-06 9.6925021e-07 
  355000  0.028903008       21 5.4615646e-15 8.0351098e-06 9.6924939e-07 
  356000  0.034292936       21 5.4615646e-15 8.0351098e-06 9.6924858e-07 
  357000  0.039643049       21 5.4615646e-15 8.0351098e-06 9.6924777e-07 
  358000   0.04498291       21 5.4615646e-15 8.0351098e-06 9.6924695e-07 
  359000  0.050348997       21 5.4615646e-15 8.0351098e-06 9.6924614e-07 
  360000  0.057702065       21 5.4615646e-15 8.0351097e-06 9.6924532e-07 
  360036  0.058022976       21 5.4615646e-15 8.0351097e-06 9.6924529e-07 
Loop time of 0.0580335 on 4 procs for 10000 steps with 21 atoms

96.5% CPU use with 4 MPI tasks x no OpenMP threads
timestep 300
fix_modify k1 demflag 0
fix_modify vf1 demflag 0
fix_modify d1 demflag 0
Step CPU Atoms biomass c_myPres c_myHeight 
  360036            0       21 5.4615646e-15 8.0351097e-06 9.6924529e-07 
number of iteration: 1 
height = 9.714911e-07 
S-sub-bulk = 2.998275e-02
S-sub-base = 2.999022e-02
S-o2-bulk = 1.000000e-02
S-o2-base = 9.998188e-03

  360037 0.0021650791       21 5.5524014e-15 0.00012435775 9.7149112e-07 
Loop time of 0.00217795 on 4 procs for 1 steps with 21 atoms

183.7% CPU use with 4 MPI tasks x no OpenMP threads
fix_modify k1 demflag 1
fix_modify vf1 demflag 1
fix_modify d1 demflag 1
timestep 1e-3
run 10000 pre no post no
Step CPU Atoms biomass c_myPres c_myHeight 
  360037            0       21 5.5524014e-15 0.00012435775 9.7149112e-07 
  361000 0.0052969456       21 5.5524014e-15 2.5041714e-05 9.7570947e-07 
  362000  0.010908842       21 5.5524014e-15 2.527826e-05 9.7569912e-07 
  363000  0.016446829       21 5.5524014e-15 2.5509373e-05 9.7568922e-07 
  364000  0.021970987       21 5.5524014e-15 2.5736852e-05   9.7568e-07 
  365000  0.029197931       21 5.5524014e-15 2.5935646e-05 9.756709e-07 
  366000  0.034811974       21 5.5524014e-15 2.6115537e-05 9.7566233e-07 
  367000  0.040345907       21 5.5524014e-15 2.6288529e-05 9.7565466e-07 
  368000  0.045926809       21 5.5524014e-15 2.6440516e-05 9.7564741e-07 
  369000  0.051445961       21 5.5524014e-15 2.6582702e-05 9.7564092e-07 
  370000  0.058683872       21 5.5524014e-15 2.670488e-05 9.7563473e-07 
  370037   0.05893898       21 5.5524014e-15 1.1504213e-05 9.7550875e-07 
Loop time of 0.058949 on 4 procs for 10000 steps with 21 atoms

100.1% CPU use with 4 MPI tasks x no OpenMP threads
timestep 300
fix_modify k1 demflag 0
fix_modify vf1 demflag 0
fix_modify d1 demflag 0
Step CPU Atoms biomass c_myPres c_myHeight 
  370037            0       21 5.5524014e-15 1.1504213e-05 9.7550875e-07 
number of iteration: 1 
height = 1.105991e-06 
S-sub-bulk = 2.998275e-02
S-sub-base = 2.999021e-02
S-o2-bulk = 1.000000e-02
S-o2-base = 9.998185e-03

  370038  0.002229929       26 5.6447491e-15 0.0019630311 1.1059913e-06 
Loop time of 0.00224376 on 4 procs for 1 steps with 26 atoms

44.6% CPU use with 4 MPI tasks x no OpenMP threads
fix_modify k1 demflag 1
fix_modify vf1 demflag 1
fix_modify d1 demflag 1
timestep 1e-3
run 10000 pre no post no
Step CPU Atoms biomass c_myPres c_myHeight 
  370038            0       26 5.6447491e-15 0.0019630311 1.1059913e-06 
  371000 0.0054171085       26 5.6447491e-15 3.1798389e-06 1.1666919e-06 
  372000  0.010987997       26 5.6447491e-15 2.0949948e-06 1.1666938e-06 
  373000  0.016559124       26 5.6447491e-15 2.0949948e-06 1.1666937e-06 
  374000  0.022005081       26 5.6447491e-15 2.0949948e-06 1.1666936e-06 
  375000  0.029262066       26 5.6447491e-15 2.0949948e-06 1.1666935e-06 
  376000   0.03480792       26 5.6447491e-15 2.0949948e-06 1.1666934e-06 
  377000  0.040269136       26 5.6447491e-15 2.0949948e-06 1.1666933e-06 
  378000  0.045809031       26 5.6447491e-15 2.0949948e-06 1.1666932e-06 
  379000  0.051283121       26 5.6447491e-15 2.0949948e-06 1.1666931e-06 
  380000  0.058418036       26 5.6447491e-15 2.0949948e-06 1.166693e-06 
  380038  0.058675051       26 5.6447491e-15 2.0949948e-06 1.166693e-06 
Loop time of 0.0586841 on 4 procs for 10000 steps with 26 atoms

100.5% CPU use with 4 MPI tasks x no OpenMP threads
timestep 300
fix_modify k1 demflag 0
fix_modify vf1 demflag 0
fix_modify d1 demflag 0
Step CPU Atoms biomass c_myPres c_myHeight 
  380038            0       26 5.6447491e-15 2.0949948e-06 1.166693e-06 
number of iteration: 1 
height = 1.168760e-06 
S-sub-bulk = 2.998275e-02
S-sub-base = 2.999020e-02
S-o2-bulk = 1.000000e-02
S-o2-base = 9.998182e-03

  380039 0.0022249222       26 5.7386329e-15 0.00011471941 1.1687603e-06 
Loop time of 0.00223666 on 4 procs for 1 steps with 26 atoms

0.0% CPU use with 4 MPI tasks x no OpenMP threads
fix_modify k1 demflag 1
fix_modify vf1 demflag 1
fix_modify d1 demflag 1
timestep 1e-3
run 10000 pre no post no
Step CPU Atoms biomass c_myPres c_myHeight 
  380039            0       26 5.7386329e-15 0.00011471941 1.1687603e-06 
  381000 0.0054922104       26 5.7386329e-15 2.3090769e-05 1.1709759e-06 
  382000  0.011183023       26 5.7386329e-15 2.3090874e-05 1.1709756e-06 
  383000  0.016972065       26 5.7386329e-15 2.3090979e-05 1.1709753e-06 
  384000  0.022733212       26 5.7386329e-15 2.3091084e-05 1.170975e-06 
  385000  0.030770063       26 5.7386329e-15 2.3091189e-05 1.1709747e-06 
  386000  0.036454201       26 5.7386329e-15 2.3091293e-05 1.1709744e-06 
  387000  0.042104006       26 5.7386329e-15 2.3091398e-05 1.1709741e-06 
  388000  0.047755003       26 5.7386329e-15 2.3091502e-05 1.1709738e-06 
  389000  0.054098129       26 5.7386329e-15 2.3091606e-05 1.1709734e-06 
  390000  0.060902119       26 5.7386329e-15 2.309171e-05 1.1709731e-06 
  390039  0.061168194       26 5.7386329e-15 8.5422156e-06 1.1710688e-06 
Loop time of 0.0611784 on 4 procs for 10000 steps with 26 atoms

104.6% CPU use with 4 MPI tasks x no OpenMP threads
timestep 300
fix_modify k1 demflag 0
fix_modify vf1 demflag 0
fix_modify d1 demflag 0
Step CPU Atoms biomass c_myPres c_myHeight 
  390039            0       26 5.7386329e-15 8.5422156e-06 1.1710688e-06 
number of iteration: 1 
height = 1.173362e-06 
S-sub-bulk = 2.998275e-02
S-sub-base = 2.999019e-02
S-o2-bulk = 1.000000e-02
S-o2-base = 9.998179e-03

  390040 0.0022158623       26 5.8340781e-15 0.00012516244 1.1733622e-06 
Loop time of 0.00222921 on 4 procs for 1 steps with 26 atoms

0.0% CPU use with 4 MPI tasks x no OpenMP threads
fix_modify k1 demflag 1
fix_modify vf1 demflag 1
fix_modify d1 demflag 1
timestep 1e-3
run 10000 pre no post no
Step CPU Atoms biomass c_myPres c_myHeight 
  390040            0       26 5.8340781e-15 0.00012516244 1.1733622e-06 
  391000 0.0053730011       26 5.8340781e-15 1.8035923e-05 1.1772507e-06 
  392000  0.010893106       26 5.8340781e-15 1.8035923e-05 1.1772506e-06 
  393000  0.016362906       26 5.8340781e-15 1.8035923e-05 1.1772506e-06 
  394000  0.023169994       26 5.8340781e-15 1.8035923e-05 1.1772505e-06 
  395000  0.029114962       26 5.8340781e-15 1.8035923e-05 1.1772504e-06 
  396000  0.034574032       26 5.8340781e-15 1.8035923e-05 1.1772503e-06 
  397000  0.040121078       26 5.8340781e-15 1.8035923e-05 1.1772503e-06 
  398000   0.04560113       26 5.8340781e-15 1.8035923e-05 1.1772502e-06 
  399000  0.052041054       26 5.8340781e-15 1.8035923e-05 1.1772501e-06 
  400000  0.058391094       26 5.8340781e-15 1.8035923e-05  1.17725e-06 
  400040  0.058656931       26 5.8340781e-15 1.8035923e-05  1.17725e-06 
Loop time of 0.0586668 on 4 procs for 10000 steps with 26 atoms

102.3% CPU use with 4 MPI tasks x no OpenMP threads
timestep 300
fix_modify k1 demflag 0
fix_modify vf1 demflag 0
fix_modify d1 demflag 0
Step CPU Atoms biomass c_myPres c_myHeight 
  400040            0       26 5.8340781e-15 1.8035923e-05  1.17725e-06 
number of iteration: 1 
height = 1.162220e-06 
S-sub-bulk = 2.998275e-02
S-sub-base = 2.999018e-02
S-o2-bulk = 1.000000e-02
S-o2-base = 9.998176e-03

  400041 0.0022239685       27 5.9311107e-15 0.00033001603 1.1622203e-06 
Loop time of 0.00224853 on 4 procs for 1 steps with 27 atoms

88.9% CPU use with 4 MPI tasks x no OpenMP threads
fix_modify k1 demflag 1
fix_modify vf1 demflag 1
fix_modify d1 demflag 1
timestep 1e-3
run 10000 pre no post no
Step CPU Atoms biomass c_myPres c_myHeight 
  400041            0       27 5.9311107e-15 0.00033001603 1.1622203e-06 
  401000 0.0053868294       27 5.9311107e-15 2.0652345e-05 1.1679677e-06 
  402000  0.011023045       27 5.9311107e-15 2.0652345e-05 1.1679673e-06 
  403000   0.01661396       27 5.9311107e-15 2.0652345e-05 1.1679668e-06 
  404000  0.023900986       27 5.9311107e-15 2.0652345e-05 1.1679663e-06 
  405000  0.029469967       27 5.9311107e-15 2.0652345e-05 1.1679659e-06 
  406000  0.035027981       27 5.9311107e-15 2.0652345e-05 1.1679654e-06 
  407000  0.040601969       27 5.9311107e-15 2.0652345e-05 1.1679649e-06 
  408000  0.046211004       27 5.9311107e-15 2.0652345e-05 1.1679645e-06 
  409000  0.053009987       27 5.9311107e-15 2.0652345e-05 1.167964e-06 
  410000  0.058969021       27 5.9311107e-15 2.0652345e-05 1.1679636e-06 
  410041  0.059259892       27 5.9311107e-15 1.7117179e-05 1.168066e-06 
Loop time of 0.0592699 on 4 procs for 10000 steps with 27 atoms

96.2% CPU use with 4 MPI tasks x no OpenMP threads
timestep 300
fix_modify k1 demflag 0
fix_modify vf1 demflag 0
fix_modify d1 demflag 0
Step CPU Atoms biomass c_myPres c_myHeight 
  410041            0       27 5.9311107e-15 1.7117179e-05 1.168066e-06 
number of iteration: 1 
height = 1.170267e-06 
S-sub-bulk = 2.998275e-02
S-sub-base = 2.999018e-02
S-o2-bulk = 1.000000e-02
S-o2-base = 9.998173e-03

  410042 0.0022330284       27 6.0297573e-15 0.00013574946 1.1702674e-06 
Loop time of 0.00224572 on 4 procs for 1 steps with 27 atoms

178.1% CPU use with 4 MPI tasks x no OpenMP threads
fix_modify k1 demflag 1
fix_modify vf1 demflag 1
fix_modify d1 demflag 1
timestep 1e-3
run 10000 pre no post no
Step CPU Atoms biomass c_myPres c_myHeight 
  410042            0       27 6.0297573e-15 0.00013574946 1.1702674e-06 
  411000  0.005865097       27 6.0297573e-15 2.5869926e-05 1.1731538e-06 
  412000  0.011521101       27 6.0297573e-15 2.5864481e-05 1.1731533e-06 
  413000  0.017260075       27 6.0297573e-15 2.5859033e-05 1.1731528e-06 
  414000  0.024635077       27 6.0297573e-15 2.5853585e-05 1.1731524e-06 
  415000  0.030318022       27 6.0297573e-15 2.5848135e-05 1.1731519e-06 
  416000  0.035970926       27 6.0297573e-15 2.5842683e-05 1.1731514e-06 
  417000  0.041572094       27 6.0297573e-15 2.5837231e-05 1.1731509e-06 
  418000   0.04718709       27 6.0297573e-15 2.5831776e-05 1.1731504e-06 
  419000  0.054493904       27 6.0297573e-15 2.5826321e-05  1.17315e-06 
  420000  0.060116053       27 6.0297573e-15 2.5820864e-05 1.1731495e-06 
  420042  0.060398102       27 6.0297573e-15 2.5820634e-05 1.1731495e-06 
Loop time of 0.0604079 on 4 procs for 10000 steps with 27 atoms

99.3% CPU use with 4 MPI tasks x no OpenMP threads
timestep 300
fix_modify k1 demflag 0
fix_modify vf1 demflag 0
fix_modify d1 demflag 0
Step CPU Atoms biomass c_myPres c_myHeight 
  420042            0       27 6.0297573e-15 2.5820634e-05 1.1731495e-06 
number of iteration: 1 
height = 1.175776e-06 
S-sub-bulk = 2.998275e-02
S-sub-base = 2.999017e-02
S-o2-bulk = 1.000000e-02
S-o2-base = 9.998170e-03

  420043 0.0021920204       27 6.1300446e-15 0.0001099776 1.1757763e-06 
Loop time of 0.00220323 on 4 procs for 1 steps with 27 atoms

181.6% CPU use with 4 MPI tasks x no OpenMP threads
fix_modify k1 demflag 1
fix_modify vf1 demflag 1
fix_modify d1 demflag 1
timestep 1e-3
run 10000 pre no post no
Step CPU Atoms biomass c_myPres c_myHeight 
  420043            0       27 6.1300446e-15 0.0001099776 1.1757763e-06 
  421000 0.0056891441       27 6.1300446e-15 2.9381359e-05 1.1783003e-06 
  422000  0.011505127       27 6.1300446e-15 2.9381359e-05   1.1783e-06 
  423000  0.017683983       27 6.1300446e-15 2.9381359e-05 1.1782997e-06 
  424000  0.024879932       27 6.1300446e-15 2.9381359e-05 1.1782994e-06 
  425000   0.03057909       27 6.1300446e-15 2.9381359e-05 1.1782992e-06 
  426000  0.036524057       27 6.1300446e-15 2.9381359e-05 1.1782989e-06 
  427000  0.042258978       27 6.1300446e-15 2.9381359e-05 1.1782986e-06 
  428000  0.048316956       27 6.1300446e-15 2.9381359e-05 1.1782983e-06 
  429000  0.055364132       27 6.1300446e-15 2.9381359e-05 1.178298e-06 
  430000  0.061090946       27 6.1300446e-15 2.9381359e-05 1.1782978e-06 
  430043  0.061383009       27 6.1300446e-15 1.3775006e-05 1.2234495e-06 
Loop time of 0.0613928 on 4 procs for 10000 steps with 27 atoms

97.7% CPU use with 4 MPI tasks x no OpenMP threads
timestep 300
fix_modify k1 demflag 0
fix_modify vf1 demflag 0
fix_modify d1 demflag 0
Step CPU Atoms biomass c_myPres c_myHeight 
  430043            0       27 6.1300446e-15 1.3775006e-05 1.2234495e-06 
number of iteration: 1 
height = 1.180627e-06 
S-sub-bulk = 2.998275e-02
S-sub-base = 2.999016e-02
S-o2-bulk = 1.000000e-02
S-o2-base = 9.998167e-03

  430044  0.002188921       27    6.232e-15 0.00016032536 1.1806271e-06 
Loop time of 0.0022018 on 4 procs for 1 steps with 27 atoms

181.7% CPU use with 4 MPI tasks x no OpenMP threads
fix_modify k1 demflag 1
fix_modify vf1 demflag 1
fix_modify d1 demflag 1
timestep 1e-3
run 10000 pre no post no
Step CPU Atoms biomass c_myPres c_myHeight 
  430044            0       27    6.232e-15 0.00016032536 1.1806271e-06 
  431000 0.0057361126       27    6.232e-15 1.6526887e-05 1.2289634e-06 
  432000  0.011533022       27    6.232e-15 1.6527343e-05 1.2289631e-06 
  433000  0.018769026       27    6.232e-15 1.6527797e-05 1.2289628e-06 
  434000  0.024911165       27    6.232e-15 1.6528251e-05 1.2289625e-06 
  435000  0.030645132       27    6.232e-15 1.6528704e-05 1.2289622e-06 
  436000   0.03649497       27    6.232e-15 1.6529157e-05 1.2289619e-06 
  437000  0.042284012       27    6.232e-15 1.6529608e-05 1.2289616e-06 
  438000  0.049399137       27    6.232e-15 1.6530059e-05 1.2289613e-06 
  439000  0.055385113       27    6.232e-15 1.6530509e-05 1.228961e-06 
  440000  0.061205149       27    6.232e-15 1.6530958e-05 1.2289607e-06 
  440044  0.061503172       27    6.232e-15 1.6530977e-05 1.2289607e-06 
Loop time of 0.0615129 on 4 procs for 10000 steps with 27 atoms

97.5% CPU use with 4 MPI tasks x no OpenMP threads
timestep 300
fix_modify k1 demflag 0
fix_modify vf1 demflag 0
fix_modify d1 demflag 0
Step CPU Atoms biomass c_myPres c_myHeight 
  440044            0       27    6.232e-15 1.6530977e-05 1.2289607e-06 
number of iteration: 1 
height = 1.231266e-06 
S-sub-bulk = 2.998275e-02
S-sub-base = 2.999015e-02
S-o2-bulk = 1.000000e-02
S-o2-base = 9.998164e-03

  440045 0.0021901131       27 6.335651e-15 0.00015274917 1.231266e-06 
Loop time of 0.0022037 on 4 procs for 1 steps with 27 atoms

136.1% CPU use with 4 MPI tasks x no OpenMP threads
fix_modify k1 demflag 1
fix_modify vf1 demflag 1
fix_modify d1 demflag 1
timestep 1e-3
run 10000 pre no post no
Step CPU Atoms biomass c_myPres c_myHeight 
  440045            0       27 6.335651e-15 0.00015274917 1.231266e-06 
  441000 0.0054340363       27 6.335651e-15 1.9767329e-05 1.2346813e-06 
  442000  0.011195898       27 6.335651e-15 1.9765986e-05 1.2346809e-06 
  443000   0.01857686       27 6.335651e-15 1.9764644e-05 1.2346805e-06 
  444000  0.024338961       27 6.335651e-15 1.9763301e-05 1.2346801e-06 
  445000  0.030050039       27 6.335651e-15 1.9761958e-05 1.2346797e-06 
  446000  0.035804033       27 6.335651e-15 1.9760616e-05 1.2346792e-06 
  447000  0.041509867       27 6.335651e-15 1.9759273e-05 1.2346788e-06 
  448000  0.048840046       27 6.335651e-15 1.975793e-05 1.2346784e-06 
  449000  0.054520845       27 6.335651e-15 1.9756587e-05 1.234678e-06 
  450000   0.06023097       27 6.335651e-15 1.9755244e-05 1.2346775e-06 
  450045  0.060531855       27 6.335651e-15 8.5046745e-06 1.234937e-06 
Loop time of 0.0605417 on 4 procs for 10000 steps with 27 atoms

100.8% CPU use with 4 MPI tasks x no OpenMP threads
timestep 300
fix_modify k1 demflag 0
fix_modify vf1 demflag 0
fix_modify d1 demflag 0
Step CPU Atoms biomass c_myPres c_myHeight 
  450045            0       27 6.335651e-15 8.5046745e-06 1.234937e-06 
number of iteration: 1 
height = 1.280429e-06 
S-sub-bulk = 2.998275e-02
S-sub-base = 2.999014e-02
S-o2-bulk = 1.000000e-02
S-o2-base = 9.998161e-03

  450046 0.0021901131       28 6.441026e-15 0.00052997553 1.2804294e-06 
Loop time of 0.00220329 on 4 procs for 1 steps with 28 atoms

0.0% CPU use with 4 MPI tasks x no OpenMP threads
fix_modify k1 demflag 1
fix_modify vf1 demflag 1
fix_modify d1 demflag 1
timestep 1e-3
run 10000 pre no post no
Step CPU Atoms biomass c_myPres c_myHeight 
  450046            0       28 6.441026e-15 0.00052997553 1.2804294e-06 
  451000 0.0057029724       28 6.441026e-15 1.4675032e-05 1.2989454e-06 
  452000  0.011853933       28 6.441026e-15 1.4675144e-05 1.298945e-06 
  453000   0.01898098       28 6.441026e-15 1.4673165e-05 1.2989447e-06 
  454000  0.024765015       28 6.441026e-15 1.4671158e-05 1.2989444e-06 
  455000  0.030616999       28 6.441026e-15 1.466915e-05 1.298944e-06 
  456000  0.036371946       28 6.441026e-15 1.4667143e-05 1.2989437e-06 
  457000  0.042700052       28 6.441026e-15 1.4665138e-05 1.2989433e-06 
  458000   0.04946804       28 6.441026e-15 1.4663133e-05 1.298943e-06 
[...]

number of iteration: 1 
S-sub-bulk = 8.541714e-03
S-sub-base = 2.873937e-06
S-o2-bulk = 1.000000e-02
S-o2-base = 7.967105e-03

number of iteration: 1 
S-sub-bulk = 8.541710e-03
S-sub-base = 2.873932e-06
S-o2-bulk = 1.000000e-02
S-o2-base = 7.967106e-03

number of iteration: 1 
S-sub-bulk = 8.541706e-03
S-sub-base = 2.873927e-06
S-o2-bulk = 1.000000e-02
S-o2-base = 7.967107e-03

number of iteration: 1 
S-sub-bulk = 8.541702e-03
S-sub-base = 2.873922e-06
S-o2-bulk = 1.000000e-02
S-o2-base = 7.967108e-03

number of iteration: 1 
S-sub-bulk = 8.541698e-03
S-sub-base = 2.873917e-06
S-o2-bulk = 1.000000e-02
S-o2-base = 7.967109e-03

number of iteration: 1 
S-sub-bulk = 8.541694e-03
S-sub-base = 2.873912e-06
S-o2-bulk = 1.000000e-02
S-o2-base = 7.967110e-03

number of iteration: 1 
S-sub-bulk = 8.541690e-03
S-sub-base = 2.873907e-06
S-o2-bulk = 1.000000e-02
S-o2-base = 7.967111e-03

number of iteration: 1 
S-sub-bulk = 8.541686e-03
S-sub-base = 2.873902e-06
S-o2-bulk = 1.000000e-02
S-o2-base = 7.967112e-03

number of iteration: 1 
S-sub-bulk = 8.541682e-03
S-sub-base = 2.873897e-06
S-o2-bulk = 1.000000e-02
S-o2-base = 7.967113e-03

number of iteration: 1 
S-sub-bulk = 8.541678e-03
S-sub-base = 2.873892e-06
S-o2-bulk = 1.000000e-02
S-o2-base = 7.967114e-03

number of iteration: 1 
S-sub-bulk = 8.541674e-03
S-sub-base = 2.873887e-06
S-o2-bulk = 1.000000e-02
S-o2-base = 7.967115e-03

number of iteration: 1 
S-sub-bulk = 8.541669e-03
S-sub-base = 2.873882e-06
S-o2-bulk = 1.000000e-02
S-o2-base = 7.967116e-03

number of iteration: 1 
S-sub-bulk = 8.541665e-03
S-sub-base = 2.873877e-06
S-o2-bulk = 1.000000e-02
S-o2-base = 7.967117e-03

number of iteration: 1 
S-sub-bulk = 8.541661e-03
S-sub-base = 2.873872e-06
S-o2-bulk = 1.000000e-02
S-o2-base = 7.967118e-03

number of iteration: 1 
S-sub-bulk = 8.541657e-03
S-sub-base = 2.873867e-06
S-o2-bulk = 1.000000e-02
S-o2-base = 7.967119e-03

number of iteration: 1 
S-sub-bulk = 8.541653e-03
S-sub-base = 2.873862e-06
S-o2-bulk = 1.000000e-02
S-o2-base = 7.967120e-03

number of iteration: 1 
S-sub-bulk = 8.541649e-03
S-sub-base = 2.873858e-06
S-o2-bulk = 1.000000e-02
S-o2-base = 7.967121e-03

number of iteration: 1 
S-sub-bulk = 8.541645e-03
S-sub-base = 2.873853e-06
S-o2-bulk = 1.000000e-02
S-o2-base = 7.967122e-03

number of iteration: 1 
S-sub-bulk = 8.541641e-03
S-sub-base = 2.873848e-06
S-o2-bulk = 1.000000e-02
S-o2-base = 7.967123e-03

number of iteration: 1 
S-sub-bulk = 8.541637e-03
S-sub-base = 2.873843e-06
S-o2-bulk = 1.000000e-02
S-o2-base = 7.967124e-03

number of iteration: 1 
S-sub-bulk = 8.541633e-03
S-sub-base = 2.873838e-06
S-o2-bulk = 1.000000e-02
S-o2-base = 7.967125e-03

number of iteration: 1 
S-sub-bulk = 8.541629e-03
S-sub-base = 2.873833e-06
S-o2-bulk = 1.000000e-02
S-o2-base = 7.967126e-03

number of iteration: 1 
S-sub-bulk = 8.541625e-03
S-sub-base = 2.873828e-06
S-o2-bulk = 1.000000e-02
S-o2-base = 7.967127e-03

number of iteration: 1 
S-sub-bulk = 8.541621e-03
S-sub-base = 2.873823e-06
S-o2-bulk = 1.000000e-02
S-o2-base = 7.967128e-03

number of iteration: 1 
S-sub-bulk = 8.541616e-03
S-sub-base = 2.873818e-06
S-o2-bulk = 1.000000e-02
S-o2-base = 7.967129e-03

number of iteration: 1 
S-sub-bulk = 8.541612e-03
S-sub-base = 2.873813e-06
S-o2-bulk = 1.000000e-02
S-o2-base = 7.967130e-03

number of iteration: 1 
S-sub-bulk = 8.541608e-03
S-sub-base = 2.873808e-06
S-o2-bulk = 1.000000e-02
S-o2-base = 7.967131e-03

number of iteration: 1 
S-sub-bulk = 8.541604e-03
S-sub-base = 2.873803e-06
S-o2-bulk = 1.000000e-02
S-o2-base = 7.967132e-03

number of iteration: 1 
S-sub-bulk = 8.541600e-03
S-sub-base = 2.873798e-06
S-o2-bulk = 1.000000e-02
S-o2-base = 7.967133e-03

number of iteration: 1 
S-sub-bulk = 8.541596e-03
S-sub-base = 2.873793e-06
S-o2-bulk = 1.000000e-02
S-o2-base = 7.967134e-03

number of iteration: 1 
S-sub-bulk = 8.541592e-03
S-sub-base = 2.873788e-06
S-o2-bulk = 1.000000e-02
S-o2-base = 7.967135e-03

number of iteration: 1 
S-sub-bulk = 8.541588e-03
S-sub-base = 2.873783e-06
S-o2-bulk = 1.000000e-02
S-o2-base = 7.967136e-03

number of iteration: 1 
S-sub-bulk = 8.541584e-03
S-sub-base = 2.873778e-06
S-o2-bulk = 1.000000e-02
S-o2-base = 7.967137e-03

number of iteration: 1 
S-sub-bulk = 8.541580e-03
S-sub-base = 2.873773e-06
S-o2-bulk = 1.000000e-02
S-o2-base = 7.967138e-03

number of iteration: 1 
S-sub-bulk = 8.541576e-03
S-sub-base = 2.873768e-06
S-o2-bulk = 1.000000e-02
S-o2-base = 7.967139e-03

number of iteration: 1 
S-sub-bulk = 8.541572e-03
S-sub-base = 2.873763e-06
S-o2-bulk = 1.000000e-02
S-o2-base = 7.967140e-03

number of iteration: 1 
S-sub-bulk = 8.541568e-03
S-sub-base = 2.873758e-06
S-o2-bulk = 1.000000e-02
S-o2-base = 7.967141e-03

number of iteration: 1 
S-sub-bulk = 8.541563e-03
S-sub-base = 2.873753e-06
S-o2-bulk = 1.000000e-02
S-o2-base = 7.967142e-03

number of iteration: 1 
S-sub-bulk = 8.541559e-03
S-sub-base = 2.873748e-06
S-o2-bulk = 1.000000e-02
S-o2-base = 7.967143e-03

number of iteration: 1 
S-sub-bulk = 8.541555e-03
S-sub-base = 2.873744e-06
S-o2-bulk = 1.000000e-02
S-o2-base = 7.967144e-03

number of iteration: 1 
S-sub-bulk = 8.541551e-03
S-sub-base = 2.873739e-06
S-o2-bulk = 1.000000e-02
S-o2-base = 7.967145e-03

number of iteration: 1 
S-sub-bulk = 8.541547e-03
S-sub-base = 2.873734e-06
S-o2-bulk = 1.000000e-02
S-o2-base = 7.967146e-03

number of iteration: 1 
S-sub-bulk = 8.541543e-03
S-sub-base = 2.873729e-06
S-o2-bulk = 1.000000e-02
S-o2-base = 7.967147e-03

number of iteration: 1 
S-sub-bulk = 8.541539e-03
S-sub-base = 2.873724e-06
S-o2-bulk = 1.000000e-02
S-o2-base = 7.967148e-03

number of iteration: 1 
S-sub-bulk = 8.541535e-03
S-sub-base = 2.873719e-06
S-o2-bulk = 1.000000e-02
S-o2-base = 7.967149e-03

number of iteration: 1 
S-sub-bulk = 8.541531e-03
S-sub-base = 2.873714e-06
S-o2-bulk = 1.000000e-02
S-o2-base = 7.967150e-03

number of iteration: 1 
S-sub-bulk = 8.541527e-03
S-sub-base = 2.873709e-06
S-o2-bulk = 1.000000e-02
S-o2-base = 7.967151e-03

number of iteration: 1 
S-sub-bulk = 8.541523e-03
S-sub-base = 2.873704e-06
S-o2-bulk = 1.000000e-02
S-o2-base = 7.967152e-03

number of iteration: 1 
S-sub-bulk = 8.541519e-03
S-sub-base = 2.873699e-06
S-o2-bulk = 1.000000e-02
S-o2-base = 7.967153e-03

number of iteration: 1 
S-sub-bulk = 8.541514e-03
S-sub-base = 2.873694e-06
S-o2-bulk = 1.000000e-02
S-o2-base = 7.967154e-03

number of iteration: 1 
S-sub-bulk = 8.541510e-03
S-sub-base = 2.873689e-06
S-o2-bulk = 1.000000e-02
S-o2-base = 7.967155e-03

number of iteration: 1 
S-sub-bulk = 8.541506e-03
S-sub-base = 2.873684e-06
S-o2-bulk = 1.000000e-02
S-o2-base = 7.967156e-03

number of iteration: 1 
S-sub-bulk = 8.541502e-03
S-sub-base = 2.873679e-06
S-o2-bulk = 1.000000e-02
S-o2-base = 7.967157e-03

number of iteration: 1 
S-sub-bulk = 8.541498e-03
S-sub-base = 2.873674e-06
S-o2-bulk = 1.000000e-02
S-o2-base = 7.967158e-03

number of iteration: 1 
S-sub-bulk = 8.541494e-03
S-sub-base = 2.873669e-06
S-o2-bulk = 1.000000e-02
S-o2-base = 7.967159e-03

number of iteration: 1 
S-sub-bulk = 8.541490e-03
S-sub-base = 2.873664e-06
S-o2-bulk = 1.000000e-02
S-o2-base = 7.967160e-03

number of iteration: 1 
S-sub-bulk = 8.541486e-03
S-sub-base = 2.873659e-06
S-o2-bulk = 1.000000e-02
S-o2-base = 7.967161e-03

number of iteration: 1 
S-sub-bulk = 8.541482e-03
S-sub-base = 2.873654e-06
S-o2-bulk = 1.000000e-02
S-o2-base = 7.967162e-03

number of iteration: 1 
S-sub-bulk = 8.541478e-03
S-sub-base = 2.873649e-06
S-o2-bulk = 1.000000e-02
S-o2-base = 7.967163e-03

number of iteration: 1 
S-sub-bulk = 8.541474e-03
S-sub-base = 2.873644e-06
S-o2-bulk = 1.000000e-02
S-o2-base = 7.967164e-03

number of iteration: 1 
S-sub-bulk = 8.541470e-03
S-sub-base = 2.873639e-06
S-o2-bulk = 1.000000e-02
S-o2-base = 7.967165e-03

number of iteration: 1 
S-sub-bulk = 8.541466e-03
S-sub-base = 2.873634e-06
S-o2-bulk = 1.000000e-02
S-o2-base = 7.967166e-03

number of iteration: 1 
S-sub-bulk = 8.541461e-03
S-sub-base = 2.873630e-06
S-o2-bulk = 1.000000e-02
S-o2-base = 7.967167e-03

number of iteration: 1 
S-sub-bulk = 8.541457e-03
S-sub-base = 2.873625e-06
S-o2-bulk = 1.000000e-02
S-o2-base = 7.967168e-03

number of iteration: 1 
S-sub-bulk = 8.541453e-03
S-sub-base = 2.873620e-06
S-o2-bulk = 1.000000e-02
S-o2-base = 7.967169e-03

number of iteration: 1 
S-sub-bulk = 8.541449e-03
S-sub-base = 2.873615e-06
S-o2-bulk = 1.000000e-02
S-o2-base = 7.967170e-03

number of iteration: 1 
S-sub-bulk = 8.541445e-03
S-sub-base = 2.873610e-06
S-o2-bulk = 1.000000e-02
S-o2-base = 7.967171e-03

number of iteration: 1 
S-sub-bulk = 8.541441e-03
S-sub-base = 2.873605e-06
S-o2-bulk = 1.000000e-02
S-o2-base = 7.967172e-03

number of iteration: 1 
S-sub-bulk = 8.541437e-03
S-sub-base = 2.873600e-06
S-o2-bulk = 1.000000e-02
S-o2-base = 7.967173e-03

number of iteration: 1 
S-sub-bulk = 8.541433e-03
S-sub-base = 2.873595e-06
S-o2-bulk = 1.000000e-02
S-o2-base = 7.967174e-03

number of iteration: 1 
S-sub-bulk = 8.541429e-03
S-sub-base = 2.873590e-06
S-o2-bulk = 1.000000e-02
S-o2-base = 7.967175e-03

number of iteration: 1 
S-sub-bulk = 8.541425e-03
S-sub-base = 2.873585e-06
S-o2-bulk = 1.000000e-02
S-o2-base = 7.967176e-03

number of iteration: 1 
S-sub-bulk = 8.541421e-03
S-sub-base = 2.873580e-06
S-o2-bulk = 1.000000e-02
S-o2-base = 7.967177e-03

number of iteration: 1 
S-sub-bulk = 8.541417e-03
S-sub-base = 2.873575e-06
S-o2-bulk = 1.000000e-02
S-o2-base = 7.967178e-03

number of iteration: 1 
S-sub-bulk = 8.541412e-03
S-sub-base = 2.873570e-06
S-o2-bulk = 1.000000e-02
S-o2-base = 7.967179e-03

number of iteration: 1 
S-sub-bulk = 8.541408e-03
S-sub-base = 2.873565e-06
S-o2-bulk = 1.000000e-02
S-o2-base = 7.967180e-03

number of iteration: 1 
S-sub-bulk = 8.541404e-03
S-sub-base = 2.873560e-06
S-o2-bulk = 1.000000e-02
S-o2-base = 7.967181e-03

number of iteration: 1 
S-sub-bulk = 8.541400e-03
S-sub-base = 2.873555e-06
S-o2-bulk = 1.000000e-02
S-o2-base = 7.967182e-03

number of iteration: 1 
S-sub-bulk = 8.541396e-03
S-sub-base = 2.873550e-06
S-o2-bulk = 1.000000e-02
S-o2-base = 7.967183e-03

number of iteration: 1 
S-sub-bulk = 8.541392e-03
S-sub-base = 2.873545e-06
S-o2-bulk = 1.000000e-02
S-o2-base = 7.967184e-03

number of iteration: 1 
S-sub-bulk = 8.541388e-03
S-sub-base = 2.873540e-06
S-o2-bulk = 1.000000e-02
S-o2-base = 7.967185e-03

number of iteration: 1 
S-sub-bulk = 8.541384e-03
S-sub-base = 2.873535e-06
S-o2-bulk = 1.000000e-02
S-o2-base = 7.967186e-03

number of iteration: 1 
S-sub-bulk = 8.541380e-03
S-sub-base = 2.873530e-06
S-o2-bulk = 1.000000e-02
S-o2-base = 7.967187e-03

number of iteration: 1 
S-sub-bulk = 8.541376e-03
S-sub-base = 2.873525e-06
S-o2-bulk = 1.000000e-02
S-o2-base = 7.967188e-03

number of iteration: 1 
S-sub-bulk = 8.541372e-03
S-sub-base = 2.873520e-06
S-o2-bulk = 1.000000e-02
S-o2-base = 7.967189e-03

number of iteration: 1 
S-sub-bulk = 8.541368e-03
S-sub-base = 2.873516e-06
S-o2-bulk = 1.000000e-02
S-o2-base = 7.967190e-03

number of iteration: 1 
S-sub-bulk = 8.541363e-03
S-sub-base = 2.873511e-06
S-o2-bulk = 1.000000e-02
S-o2-base = 7.967191e-03

number of iteration: 1 
S-sub-bulk = 8.541359e-03
S-sub-base = 2.873506e-06
S-o2-bulk = 1.000000e-02
S-o2-base = 7.967192e-03

number of iteration: 1 
S-sub-bulk = 8.541355e-03
S-sub-base = 2.873501e-06
S-o2-bulk = 1.000000e-02
S-o2-base = 7.967193e-03

number of iteration: 1 
S-sub-bulk = 8.541351e-03
S-sub-base = 2.873496e-06
S-o2-bulk = 1.000000e-02
S-o2-base = 7.967194e-03

number of iteration: 1 
S-sub-bulk = 8.541347e-03
S-sub-base = 2.873491e-06
S-o2-bulk = 1.000000e-02
S-o2-base = 7.967195e-03

number of iteration: 1 
S-sub-bulk = 8.541343e-03
S-sub-base = 2.873486e-06
S-o2-bulk = 1.000000e-02
S-o2-base = 7.967196e-03

number of iteration: 1 
S-sub-bulk = 8.541339e-03
S-sub-base = 2.873481e-06
S-o2-bulk = 1.000000e-02
S-o2-base = 7.967197e-03

number of iteration: 1 
S-sub-bulk = 8.541335e-03
S-sub-base = 2.873476e-06
S-o2-bulk = 1.000000e-02
S-o2-base = 7.967198e-03

number of iteration: 1 
S-sub-bulk = 8.541331e-03
S-sub-base = 2.873471e-06
S-o2-bulk = 1.000000e-02
S-o2-base = 7.967199e-03

number of iteration: 1 
S-sub-bulk = 8.541327e-03
S-sub-base = 2.873466e-06
S-o2-bulk = 1.000000e-02
S-o2-base = 7.967200e-03

number of iteration: 1 
S-sub-bulk = 8.541323e-03
S-sub-base = 2.873461e-06
S-o2-bulk = 1.000000e-02
S-o2-base = 7.967201e-03

number of iteration: 1 
S-sub-bulk = 8.541318e-03
S-sub-base = 2.873456e-06
S-o2-bulk = 1.000000e-02
S-o2-base = 7.967202e-03

number of iteration: 1 
S-sub-bulk = 8.541314e-03
S-sub-base = 2.873451e-06
S-o2-bulk = 1.000000e-02
S-o2-base = 7.967203e-03

number of iteration: 1 
S-sub-bulk = 8.541310e-03
S-sub-base = 2.873446e-06
S-o2-bulk = 1.000000e-02
S-o2-base = 7.967204e-03

number of iteration: 1 
S-sub-bulk = 8.541306e-03
S-sub-base = 2.873441e-06
S-o2-bulk = 1.000000e-02
S-o2-base = 7.967205e-03

number of iteration: 1 
S-sub-bulk = 8.541302e-03
S-sub-base = 2.873436e-06
S-o2-bulk = 1.000000e-02
S-o2-base = 7.967206e-03

number of iteration: 1 
S-sub-bulk = 8.541298e-03
S-sub-base = 2.873431e-06
S-o2-bulk = 1.000000e-02
S-o2-base = 7.967207e-03

number of iteration: 1 
S-sub-bulk = 8.541294e-03
S-sub-base = 2.873426e-06
S-o2-bulk = 1.000000e-02
S-o2-base = 7.967208e-03

number of iteration: 1 
S-sub-bulk = 8.541290e-03
S-sub-base = 2.873421e-06
S-o2-bulk = 1.000000e-02
S-o2-base = 7.967209e-03

number of iteration: 1 
S-sub-bulk = 8.541286e-03
S-sub-base = 2.873416e-06
S-o2-bulk = 1.000000e-02
S-o2-base = 7.967210e-03

number of iteration: 1 
S-sub-bulk = 8.541282e-03
S-sub-base = 2.873411e-06
S-o2-bulk = 1.000000e-02
S-o2-base = 7.967211e-03

number of iteration: 1 
S-sub-bulk = 8.541278e-03
S-sub-base = 2.873407e-06
S-o2-bulk = 1.000000e-02
S-o2-base = 7.967212e-03

number of iteration: 1 
S-sub-bulk = 8.541274e-03
S-sub-base = 2.873402e-06
S-o2-bulk = 1.000000e-02
S-o2-base = 7.967213e-03

number of iteration: 1 
S-sub-bulk = 8.541269e-03
S-sub-base = 2.873397e-06
S-o2-bulk = 1.000000e-02
S-o2-base = 7.967214e-03

number of iteration: 1 
S-sub-bulk = 8.541265e-03
S-sub-base = 2.873392e-06
S-o2-bulk = 1.000000e-02
S-o2-base = 7.967215e-03

number of iteration: 1 
S-sub-bulk = 8.541261e-03
S-sub-base = 2.873387e-06
S-o2-bulk = 1.000000e-02
S-o2-base = 7.967216e-03

number of iteration: 1 
S-sub-bulk = 8.541257e-03
S-sub-base = 2.873382e-06
S-o2-bulk = 1.000000e-02
S-o2-base = 7.967217e-03

number of iteration: 1 
S-sub-bulk = 8.541253e-03
S-sub-base = 2.873377e-06
S-o2-bulk = 1.000000e-02
S-o2-base = 7.967218e-03

number of iteration: 1 
S-sub-bulk = 8.541249e-03
S-sub-base = 2.873372e-06
S-o2-bulk = 1.000000e-02
S-o2-base = 7.967219e-03

number of iteration: 1 
S-sub-bulk = 8.541245e-03
S-sub-base = 2.873367e-06
S-o2-bulk = 1.000000e-02
S-o2-base = 7.967220e-03

number of iteration: 1 
S-sub-bulk = 8.541241e-03
S-sub-base = 2.873362e-06
S-o2-bulk = 1.000000e-02
S-o2-base = 7.967221e-03

number of iteration: 1 
S-sub-bulk = 8.541237e-03
S-sub-base = 2.873357e-06
S-o2-bulk = 1.000000e-02
S-o2-base = 7.967222e-03

number of iteration: 1 
S-sub-bulk = 8.541233e-03
S-sub-base = 2.873352e-06
S-o2-bulk = 1.000000e-02
S-o2-base = 7.967223e-03

number of iteration: 1 
S-sub-bulk = 8.541229e-03
S-sub-base = 2.873347e-06
S-o2-bulk = 1.000000e-02
S-o2-base = 7.967224e-03

number of iteration: 1 
S-sub-bulk = 8.541225e-03
S-sub-base = 2.873342e-06
S-o2-bulk = 1.000000e-02
S-o2-base = 7.967225e-03

number of iteration: 1 
S-sub-bulk = 8.541220e-03
S-sub-base = 2.873337e-06
S-o2-bulk = 1.000000e-02
S-o2-base = 7.967226e-03

number of iteration: 1 
S-sub-bulk = 8.541216e-03
S-sub-base = 2.873332e-06
S-o2-bulk = 1.000000e-02
S-o2-base = 7.967228e-03

number of iteration: 1 
S-sub-bulk = 8.541212e-03
S-sub-base = 2.873327e-06
S-o2-bulk = 1.000000e-02
S-o2-base = 7.967229e-03

number of iteration: 1 
S-sub-bulk = 8.541208e-03
S-sub-base = 2.873322e-06
S-o2-bulk = 1.000000e-02
S-o2-base = 7.967230e-03

number of iteration: 1 
S-sub-bulk = 8.541204e-03
S-sub-base = 2.873317e-06
S-o2-bulk = 1.000000e-02
S-o2-base = 7.967231e-03

number of iteration: 1 
S-sub-bulk = 8.541200e-03
S-sub-base = 2.873312e-06
S-o2-bulk = 1.000000e-02
S-o2-base = 7.967232e-03

number of iteration: 1 
S-sub-bulk = 8.541196e-03
S-sub-base = 2.873307e-06
S-o2-bulk = 1.000000e-02
S-o2-base = 7.967233e-03

number of iteration: 1 
S-sub-bulk = 8.541192e-03
S-sub-base = 2.873303e-06
S-o2-bulk = 1.000000e-02
S-o2-base = 7.967234e-03

number of iteration: 1 
S-sub-bulk = 8.541188e-03
S-sub-base = 2.873298e-06
S-o2-bulk = 1.000000e-02
S-o2-base = 7.967235e-03

number of iteration: 1 
S-sub-bulk = 8.541184e-03
S-sub-base = 2.873293e-06
S-o2-bulk = 1.000000e-02
S-o2-base = 7.967236e-03

number of iteration: 1 
S-sub-bulk = 8.541180e-03
S-sub-base = 2.873288e-06
S-o2-bulk = 1.000000e-02
S-o2-base = 7.967237e-03

number of iteration: 1 
S-sub-bulk = 8.541175e-03
S-sub-base = 2.873283e-06
S-o2-bulk = 1.000000e-02
S-o2-base = 7.967238e-03

number of iteration: 1 
S-sub-bulk = 8.541171e-03
S-sub-base = 2.873278e-06
S-o2-bulk = 1.000000e-02
S-o2-base = 7.967239e-03

number of iteration: 1 
S-sub-bulk = 8.541167e-03
S-sub-base = 2.873273e-06
S-o2-bulk = 1.000000e-02
S-o2-base = 7.967240e-03

number of iteration: 1 
S-sub-bulk = 8.541163e-03
S-sub-base = 2.873268e-06
S-o2-bulk = 1.000000e-02
S-o2-base = 7.967241e-03

number of iteration: 1 
S-sub-bulk = 8.541159e-03
S-sub-base = 2.873263e-06
S-o2-bulk = 1.000000e-02
S-o2-base = 7.967242e-03

number of iteration: 1 
S-sub-bulk = 8.541155e-03
S-sub-base = 2.873258e-06
S-o2-bulk = 1.000000e-02
S-o2-base = 7.967243e-03

number of iteration: 1 
S-sub-bulk = 8.541151e-03
S-sub-base = 2.873253e-06
S-o2-bulk = 1.000000e-02
S-o2-base = 7.967244e-03

number of iteration: 1 
S-sub-bulk = 8.541147e-03
S-sub-base = 2.873248e-06
S-o2-bulk = 1.000000e-02
S-o2-base = 7.967245e-03

number of iteration: 1 
S-sub-bulk = 8.541143e-03
S-sub-base = 2.873243e-06
S-o2-bulk = 1.000000e-02
S-o2-base = 7.967246e-03

number of iteration: 1 
S-sub-bulk = 8.541139e-03
S-sub-base = 2.873238e-06
S-o2-bulk = 1.000000e-02
S-o2-base = 7.967247e-03

number of iteration: 1 
S-sub-bulk = 8.541135e-03
S-sub-base = 2.873233e-06
S-o2-bulk = 1.000000e-02
S-o2-base = 7.967248e-03

number of iteration: 1 
S-sub-bulk = 8.541130e-03
S-sub-base = 2.873228e-06
S-o2-bulk = 1.000000e-02
S-o2-base = 7.967249e-03

number of iteration: 1 
S-sub-bulk = 8.541126e-03
S-sub-base = 2.873223e-06
S-o2-bulk = 1.000000e-02
S-o2-base = 7.967250e-03

number of iteration: 1 
S-sub-bulk = 8.541122e-03
S-sub-base = 2.873218e-06
S-o2-bulk = 1.000000e-02
S-o2-base = 7.967251e-03

number of iteration: 1 
S-sub-bulk = 8.541118e-03
S-sub-base = 2.873213e-06
S-o2-bulk = 1.000000e-02
S-o2-base = 7.967252e-03

number of iteration: 1 
S-sub-bulk = 8.541114e-03
S-sub-base = 2.873208e-06
S-o2-bulk = 1.000000e-02
S-o2-base = 7.967253e-03

number of iteration: 1 
S-sub-bulk = 8.541110e-03
S-sub-base = 2.873203e-06
S-o2-bulk = 1.000000e-02
S-o2-base = 7.967254e-03

number of iteration: 1 
S-sub-bulk = 8.541106e-03
S-sub-base = 2.873198e-06
S-o2-bulk = 1.000000e-02
S-o2-base = 7.967255e-03

number of iteration: 1 
S-sub-bulk = 8.541102e-03
S-sub-base = 2.873194e-06
S-o2-bulk = 1.000000e-02
S-o2-base = 7.967256e-03

number of iteration: 1 
S-sub-bulk = 8.541098e-03
S-sub-base = 2.873189e-06
S-o2-bulk = 1.000000e-02
S-o2-base = 7.967257e-03

number of iteration: 1 
S-sub-bulk = 8.541094e-03
S-sub-base = 2.873184e-06
S-o2-bulk = 1.000000e-02
S-o2-base = 7.967258e-03

number of iteration: 1 
S-sub-bulk = 8.541090e-03
S-sub-base = 2.873179e-06
S-o2-bulk = 1.000000e-02
S-o2-base = 7.967259e-03

number of iteration: 1 
S-sub-bulk = 8.541085e-03
S-sub-base = 2.873174e-06
S-o2-bulk = 1.000000e-02
S-o2-base = 7.967260e-03

number of iteration: 1 
S-sub-bulk = 8.541081e-03
S-sub-base = 2.873169e-06
S-o2-bulk = 1.000000e-02
S-o2-base = 7.967261e-03

number of iteration: 1 
S-sub-bulk = 8.541077e-03
S-sub-base = 2.873164e-06
S-o2-bulk = 1.000000e-02
S-o2-base = 7.967262e-03

ERROR: Stop here (../fix_bio_verify.cpp:251)
