LAMMPS (5 Nov 2016)
# NUFEB simulation

atom_style	bio
atom_modify	map array sort 1000 5.0e-7
boundary	pp pp ff
newton		off
processors  2 1 1

comm_modify	vel yes

read_data_bio atom.in
  orthogonal box = (0 0 0) to (2e-05 2e-05 0.0006)
  2 by 1 by 1 MPI processor grid
  reading atoms ...
  9 atoms
  5 nutrients

group HET type 1
9 atoms in group HET

neighbor	5e-7 bin
neigh_modify	delay 0 one 2000

timestep 1800

fix 1 all nve/limit 1e-8
fix fv all viscous 1e-5

fix zw all wall/gran hooke/history 2000 NULL 500.0 NULL 1.5 0 zplane  0.0   6e-04
fix zwa all walladh v_kanc zplane  0.0   6e-04

##############Ibm Variable Definitions##############

#Defining EPS density and ratio variables
variable EPSdens equal 30
variable EPSratio equal 1.25
variable divMass equal 4e-16

variable ke equal 5e+10

#Defining kinetics variables
variable temp equal 298.15
variable gasTran equal 0.08205746
variable gvol equal 8e-14
variable rth equal 0.0083144
variable pressure equal 1
variable ph equal 7.0
variable etaHET equal 0.0

#Defining diffusion variables
variable diffT equal 1e-4
variable tol equal 1e-6
variable blThick equal 0
variable Q equal 0.000000231
variable rvol equal 1.25e-3
variable Af equal 0.1
variable shearRate equal 0.0

#Defining critical diameter of death
variable deadMass equal 6e-17

##############Simulation outputs##############

compute myPres all pressure thermo_temp

#dump		id all custom 20 snapshot.bubblemd id type diameter x y z
thermo_style    custom step cpu atoms biomass c_myPres
thermo		1000
thermo_modify	lost ignore



##############DEM functions##############
label       loopa
variable    a loop 10000

pair_style  gran/hooke/history 1.e-4 NULL 1.e-5 NULL 0.0 1
pair_coeff  * *

timestep 1800

variable kanc equal 50

fix 1 all nve/limit 1e-8
fix fv all viscous 1e-5

fix zw all wall/gran hooke/history 2000 NULL 500.0 NULL 1.5 0 zplane  0.0   1e-04
fix zwa all walladh v_kanc zplane  0.0   1e-04


##############Ibm functions##############

fix k1 all kinetics 1 10 10 300 v_temp v_rth v_gvol v_gasTran v_ph v_diffT v_blThick
fix kgm all kinetics/growth/monod v_EPSdens v_etaHET 1
fix g1 all kinetics/diffusion v_shearRate v_tol pp pp nd kg bulk v_Q v_rvol v_Af
fix d1 all divide 1 v_EPSdens v_divMass 31231
fix vf1 all verify 1 bm1 3

run 1
WARNING: EPS is not defined in fix_kinetics/kinetics/monod (../fix_bio_kinetics_monod.cpp:242)
Neighbor list info ...
  2 neighbor list requests
  update every 1 steps, delay 0 steps, check yes
  max neighbors/atom: 2000, page size: 100000
  master list distance cutoff = 1.5e-06
  ghost atom cutoff = 1.5e-06
  binsize = 7.5e-07 -> bins = 27 27 800
Memory usage per processor = 9.0794 Mbytes
Step CPU Atoms biomass c_myPres 
       0            0        9 8.4823002e-17            0 
       1 0.0078539848        9 9.3288065e-17            0 
Loop time of 0.00793362 on 2 procs for 1 steps with 9 atoms

Performance: 19602661319.870 tau/day, 126.046 timesteps/s
100.8% CPU use with 2 MPI tasks x no OpenMP threads

MPI task timing breakdown:
Section |  min time  |  avg time  |  max time  |%varavg| %total
---------------------------------------------------------------
Pair    | 1.9073e-06 | 2.5034e-06 | 3.0994e-06 |   0.0 |  0.03
Neigh   | 0.00063515 | 0.0006361  | 0.00063705 |   0.0 |  8.02
Comm    | 1.0967e-05 | 1.0967e-05 | 1.0967e-05 |   0.0 |  0.14
Output  | 2.3842e-05 | 0.00010443 | 0.00018501 |   0.8 |  1.32
Modify  | 0.0070279  | 0.0071075  | 0.0071871  |   0.1 | 89.59
Other   |            | 7.212e-05  |            |       |  0.91

Nlocal:    4.5 ave 6 max 3 min
Histogram: 1 0 0 0 0 0 0 0 0 1
Nghost:    1.5 ave 3 max 0 min
Histogram: 1 0 0 0 0 0 0 0 0 1
Neighs:    0 ave 0 max 0 min
Histogram: 2 0 0 0 0 0 0 0 0 0

Total # of neighbors = 0
Ave neighs/atom = 0
Neighbor list builds = 1
Dangerous builds = 0

##############DEM Run##############
unfix kgm
unfix g1
unfix d1
unfix vf1
unfix k1

timestep 1e-3
run 10000
Neighbor list info ...
  2 neighbor list requests
  update every 1 steps, delay 0 steps, check yes
  max neighbors/atom: 2000, page size: 100000
  master list distance cutoff = 1.53222e-06
  ghost atom cutoff = 1.53222e-06
  binsize = 7.66108e-07 -> bins = 27 27 784
Memory usage per processor = 9.07941 Mbytes
Step CPU Atoms biomass c_myPres 
       1            0        9 9.3288065e-17            0 
    1000 0.0067038536        9 9.3288065e-17            0 
    2000  0.015942812        9 9.3288065e-17            0 
    3000  0.022164822        9 9.3288065e-17            0 
    4000  0.029907942        9 9.3288065e-17            0 
    5000  0.036636829        9 9.3288065e-17            0 
    6000  0.043253899        9 9.3288065e-17            0 
    7000  0.049602985        9 9.3288065e-17            0 
    8000  0.055487871        9 9.3288065e-17            0 
    9000  0.063588858        9 9.3288065e-17            0 
   10000  0.070564985        9 9.3288065e-17            0 
   10001  0.070765972        9 9.3288065e-17            0 
Loop time of 0.070853 on 2 procs for 10000 steps with 9 atoms

Performance: 12194262.233 tau/day, 141137.294 timesteps/s
87.5% CPU use with 2 MPI tasks x no OpenMP threads

MPI task timing breakdown:
Section |  min time  |  avg time  |  max time  |%varavg| %total
---------------------------------------------------------------
Pair    | 0.0022268  | 0.0023137  | 0.0024006  |   0.2 |  3.27
Neigh   | 0          | 0          | 0          |   0.0 |  0.00
Comm    | 0.010095   | 0.014373   | 0.018652   |   3.6 | 20.29
Output  | 0.00031877 | 0.0012503  | 0.0021818  |   2.6 |  1.76
Modify  | 0.017864   | 0.01858    | 0.019297   |   0.5 | 26.22
Other   |            | 0.03434    |            |       | 48.46

Nlocal:    4.5 ave 6 max 3 min
Histogram: 1 0 0 0 0 0 0 0 0 1
Nghost:    1.5 ave 3 max 0 min
Histogram: 1 0 0 0 0 0 0 0 0 1
Neighs:    0 ave 0 max 0 min
Histogram: 2 0 0 0 0 0 0 0 0 0

Total # of neighbors = 0
Ave neighs/atom = 0
Neighbor list builds = 0
Dangerous builds = 0

next a
jump SELF loopa
variable    a loop 10000

pair_style  gran/hooke/history 1.e-4 NULL 1.e-5 NULL 0.0 1
pair_coeff  * *

timestep 1800

variable kanc equal 50

fix 1 all nve/limit 1e-8
fix fv all viscous 1e-5

fix zw all wall/gran hooke/history 2000 NULL 500.0 NULL 1.5 0 zplane  0.0   1e-04
fix zwa all walladh v_kanc zplane  0.0   1e-04


##############Ibm functions##############

fix k1 all kinetics 1 10 10 300 v_temp v_rth v_gvol v_gasTran v_ph v_diffT v_blThick
fix kgm all kinetics/growth/monod v_EPSdens v_etaHET 1
fix g1 all kinetics/diffusion v_shearRate v_tol pp pp nd kg bulk v_Q v_rvol v_Af
fix d1 all divide 1 v_EPSdens v_divMass 31231
fix vf1 all verify 1 bm1 3

run 1
WARNING: EPS is not defined in fix_kinetics/kinetics/monod (../fix_bio_kinetics_monod.cpp:242)
Memory usage per processor = 9.07941 Mbytes
Step CPU Atoms biomass c_myPres 
   10001            0        9 9.3288065e-17            0 
   10002 0.0072691441        9 1.0259791e-16            0 
Loop time of 0.00735402 on 2 procs for 1 steps with 9 atoms

Performance: 21147614137.786 tau/day, 135.980 timesteps/s
54.4% CPU use with 2 MPI tasks x no OpenMP threads

MPI task timing breakdown:
Section |  min time  |  avg time  |  max time  |%varavg| %total
---------------------------------------------------------------
Pair    | 2.1458e-06 | 2.6226e-06 | 3.0994e-06 |   0.0 |  0.04
Neigh   | 0.00062919 | 0.00066018 | 0.00069118 |   0.1 |  8.98
Comm    | 1.0014e-05 | 1.0014e-05 | 1.0014e-05 |   0.0 |  0.14
Output  | 2.0981e-05 | 5.5552e-05 | 9.0122e-05 |   0.5 |  0.76
Modify  | 0.006547   | 0.0065769  | 0.0066068  |   0.0 | 89.43
Other   |            | 4.876e-05  |            |       |  0.66

Nlocal:    4.5 ave 6 max 3 min
Histogram: 1 0 0 0 0 0 0 0 0 1
Nghost:    1.5 ave 3 max 0 min
Histogram: 1 0 0 0 0 0 0 0 0 1
Neighs:    0 ave 0 max 0 min
Histogram: 2 0 0 0 0 0 0 0 0 0

Total # of neighbors = 0
Ave neighs/atom = 0
Neighbor list builds = 1
Dangerous builds = 0

##############DEM Run##############
unfix kgm
unfix g1
unfix d1
unfix vf1
unfix k1

timestep 1e-3
run 10000
Neighbor list info ...
  2 neighbor list requests
  update every 1 steps, delay 0 steps, check yes
  max neighbors/atom: 2000, page size: 100000
  master list distance cutoff = 1.56547e-06
  ghost atom cutoff = 1.56547e-06
  binsize = 7.82735e-07 -> bins = 26 26 767
Memory usage per processor = 9.07941 Mbytes
Step CPU Atoms biomass c_myPres 
   10002            0        9 1.0259791e-16            0 
   11000 0.0071270466        9 1.0259791e-16            0 
   12000  0.013019085        9 1.0259791e-16            0 
   13000  0.019271135        9 1.0259791e-16            0 
   14000  0.025278091        9 1.0259791e-16            0 
   15000  0.033702135        9 1.0259791e-16            0 
   16000  0.039637089        9 1.0259791e-16            0 
   17000  0.045618057        9 1.0259791e-16            0 
   18000  0.054721117        9 1.0259791e-16            0 
   19000  0.063172102        9 1.0259791e-16            0 
   20000  0.071212053        9 1.0259791e-16            0 
   20002  0.071419001        9 1.0259791e-16            0 
Loop time of 0.0715032 on 2 procs for 10000 steps with 9 atoms

Performance: 12083381.646 tau/day, 139853.954 timesteps/s
89.5% CPU use with 2 MPI tasks x no OpenMP threads

MPI task timing breakdown:
Section |  min time  |  avg time  |  max time  |%varavg| %total
---------------------------------------------------------------
Pair    | 0.0021131  | 0.0027771  | 0.0034411  |   1.3 |  3.88
Neigh   | 0          | 0          | 0          |   0.0 |  0.00
Comm    | 0.010336   | 0.01632    | 0.022305   |   4.7 | 22.82
Output  | 0.00034046 | 0.0013785  | 0.0024166  |   2.8 |  1.93
Modify  | 0.015597   | 0.017189   | 0.018781   |   1.2 | 24.04
Other   |            | 0.03384    |            |       | 47.32

Nlocal:    4.5 ave 6 max 3 min
Histogram: 1 0 0 0 0 0 0 0 0 1
Nghost:    1.5 ave 3 max 0 min
Histogram: 1 0 0 0 0 0 0 0 0 1
Neighs:    0 ave 0 max 0 min
Histogram: 2 0 0 0 0 0 0 0 0 0

Total # of neighbors = 0
Ave neighs/atom = 0
Neighbor list builds = 0
Dangerous builds = 0

next a
jump SELF loopa
variable    a loop 10000

pair_style  gran/hooke/history 1.e-4 NULL 1.e-5 NULL 0.0 1
pair_coeff  * *

timestep 1800

variable kanc equal 50

fix 1 all nve/limit 1e-8
fix fv all viscous 1e-5

fix zw all wall/gran hooke/history 2000 NULL 500.0 NULL 1.5 0 zplane  0.0   1e-04
fix zwa all walladh v_kanc zplane  0.0   1e-04


##############Ibm functions##############

fix k1 all kinetics 1 10 10 300 v_temp v_rth v_gvol v_gasTran v_ph v_diffT v_blThick
fix kgm all kinetics/growth/monod v_EPSdens v_etaHET 1
fix g1 all kinetics/diffusion v_shearRate v_tol pp pp nd kg bulk v_Q v_rvol v_Af
fix d1 all divide 1 v_EPSdens v_divMass 31231
fix vf1 all verify 1 bm1 3

run 1
WARNING: EPS is not defined in fix_kinetics/kinetics/monod (../fix_bio_kinetics_monod.cpp:242)
Memory usage per processor = 9.07941 Mbytes
Step CPU Atoms biomass c_myPres 
   20002            0        9 1.0259791e-16            0 
   20003  0.010782003        9 1.1283686e-16            0 
Loop time of 0.0109179 on 2 procs for 1 steps with 9 atoms

Performance: 14244494968.227 tau/day, 91.593 timesteps/s
73.3% CPU use with 2 MPI tasks x no OpenMP threads

MPI task timing breakdown:
Section |  min time  |  avg time  |  max time  |%varavg| %total
---------------------------------------------------------------
Pair    | 1.9073e-06 | 2.3842e-06 | 2.861e-06  |   0.0 |  0.02
Neigh   | 0.00058293 | 0.0006119  | 0.00064087 |   0.1 |  5.60
Comm    | 1.0967e-05 | 1.0967e-05 | 1.0967e-05 |   0.0 |  0.10
Output  | 2.5988e-05 | 0.00014353 | 0.00026107 |   1.0 |  1.31
Modify  | 0.010047   | 0.010076   | 0.010105   |   0.0 | 92.29
Other   |            | 7.308e-05  |            |       |  0.67

Nlocal:    4.5 ave 6 max 3 min
Histogram: 1 0 0 0 0 0 0 0 0 1
Nghost:    1.5 ave 3 max 0 min
Histogram: 1 0 0 0 0 0 0 0 0 1
Neighs:    0 ave 0 max 0 min
Histogram: 2 0 0 0 0 0 0 0 0 0

Total # of neighbors = 0
Ave neighs/atom = 0
Neighbor list builds = 1
Dangerous builds = 0

##############DEM Run##############
unfix kgm
unfix g1
unfix d1
unfix vf1
unfix k1

timestep 1e-3
run 10000
Neighbor list info ...
  2 neighbor list requests
  update every 1 steps, delay 0 steps, check yes
  max neighbors/atom: 2000, page size: 100000
  master list distance cutoff = 1.5998e-06
  ghost atom cutoff = 1.5998e-06
  binsize = 7.99898e-07 -> bins = 26 26 751
Memory usage per processor = 9.07941 Mbytes
Step CPU Atoms biomass c_myPres 
   20003            0        9 1.1283686e-16            0 
   21000 0.0067880154        9 1.1283686e-16            0 
   22000  0.017204046        9 1.1283686e-16            0 
   23000  0.023462057        9 1.1283686e-16            0 
   24000  0.030811071        9 1.1283686e-16            0 
   25000  0.037013054        9 1.1283686e-16            0 
   26000  0.044932127        9 1.1283686e-16            0 
   27000   0.05213809        9 1.1283686e-16            0 
   28000  0.057698011        9 1.1283686e-16            0 
   29000  0.065067053        9 1.1283686e-16            0 
   30000   0.07179904        9 1.1283686e-16            0 
   30003  0.073358059        9 1.1283686e-16            0 
Loop time of 0.0733895 on 2 procs for 10000 steps with 9 atoms

Performance: 11772796.445 tau/day, 136259.218 timesteps/s
84.5% CPU use with 2 MPI tasks x no OpenMP threads

MPI task timing breakdown:
Section |  min time  |  avg time  |  max time  |%varavg| %total
---------------------------------------------------------------
Pair    | 0.0020809  | 0.0021284  | 0.0021758  |   0.1 |  2.90
Neigh   | 0          | 0          | 0          |   0.0 |  0.00
Comm    | 0.010063   | 0.014775   | 0.019488   |   3.9 | 20.13
Output  | 0.00025344 | 0.0010622  | 0.0018709  |   2.5 |  1.45
Modify  | 0.017472   | 0.018657   | 0.019842   |   0.9 | 25.42
Other   |            | 0.03677    |            |       | 50.10

Nlocal:    4.5 ave 6 max 3 min
Histogram: 1 0 0 0 0 0 0 0 0 1
Nghost:    1.5 ave 3 max 0 min
Histogram: 1 0 0 0 0 0 0 0 0 1
Neighs:    0 ave 0 max 0 min
Histogram: 2 0 0 0 0 0 0 0 0 0

Total # of neighbors = 0
Ave neighs/atom = 0
Neighbor list builds = 0
Dangerous builds = 0

next a
jump SELF loopa
variable    a loop 10000

pair_style  gran/hooke/history 1.e-4 NULL 1.e-5 NULL 0.0 1
pair_coeff  * *

timestep 1800

variable kanc equal 50

fix 1 all nve/limit 1e-8
fix fv all viscous 1e-5

fix zw all wall/gran hooke/history 2000 NULL 500.0 NULL 1.5 0 zplane  0.0   1e-04
fix zwa all walladh v_kanc zplane  0.0   1e-04


##############Ibm functions##############

fix k1 all kinetics 1 10 10 300 v_temp v_rth v_gvol v_gasTran v_ph v_diffT v_blThick
fix kgm all kinetics/growth/monod v_EPSdens v_etaHET 1
fix g1 all kinetics/diffusion v_shearRate v_tol pp pp nd kg bulk v_Q v_rvol v_Af
fix d1 all divide 1 v_EPSdens v_divMass 31231
fix vf1 all verify 1 bm1 3

run 1
WARNING: EPS is not defined in fix_kinetics/kinetics/monod (../fix_bio_kinetics_monod.cpp:242)
Memory usage per processor = 9.07941 Mbytes
Step CPU Atoms biomass c_myPres 
   30003            0        9 1.1283686e-16            0 
   30004  0.011380911        9 1.2409761e-16            0 
Loop time of 0.0114114 on 2 procs for 1 steps with 9 atoms

Performance: 13628442807.179 tau/day, 87.631 timesteps/s
105.2% CPU use with 2 MPI tasks x no OpenMP threads

MPI task timing breakdown:
Section |  min time  |  avg time  |  max time  |%varavg| %total
---------------------------------------------------------------
Pair    | 1.9073e-06 | 2.5034e-06 | 3.0994e-06 |   0.0 |  0.02
Neigh   | 0.00058198 | 0.00062048 | 0.00065899 |   0.2 |  5.44
Comm    | 1.0967e-05 | 1.0967e-05 | 1.0967e-05 |   0.0 |  0.10
Output  | 2.0027e-05 | 2.5034e-05 | 3.0041e-05 |   0.1 |  0.22
Modify  | 0.010696   | 0.010733   | 0.010769   |   0.0 | 94.05
Other   |            | 1.991e-05  |            |       |  0.17

Nlocal:    4.5 ave 6 max 3 min
Histogram: 1 0 0 0 0 0 0 0 0 1
Nghost:    1.5 ave 3 max 0 min
Histogram: 1 0 0 0 0 0 0 0 0 1
Neighs:    0 ave 0 max 0 min
Histogram: 2 0 0 0 0 0 0 0 0 0

Total # of neighbors = 0
Ave neighs/atom = 0
Neighbor list builds = 1
Dangerous builds = 0

##############DEM Run##############
unfix kgm
unfix g1
unfix d1
unfix vf1
unfix k1

timestep 1e-3
run 10000
Neighbor list info ...
  2 neighbor list requests
  update every 1 steps, delay 0 steps, check yes
  max neighbors/atom: 2000, page size: 100000
  master list distance cutoff = 1.63523e-06
  ghost atom cutoff = 1.63523e-06
  binsize = 8.17614e-07 -> bins = 25 25 734
Memory usage per processor = 9.07941 Mbytes
Step CPU Atoms biomass c_myPres 
   30004            0        9 1.2409761e-16            0 
   31000   0.01069808        9 1.2409761e-16            0 
   32000  0.017914057        9 1.2409761e-16            0 
   33000  0.026209116        9 1.2409761e-16            0 
   34000  0.034234047        9 1.2409761e-16            0 
   35000  0.041450024        9 1.2409761e-16            0 
   36000  0.048583984        9 1.2409761e-16            0 
   37000  0.054645061        9 1.2409761e-16            0 
   38000   0.06259799        9 1.2409761e-16            0 
   39000  0.068917036        9 1.2409761e-16            0 
   40000  0.078490019        9 1.2409761e-16            0 
   40004  0.078777075        9 1.2409761e-16            0 
Loop time of 0.0788895 on 2 procs for 10000 steps with 9 atoms

Performance: 10952029.339 tau/day, 126759.599 timesteps/s
83.7% CPU use with 2 MPI tasks x no OpenMP threads

MPI task timing breakdown:
Section |  min time  |  avg time  |  max time  |%varavg| %total
---------------------------------------------------------------
Pair    | 0.0018761  | 0.0025223  | 0.0031686  |   1.3 |  3.20
Neigh   | 0          | 0          | 0          |   0.0 |  0.00
Comm    | 0.014035   | 0.016361   | 0.018687   |   1.8 | 20.74
Output  | 0.00031734 | 0.0010139  | 0.0017104  |   2.2 |  1.29
Modify  | 0.018742   | 0.019395   | 0.020048   |   0.5 | 24.59
Other   |            | 0.0396     |            |       | 50.19

Nlocal:    4.5 ave 6 max 3 min
Histogram: 1 0 0 0 0 0 0 0 0 1
Nghost:    1.5 ave 3 max 0 min
Histogram: 1 0 0 0 0 0 0 0 0 1
Neighs:    0 ave 0 max 0 min
Histogram: 2 0 0 0 0 0 0 0 0 0

Total # of neighbors = 0
Ave neighs/atom = 0
Neighbor list builds = 0
Dangerous builds = 0

next a
jump SELF loopa
variable    a loop 10000

pair_style  gran/hooke/history 1.e-4 NULL 1.e-5 NULL 0.0 1
pair_coeff  * *

timestep 1800

variable kanc equal 50

fix 1 all nve/limit 1e-8
fix fv all viscous 1e-5

fix zw all wall/gran hooke/history 2000 NULL 500.0 NULL 1.5 0 zplane  0.0   1e-04
fix zwa all walladh v_kanc zplane  0.0   1e-04


##############Ibm functions##############

fix k1 all kinetics 1 10 10 300 v_temp v_rth v_gvol v_gasTran v_ph v_diffT v_blThick
fix kgm all kinetics/growth/monod v_EPSdens v_etaHET 1
fix g1 all kinetics/diffusion v_shearRate v_tol pp pp nd kg bulk v_Q v_rvol v_Af
fix d1 all divide 1 v_EPSdens v_divMass 31231
fix vf1 all verify 1 bm1 3

run 1
WARNING: EPS is not defined in fix_kinetics/kinetics/monod (../fix_bio_kinetics_monod.cpp:242)
Memory usage per processor = 9.07941 Mbytes
Step CPU Atoms biomass c_myPres 
   40004            0        9 1.2409761e-16            0 
   40005 0.0094950199        9 1.3648216e-16            0 
Loop time of 0.0095861 on 2 procs for 1 steps with 9 atoms

Performance: 16223497353.197 tau/day, 104.318 timesteps/s
83.5% CPU use with 2 MPI tasks x no OpenMP threads

MPI task timing breakdown:
Section |  min time  |  avg time  |  max time  |%varavg| %total
---------------------------------------------------------------
Pair    | 1.9073e-06 | 2.5034e-06 | 3.0994e-06 |   0.0 |  0.03
Neigh   | 0.00051594 | 0.00054693 | 0.00057793 |   0.1 |  5.71
Comm    | 1.0967e-05 | 1.0967e-05 | 1.0967e-05 |   0.0 |  0.11
Output  | 2.0981e-05 | 5.9485e-05 | 9.799e-05  |   0.5 |  0.62
Modify  | 0.0088801  | 0.0089103  | 0.0089405  |   0.0 | 92.95
Other   |            | 5.591e-05  |            |       |  0.58

Nlocal:    4.5 ave 6 max 3 min
Histogram: 1 0 0 0 0 0 0 0 0 1
Nghost:    1.5 ave 3 max 0 min
Histogram: 1 0 0 0 0 0 0 0 0 1
Neighs:    0 ave 0 max 0 min
Histogram: 2 0 0 0 0 0 0 0 0 0

Total # of neighbors = 0
Ave neighs/atom = 0
Neighbor list builds = 1
Dangerous builds = 0

##############DEM Run##############
unfix kgm
unfix g1
unfix d1
unfix vf1
unfix k1

timestep 1e-3
run 10000
Neighbor list info ...
  2 neighbor list requests
  update every 1 steps, delay 0 steps, check yes
  max neighbors/atom: 2000, page size: 100000
  master list distance cutoff = 1.6718e-06
  ghost atom cutoff = 1.6718e-06
  binsize = 8.35901e-07 -> bins = 24 24 718
Memory usage per processor = 9.07941 Mbytes
Step CPU Atoms biomass c_myPres 
   40005            0        9 1.3648216e-16            0 
   41000 0.0066320896        9 1.3648216e-16            0 
   42000  0.016345978        9 1.3648216e-16            0 
   43000  0.023553133        9 1.3648216e-16            0 
   44000  0.032048941        9 1.3648216e-16            0 
   45000   0.03884697        9 1.3648216e-16            0 
   46000  0.049314022        9 1.3648216e-16            0 
   47000  0.055918932        9 1.3648216e-16            0 
   48000  0.062634945        9 1.3648216e-16            0 
   49000  0.069103003        9 1.3648216e-16            0 
   50000  0.078650951        9 1.3648216e-16            0 
   50005  0.079493999        9 1.3648216e-16            0 
Loop time of 0.0796762 on 2 procs for 10000 steps with 9 atoms

Performance: 10843897.279 tau/day, 125508.070 timesteps/s
82.8% CPU use with 2 MPI tasks x no OpenMP threads

MPI task timing breakdown:
Section |  min time  |  avg time  |  max time  |%varavg| %total
---------------------------------------------------------------
Pair    | 0.0020261  | 0.0023484  | 0.0026708  |   0.7 |  2.95
Neigh   | 0          | 0          | 0          |   0.0 |  0.00
Comm    | 0.012834   | 0.018738   | 0.024641   |   4.3 | 23.52
Output  | 0.00047421 | 0.0016985  | 0.0029228  |   3.0 |  2.13
Modify  | 0.016108   | 0.018767   | 0.021425   |   1.9 | 23.55
Other   |            | 0.03813    |            |       | 47.85

Nlocal:    4.5 ave 6 max 3 min
Histogram: 1 0 0 0 0 0 0 0 0 1
Nghost:    1.5 ave 3 max 0 min
Histogram: 1 0 0 0 0 0 0 0 0 1
Neighs:    0 ave 0 max 0 min
Histogram: 2 0 0 0 0 0 0 0 0 0

Total # of neighbors = 0
Ave neighs/atom = 0
Neighbor list builds = 0
Dangerous builds = 0

next a
jump SELF loopa
variable    a loop 10000

pair_style  gran/hooke/history 1.e-4 NULL 1.e-5 NULL 0.0 1
pair_coeff  * *

timestep 1800

variable kanc equal 50

fix 1 all nve/limit 1e-8
fix fv all viscous 1e-5

fix zw all wall/gran hooke/history 2000 NULL 500.0 NULL 1.5 0 zplane  0.0   1e-04
fix zwa all walladh v_kanc zplane  0.0   1e-04


##############Ibm functions##############

fix k1 all kinetics 1 10 10 300 v_temp v_rth v_gvol v_gasTran v_ph v_diffT v_blThick
fix kgm all kinetics/growth/monod v_EPSdens v_etaHET 1
fix g1 all kinetics/diffusion v_shearRate v_tol pp pp nd kg bulk v_Q v_rvol v_Af
fix d1 all divide 1 v_EPSdens v_divMass 31231
fix vf1 all verify 1 bm1 3

run 1
WARNING: EPS is not defined in fix_kinetics/kinetics/monod (../fix_bio_kinetics_monod.cpp:242)
Memory usage per processor = 9.07941 Mbytes
Step CPU Atoms biomass c_myPres 
   50005            0        9 1.3648216e-16            0 
   50006 0.0077068806        9 1.5010264e-16            0 
Loop time of 0.00779033 on 2 procs for 1 steps with 9 atoms

Performance: 19963218303.902 tau/day, 128.364 timesteps/s
102.7% CPU use with 2 MPI tasks x no OpenMP threads

MPI task timing breakdown:
Section |  min time  |  avg time  |  max time  |%varavg| %total
---------------------------------------------------------------
Pair    | 1.9073e-06 | 2.5034e-06 | 3.0994e-06 |   0.0 |  0.03
Neigh   | 0.00051904 | 0.00051999 | 0.00052094 |   0.0 |  6.67
Comm    | 1.0967e-05 | 1.0967e-05 | 1.0967e-05 |   0.0 |  0.14
Output  | 2.0981e-05 | 5.5432e-05 | 8.9884e-05 |   0.5 |  0.71
Modify  | 0.0071537  | 0.0071559  | 0.007158   |   0.0 | 91.86
Other   |            | 4.554e-05  |            |       |  0.58

Nlocal:    4.5 ave 6 max 3 min
Histogram: 1 0 0 0 0 0 0 0 0 1
Nghost:    1.5 ave 3 max 0 min
Histogram: 1 0 0 0 0 0 0 0 0 1
Neighs:    0 ave 0 max 0 min
Histogram: 2 0 0 0 0 0 0 0 0 0

Total # of neighbors = 0
Ave neighs/atom = 0
Neighbor list builds = 1
Dangerous builds = 0

##############DEM Run##############
unfix kgm
unfix g1
unfix d1
unfix vf1
unfix k1

timestep 1e-3
run 10000
Neighbor list info ...
  2 neighbor list requests
  update every 1 steps, delay 0 steps, check yes
  max neighbors/atom: 2000, page size: 100000
  master list distance cutoff = 1.70955e-06
  ghost atom cutoff = 1.70955e-06
  binsize = 8.54776e-07 -> bins = 24 24 702
Memory usage per processor = 9.07941 Mbytes
Step CPU Atoms biomass c_myPres 
   50006            0        9 1.5010264e-16            0 
   51000  0.010482073        9 1.5010264e-16            0 
   52000  0.018671989        9 1.5010264e-16            0 
   53000  0.024677038        9 1.5010264e-16            0 
   54000   0.03138113        9 1.5010264e-16            0 
   55000  0.037589073        9 1.5010264e-16            0 
   56000  0.043539047        9 1.5010264e-16            0 
   57000  0.053165913        9 1.5010264e-16            0 
   58000  0.059163094        9 1.5010264e-16            0 
   59000   0.07020092        9 1.5010264e-16            0 
   60000  0.076013088        9 1.5010264e-16            0 
   60006  0.076076031        9 1.5010264e-16            0 
Loop time of 0.0760901 on 2 procs for 10000 steps with 9 atoms

Performance: 11354959.833 tau/day, 131423.146 timesteps/s
86.7% CPU use with 2 MPI tasks x no OpenMP threads

MPI task timing breakdown:
Section |  min time  |  avg time  |  max time  |%varavg| %total
---------------------------------------------------------------
Pair    | 0.0021541  | 0.0022976  | 0.0024412  |   0.3 |  3.02
Neigh   | 0          | 0          | 0          |   0.0 |  0.00
Comm    | 0.01       | 0.016752   | 0.023504   |   5.2 | 22.02
Output  | 0.00025582 | 0.00032628 | 0.00039673 |   0.4 |  0.43
Modify  | 0.01479    | 0.017842   | 0.020895   |   2.3 | 23.45
Other   |            | 0.03887    |            |       | 51.09

Nlocal:    4.5 ave 6 max 3 min
Histogram: 1 0 0 0 0 0 0 0 0 1
Nghost:    1.5 ave 3 max 0 min
Histogram: 1 0 0 0 0 0 0 0 0 1
Neighs:    0 ave 0 max 0 min
Histogram: 2 0 0 0 0 0 0 0 0 0

Total # of neighbors = 0
Ave neighs/atom = 0
Neighbor list builds = 0
Dangerous builds = 0

next a
jump SELF loopa
variable    a loop 10000

pair_style  gran/hooke/history 1.e-4 NULL 1.e-5 NULL 0.0 1
pair_coeff  * *

timestep 1800

variable kanc equal 50

fix 1 all nve/limit 1e-8
fix fv all viscous 1e-5

fix zw all wall/gran hooke/history 2000 NULL 500.0 NULL 1.5 0 zplane  0.0   1e-04
fix zwa all walladh v_kanc zplane  0.0   1e-04


##############Ibm functions##############

fix k1 all kinetics 1 10 10 300 v_temp v_rth v_gvol v_gasTran v_ph v_diffT v_blThick
fix kgm all kinetics/growth/monod v_EPSdens v_etaHET 1
fix g1 all kinetics/diffusion v_shearRate v_tol pp pp nd kg bulk v_Q v_rvol v_Af
fix d1 all divide 1 v_EPSdens v_divMass 31231
fix vf1 all verify 1 bm1 3

run 1
WARNING: EPS is not defined in fix_kinetics/kinetics/monod (../fix_bio_kinetics_monod.cpp:242)
Memory usage per processor = 9.07941 Mbytes
Step CPU Atoms biomass c_myPres 
   60006            0        9 1.5010264e-16            0 
   60007 0.0069060326        9 1.650824e-16            0 
Loop time of 0.00692749 on 2 procs for 1 steps with 9 atoms

Performance: 22449688810.573 tau/day, 144.352 timesteps/s
115.5% CPU use with 2 MPI tasks x no OpenMP threads

MPI task timing breakdown:
Section |  min time  |  avg time  |  max time  |%varavg| %total
---------------------------------------------------------------
Pair    | 3.0994e-06 | 5.0068e-06 | 6.9141e-06 |   0.1 |  0.07
Neigh   | 0.00043988 | 0.00044096 | 0.00044203 |   0.0 |  6.37
Comm    | 9.0599e-06 | 9.5367e-06 | 1.0014e-05 |   0.0 |  0.14
Output  | 2.7895e-05 | 2.9445e-05 | 3.0994e-05 |   0.0 |  0.43
Modify  | 0.0064261  | 0.0064291  | 0.0064321  |   0.0 | 92.81
Other   |            | 1.347e-05  |            |       |  0.19

Nlocal:    4.5 ave 6 max 3 min
Histogram: 1 0 0 0 0 0 0 0 0 1
Nghost:    1.5 ave 3 max 0 min
Histogram: 1 0 0 0 0 0 0 0 0 1
Neighs:    0 ave 0 max 0 min
Histogram: 2 0 0 0 0 0 0 0 0 0

Total # of neighbors = 0
Ave neighs/atom = 0
Neighbor list builds = 1
Dangerous builds = 0

##############DEM Run##############
unfix kgm
unfix g1
unfix d1
unfix vf1
unfix k1

timestep 1e-3
run 10000
Neighbor list info ...
  2 neighbor list requests
  update every 1 steps, delay 0 steps, check yes
  max neighbors/atom: 2000, page size: 100000
  master list distance cutoff = 1.74852e-06
  ghost atom cutoff = 1.74852e-06
  binsize = 8.7426e-07 -> bins = 23 23 687
Memory usage per processor = 9.07941 Mbytes
Step CPU Atoms biomass c_myPres 
   60007            0        9 1.650824e-16            0 
   61000 0.0076920986        9 1.650824e-16            0 
   62000  0.013488054        9 1.650824e-16            0 
   63000   0.01947999        9 1.650824e-16            0 
   64000  0.025383949        9 1.650824e-16            0 
   65000  0.036278009        9 1.650824e-16            0 
   66000  0.041872978        9 1.650824e-16            0 
   67000  0.047739029        9 1.650824e-16            0 
   68000  0.053493023        9 1.650824e-16            0 
   69000  0.059066057        9 1.650824e-16            0 
   70000  0.065618992        9 1.650824e-16            0 
   70007  0.065683126        9 1.650824e-16            0 
Loop time of 0.0657027 on 2 procs for 10000 steps with 9 atoms

Performance: 13150149.163 tau/day, 152200.801 timesteps/s
88.3% CPU use with 2 MPI tasks x no OpenMP threads

MPI task timing breakdown:
Section |  min time  |  avg time  |  max time  |%varavg| %total
---------------------------------------------------------------
Pair    | 0.0020211  | 0.0020214  | 0.0020218  |   0.0 |  3.08
Neigh   | 0          | 0          | 0          |   0.0 |  0.00
Comm    | 0.0097146  | 0.01597    | 0.022226   |   5.0 | 24.31
Output  | 0.00027561 | 0.00035298 | 0.00043035 |   0.4 |  0.54
Modify  | 0.014406   | 0.016115   | 0.017823   |   1.3 | 24.53
Other   |            | 0.03124    |            |       | 47.55

Nlocal:    4.5 ave 6 max 3 min
Histogram: 1 0 0 0 0 0 0 0 0 1
Nghost:    1.5 ave 3 max 0 min
Histogram: 1 0 0 0 0 0 0 0 0 1
Neighs:    0 ave 0 max 0 min
Histogram: 2 0 0 0 0 0 0 0 0 0

Total # of neighbors = 0
Ave neighs/atom = 0
Neighbor list builds = 0
Dangerous builds = 0

next a
jump SELF loopa
variable    a loop 10000

pair_style  gran/hooke/history 1.e-4 NULL 1.e-5 NULL 0.0 1
pair_coeff  * *

timestep 1800

variable kanc equal 50

fix 1 all nve/limit 1e-8
fix fv all viscous 1e-5

fix zw all wall/gran hooke/history 2000 NULL 500.0 NULL 1.5 0 zplane  0.0   1e-04
fix zwa all walladh v_kanc zplane  0.0   1e-04


##############Ibm functions##############

fix k1 all kinetics 1 10 10 300 v_temp v_rth v_gvol v_gasTran v_ph v_diffT v_blThick
fix kgm all kinetics/growth/monod v_EPSdens v_etaHET 1
fix g1 all kinetics/diffusion v_shearRate v_tol pp pp nd kg bulk v_Q v_rvol v_Af
fix d1 all divide 1 v_EPSdens v_divMass 31231
fix vf1 all verify 1 bm1 3

run 1
WARNING: EPS is not defined in fix_kinetics/kinetics/monod (../fix_bio_kinetics_monod.cpp:242)
Memory usage per processor = 9.07941 Mbytes
Step CPU Atoms biomass c_myPres 
   70007            0        9 1.650824e-16            0 
   70008 0.0064740181        9 1.8155709e-16            0 
Loop time of 0.00649357 on 2 procs for 1 steps with 9 atoms

Performance: 23949851596.417 tau/day, 153.999 timesteps/s
61.6% CPU use with 2 MPI tasks x no OpenMP threads

MPI task timing breakdown:
Section |  min time  |  avg time  |  max time  |%varavg| %total
---------------------------------------------------------------
Pair    | 1.9073e-06 | 2.9802e-06 | 4.0531e-06 |   0.1 |  0.05
Neigh   | 0.00033712 | 0.00046265 | 0.00058818 |   0.6 |  7.12
Comm    | 1.0967e-05 | 1.0967e-05 | 1.0967e-05 |   0.0 |  0.17
Output  | 2.0027e-05 | 2.3007e-05 | 2.5988e-05 |   0.1 |  0.35
Modify  | 0.0058551  | 0.0059806  | 0.0061061  |   0.2 | 92.10
Other   |            | 1.335e-05  |            |       |  0.21

Nlocal:    4.5 ave 6 max 3 min
Histogram: 1 0 0 0 0 0 0 0 0 1
Nghost:    1.5 ave 3 max 0 min
Histogram: 1 0 0 0 0 0 0 0 0 1
Neighs:    0 ave 0 max 0 min
Histogram: 2 0 0 0 0 0 0 0 0 0

Total # of neighbors = 0
Ave neighs/atom = 0
Neighbor list builds = 1
Dangerous builds = 0

##############DEM Run##############
unfix kgm
unfix g1
unfix d1
unfix vf1
unfix k1

timestep 1e-3
run 10000
Neighbor list info ...
  2 neighbor list requests
  update every 1 steps, delay 0 steps, check yes
  max neighbors/atom: 2000, page size: 100000
  master list distance cutoff = 1.78874e-06
  ghost atom cutoff = 1.78874e-06
  binsize = 8.94372e-07 -> bins = 23 23 671
Memory usage per processor = 9.07941 Mbytes
Step CPU Atoms biomass c_myPres 
   70008            0        9 1.8155709e-16            0 
   71000 0.0054869652        9 1.8155709e-16            0 
   72000  0.013174057        9 1.8155709e-16            0 
   73000  0.019290924        9 1.8155709e-16            0 
   74000  0.024962902        9 1.8155709e-16            0 
   75000  0.032413006        9 1.8155709e-16            0 
   76000  0.042472124        9 1.8155709e-16            0 
   77000  0.048290968        9 1.8155709e-16            0 
   78000  0.056030035        9 1.8155709e-16            0 
   79000  0.067451954        9 1.8155709e-16            0 
   80000  0.073269129        9 1.8155709e-16            0 
   80008  0.073537111        9 1.8155709e-16            0 
Loop time of 0.0736346 on 2 procs for 10000 steps with 9 atoms

Performance: 11733610.460 tau/day, 135805.677 timesteps/s
86.9% CPU use with 2 MPI tasks x no OpenMP threads

MPI task timing breakdown:
Section |  min time  |  avg time  |  max time  |%varavg| %total
---------------------------------------------------------------
Pair    | 0.0019996  | 0.0021317  | 0.0022638  |   0.3 |  2.89
Neigh   | 0          | 0          | 0          |   0.0 |  0.00
Comm    | 0.01006    | 0.013301   | 0.016542   |   2.8 | 18.06
Output  | 0.00025582 | 0.0016794  | 0.003103   |   3.5 |  2.28
Modify  | 0.016503   | 0.018666   | 0.020828   |   1.6 | 25.35
Other   |            | 0.03786    |            |       | 51.41

Nlocal:    4.5 ave 6 max 3 min
Histogram: 1 0 0 0 0 0 0 0 0 1
Nghost:    1.5 ave 3 max 0 min
Histogram: 1 0 0 0 0 0 0 0 0 1
Neighs:    0 ave 0 max 0 min
Histogram: 2 0 0 0 0 0 0 0 0 0

Total # of neighbors = 0
Ave neighs/atom = 0
Neighbor list builds = 0
Dangerous builds = 0

next a
jump SELF loopa
variable    a loop 10000

pair_style  gran/hooke/history 1.e-4 NULL 1.e-5 NULL 0.0 1
pair_coeff  * *

timestep 1800

variable kanc equal 50

fix 1 all nve/limit 1e-8
fix fv all viscous 1e-5

fix zw all wall/gran hooke/history 2000 NULL 500.0 NULL 1.5 0 zplane  0.0   1e-04
fix zwa all walladh v_kanc zplane  0.0   1e-04


##############Ibm functions##############

fix k1 all kinetics 1 10 10 300 v_temp v_rth v_gvol v_gasTran v_ph v_diffT v_blThick
fix kgm all kinetics/growth/monod v_EPSdens v_etaHET 1
fix g1 all kinetics/diffusion v_shearRate v_tol pp pp nd kg bulk v_Q v_rvol v_Af
fix d1 all divide 1 v_EPSdens v_divMass 31231
fix vf1 all verify 1 bm1 3

run 1
WARNING: EPS is not defined in fix_kinetics/kinetics/monod (../fix_bio_kinetics_monod.cpp:242)
Memory usage per processor = 9.07941 Mbytes
Step CPU Atoms biomass c_myPres 
   80008            0        9 1.8155709e-16            0 
   80009 0.0069549084        9 1.996759e-16            0 
Loop time of 0.00700855 on 2 procs for 1 steps with 9 atoms

Performance: 22190031231.460 tau/day, 142.683 timesteps/s
57.1% CPU use with 2 MPI tasks x no OpenMP threads

MPI task timing breakdown:
Section |  min time  |  avg time  |  max time  |%varavg| %total
---------------------------------------------------------------
Pair    | 2.861e-06  | 2.861e-06  | 2.861e-06  |   0.0 |  0.04
Neigh   | 0.00036907 | 0.00038064 | 0.0003922  |   0.1 |  5.43
Comm    | 8.8215e-06 | 9.4175e-06 | 1.0014e-05 |   0.0 |  0.13
Output  | 2.0981e-05 | 6.1512e-05 | 0.00010204 |   0.5 |  0.88
Modify  | 0.0064921  | 0.0065122  | 0.0065322  |   0.0 | 92.92
Other   |            | 4.196e-05  |            |       |  0.60

Nlocal:    4.5 ave 6 max 3 min
Histogram: 1 0 0 0 0 0 0 0 0 1
Nghost:    1.5 ave 3 max 0 min
Histogram: 1 0 0 0 0 0 0 0 0 1
Neighs:    0 ave 0 max 0 min
Histogram: 2 0 0 0 0 0 0 0 0 0

Total # of neighbors = 0
Ave neighs/atom = 0
Neighbor list builds = 1
Dangerous builds = 0

##############DEM Run##############
unfix kgm
unfix g1
unfix d1
unfix vf1
unfix k1

timestep 1e-3
run 10000
Neighbor list info ...
  2 neighbor list requests
  update every 1 steps, delay 0 steps, check yes
  max neighbors/atom: 2000, page size: 100000
  master list distance cutoff = 1.83026e-06
  ghost atom cutoff = 1.83026e-06
  binsize = 9.15131e-07 -> bins = 22 22 656
Memory usage per processor = 9.07941 Mbytes
Step CPU Atoms biomass c_myPres 
   80009            0        9 1.996759e-16            0 
   81000 0.0064578056        9 1.996759e-16            0 
   82000  0.011842966        9 1.996759e-16            0 
   83000  0.017203808        9 1.996759e-16            0 
   84000  0.022819996        9 1.996759e-16            0 
   85000  0.030193806        9 1.996759e-16            0 
   86000  0.036085844        9 1.996759e-16            0 
   87000  0.042192936        9 1.996759e-16            0 
   88000  0.050272942        9 1.996759e-16            0 
   89000  0.057508945        9 1.996759e-16            0 
   90000  0.064806938        9 1.996759e-16            0 
   90009  0.065002918        9 1.996759e-16            0 
Loop time of 0.0650635 on 2 procs for 10000 steps with 9 atoms

Performance: 13279339.587 tau/day, 153696.060 timesteps/s
95.3% CPU use with 2 MPI tasks x no OpenMP threads

MPI task timing breakdown:
Section |  min time  |  avg time  |  max time  |%varavg| %total
---------------------------------------------------------------
Pair    | 0.0019753  | 0.002075   | 0.0021746  |   0.2 |  3.19
Neigh   | 0          | 0          | 0          |   0.0 |  0.00
Comm    | 0.010068   | 0.014163   | 0.018257   |   3.4 | 21.77
Output  | 0.0002811  | 0.00069392 | 0.0011067  |   1.6 |  1.07
Modify  | 0.017901   | 0.017995   | 0.018088   |   0.1 | 27.66
Other   |            | 0.03014    |            |       | 46.32

Nlocal:    4.5 ave 6 max 3 min
Histogram: 1 0 0 0 0 0 0 0 0 1
Nghost:    1.5 ave 3 max 0 min
Histogram: 1 0 0 0 0 0 0 0 0 1
Neighs:    0 ave 0 max 0 min
Histogram: 2 0 0 0 0 0 0 0 0 0

Total # of neighbors = 0
Ave neighs/atom = 0
Neighbor list builds = 0
Dangerous builds = 0

next a
jump SELF loopa
variable    a loop 10000

pair_style  gran/hooke/history 1.e-4 NULL 1.e-5 NULL 0.0 1
pair_coeff  * *

timestep 1800

variable kanc equal 50

fix 1 all nve/limit 1e-8
fix fv all viscous 1e-5

fix zw all wall/gran hooke/history 2000 NULL 500.0 NULL 1.5 0 zplane  0.0   1e-04
fix zwa all walladh v_kanc zplane  0.0   1e-04


##############Ibm functions##############

fix k1 all kinetics 1 10 10 300 v_temp v_rth v_gvol v_gasTran v_ph v_diffT v_blThick
fix kgm all kinetics/growth/monod v_EPSdens v_etaHET 1
fix g1 all kinetics/diffusion v_shearRate v_tol pp pp nd kg bulk v_Q v_rvol v_Af
fix d1 all divide 1 v_EPSdens v_divMass 31231
fix vf1 all verify 1 bm1 3

run 1
WARNING: EPS is not defined in fix_kinetics/kinetics/monod (../fix_bio_kinetics_monod.cpp:242)
Memory usage per processor = 9.07941 Mbytes
Step CPU Atoms biomass c_myPres 
   90009            0        9 1.996759e-16            0 
   90010 0.0073699951        9 2.1960292e-16            0 
Loop time of 0.00742257 on 2 procs for 1 steps with 9 atoms

Performance: 20952321788.485 tau/day, 134.724 timesteps/s
107.8% CPU use with 2 MPI tasks x no OpenMP threads

MPI task timing breakdown:
Section |  min time  |  avg time  |  max time  |%varavg| %total
---------------------------------------------------------------
Pair    | 3.0994e-06 | 3.0994e-06 | 3.0994e-06 |   0.0 |  0.04
Neigh   | 0.00036907 | 0.00037754 | 0.000386   |   0.0 |  5.09
Comm    | 1.0967e-05 | 1.0967e-05 | 1.0967e-05 |   0.0 |  0.15
Output  | 2.0027e-05 | 5.9962e-05 | 9.9897e-05 |   0.5 |  0.81
Modify  | 0.0069277  | 0.0069283  | 0.0069289  |   0.0 | 93.34
Other   |            | 4.268e-05  |            |       |  0.57

Nlocal:    4.5 ave 6 max 3 min
Histogram: 1 0 0 0 0 0 0 0 0 1
Nghost:    1.5 ave 3 max 0 min
Histogram: 1 0 0 0 0 0 0 0 0 1
Neighs:    0 ave 0 max 0 min
Histogram: 2 0 0 0 0 0 0 0 0 0

Total # of neighbors = 0
Ave neighs/atom = 0
Neighbor list builds = 1
Dangerous builds = 0

##############DEM Run##############
unfix kgm
unfix g1
unfix d1
unfix vf1
unfix k1

timestep 1e-3
run 10000
Neighbor list info ...
  2 neighbor list requests
  update every 1 steps, delay 0 steps, check yes
  max neighbors/atom: 2000, page size: 100000
  master list distance cutoff = 1.87312e-06
  ghost atom cutoff = 1.87312e-06
  binsize = 9.36559e-07 -> bins = 22 22 641
Memory usage per processor = 9.07941 Mbytes
Step CPU Atoms biomass c_myPres 
   90010            0        9 2.1960292e-16            0 
   91000  0.010010958        9 2.1960292e-16            0 
   92000  0.015575886        9 2.1960292e-16            0 
   93000   0.02112484        9 2.1960292e-16            0 
   94000  0.027099848        9 2.1960292e-16            0 
   95000  0.034767866        9 2.1960292e-16            0 
   96000  0.043144941        9 2.1960292e-16            0 
   97000  0.048732996        9 2.1960292e-16            0 
   98000   0.05459094        9 2.1960292e-16            0 
   99000  0.061837912        9 2.1960292e-16            0 
  100000  0.067775965        9 2.1960292e-16            0 
  100010  0.070276976        9 2.1960292e-16            0 
Loop time of 0.0703099 on 2 procs for 10000 steps with 9 atoms

Performance: 12288458.350 tau/day, 142227.527 timesteps/s
88.2% CPU use with 2 MPI tasks x no OpenMP threads

MPI task timing breakdown:
Section |  min time  |  avg time  |  max time  |%varavg| %total
---------------------------------------------------------------
Pair    | 0.0023897  | 0.0026171  | 0.0028446  |   0.4 |  3.72
Neigh   | 0          | 0          | 0          |   0.0 |  0.00
Comm    | 0.012388   | 0.016738   | 0.021089   |   3.4 | 23.81
Output  | 0.0002687  | 0.0018282  | 0.0033877  |   3.6 |  2.60
Modify  | 0.018061   | 0.018399   | 0.018736   |   0.2 | 26.17
Other   |            | 0.03073    |            |       | 43.70

Nlocal:    4.5 ave 6 max 3 min
Histogram: 1 0 0 0 0 0 0 0 0 1
Nghost:    1.5 ave 3 max 0 min
Histogram: 1 0 0 0 0 0 0 0 0 1
Neighs:    0 ave 0 max 0 min
Histogram: 2 0 0 0 0 0 0 0 0 0

Total # of neighbors = 0
Ave neighs/atom = 0
Neighbor list builds = 0
Dangerous builds = 0

next a
jump SELF loopa
variable    a loop 10000

pair_style  gran/hooke/history 1.e-4 NULL 1.e-5 NULL 0.0 1
pair_coeff  * *

timestep 1800

variable kanc equal 50

fix 1 all nve/limit 1e-8
fix fv all viscous 1e-5

fix zw all wall/gran hooke/history 2000 NULL 500.0 NULL 1.5 0 zplane  0.0   1e-04
fix zwa all walladh v_kanc zplane  0.0   1e-04


##############Ibm functions##############

fix k1 all kinetics 1 10 10 300 v_temp v_rth v_gvol v_gasTran v_ph v_diffT v_blThick
fix kgm all kinetics/growth/monod v_EPSdens v_etaHET 1
fix g1 all kinetics/diffusion v_shearRate v_tol pp pp nd kg bulk v_Q v_rvol v_Af
fix d1 all divide 1 v_EPSdens v_divMass 31231
fix vf1 all verify 1 bm1 3

run 1
WARNING: EPS is not defined in fix_kinetics/kinetics/monod (../fix_bio_kinetics_monod.cpp:242)
Memory usage per processor = 9.07941 Mbytes
Step CPU Atoms biomass c_myPres 
  100010            0        9 2.1960292e-16            0 
  100011  0.019720078        9 2.4151858e-16            0 
Loop time of 0.0197525 on 2 procs for 1 steps with 9 atoms

Performance: 7873432769.409 tau/day, 50.626 timesteps/s
60.8% CPU use with 2 MPI tasks x no OpenMP threads

MPI task timing breakdown:
Section |  min time  |  avg time  |  max time  |%varavg| %total
---------------------------------------------------------------
Pair    | 9.5367e-07 | 1.9073e-06 | 2.861e-06  |   0.1 |  0.01
Neigh   | 0.00031209 | 0.00031805 | 0.00032401 |   0.0 |  1.61
Comm    | 7.8678e-06 | 8.3447e-06 | 8.8215e-06 |   0.0 |  0.04
Output  | 1.7881e-05 | 3.8981e-05 | 6.0081e-05 |   0.3 |  0.20
Modify  | 0.019347   | 0.019361   | 0.019376   |   0.0 | 98.02
Other   |            | 2.372e-05  |            |       |  0.12

Nlocal:    4.5 ave 6 max 3 min
Histogram: 1 0 0 0 0 0 0 0 0 1
Nghost:    1.5 ave 3 max 0 min
Histogram: 1 0 0 0 0 0 0 0 0 1
Neighs:    0 ave 0 max 0 min
Histogram: 2 0 0 0 0 0 0 0 0 0

Total # of neighbors = 0
Ave neighs/atom = 0
Neighbor list builds = 1
Dangerous builds = 0

##############DEM Run##############
unfix kgm
unfix g1
unfix d1
unfix vf1
unfix k1

timestep 1e-3
run 10000
Neighbor list info ...
  2 neighbor list requests
  update every 1 steps, delay 0 steps, check yes
  max neighbors/atom: 2000, page size: 100000
  master list distance cutoff = 1.91736e-06
  ghost atom cutoff = 1.91736e-06
  binsize = 9.58678e-07 -> bins = 21 21 626
Memory usage per processor = 9.07941 Mbytes
Step CPU Atoms biomass c_myPres 
  100011            0        9 2.4151858e-16            0 
  101000 0.0053911209        9 2.4151858e-16            0 
  102000  0.015238047        9 2.4151858e-16            0 
  103000  0.020351171        9 2.4151858e-16            0 
  104000  0.025952101        9 2.4151858e-16            0 
  105000  0.034741163        9 2.4151858e-16            0 
  106000  0.039535046        9 2.4151858e-16            0 
  107000  0.048251152        9 2.4151858e-16            0 
  108000  0.055297136        9 2.4151858e-16            0 
  109000  0.061673164        9 2.4151858e-16            0 
  110000  0.067564011        9 2.4151858e-16            0 
  110011   0.06778717        9 2.4151858e-16            0 
Loop time of 0.0679021 on 2 procs for 10000 steps with 9 atoms

Performance: 12724203.678 tau/day, 147270.876 timesteps/s
79.5% CPU use with 2 MPI tasks x no OpenMP threads

MPI task timing breakdown:
Section |  min time  |  avg time  |  max time  |%varavg| %total
---------------------------------------------------------------
Pair    | 0.0023432  | 0.0024669  | 0.0025907  |   0.2 |  3.63
Neigh   | 0          | 0          | 0          |   0.0 |  0.00
Comm    | 0.0084367  | 0.012606   | 0.016776   |   3.7 | 18.57
Output  | 0.00032902 | 0.001299   | 0.002269   |   2.7 |  1.91
Modify  | 0.01509    | 0.017037   | 0.018984   |   1.5 | 25.09
Other   |            | 0.03449    |            |       | 50.80

Nlocal:    4.5 ave 6 max 3 min
Histogram: 1 0 0 0 0 0 0 0 0 1
Nghost:    1.5 ave 3 max 0 min
Histogram: 1 0 0 0 0 0 0 0 0 1
Neighs:    0 ave 0 max 0 min
Histogram: 2 0 0 0 0 0 0 0 0 0

Total # of neighbors = 0
Ave neighs/atom = 0
Neighbor list builds = 0
Dangerous builds = 0

next a
jump SELF loopa
variable    a loop 10000

pair_style  gran/hooke/history 1.e-4 NULL 1.e-5 NULL 0.0 1
pair_coeff  * *

timestep 1800

variable kanc equal 50

fix 1 all nve/limit 1e-8
fix fv all viscous 1e-5

fix zw all wall/gran hooke/history 2000 NULL 500.0 NULL 1.5 0 zplane  0.0   1e-04
fix zwa all walladh v_kanc zplane  0.0   1e-04


##############Ibm functions##############

fix k1 all kinetics 1 10 10 300 v_temp v_rth v_gvol v_gasTran v_ph v_diffT v_blThick
fix kgm all kinetics/growth/monod v_EPSdens v_etaHET 1
fix g1 all kinetics/diffusion v_shearRate v_tol pp pp nd kg bulk v_Q v_rvol v_Af
fix d1 all divide 1 v_EPSdens v_divMass 31231
fix vf1 all verify 1 bm1 3

run 1
WARNING: EPS is not defined in fix_kinetics/kinetics/monod (../fix_bio_kinetics_monod.cpp:242)
Memory usage per processor = 9.07941 Mbytes
Step CPU Atoms biomass c_myPres 
  110011            0        9 2.4151858e-16            0 
  110012  0.012923956        9 2.6562135e-16            0 
Loop time of 0.0129484 on 2 procs for 1 steps with 9 atoms

Performance: 12010756093.869 tau/day, 77.230 timesteps/s
92.7% CPU use with 2 MPI tasks x no OpenMP threads

MPI task timing breakdown:
Section |  min time  |  avg time  |  max time  |%varavg| %total
---------------------------------------------------------------
Pair    | 1.9073e-06 | 2.3842e-06 | 2.861e-06  |   0.0 |  0.02
Neigh   | 0.0003109  | 0.00038648 | 0.00046206 |   0.4 |  2.98
Comm    | 9.0599e-06 | 9.0599e-06 | 9.0599e-06 |   0.0 |  0.07
Output  | 9.8944e-05 | 0.00010097 | 0.000103   |   0.0 |  0.78
Modify  | 0.012331   | 0.012419   | 0.012507   |   0.1 | 95.91
Other   |            | 3.052e-05  |            |       |  0.24

Nlocal:    4.5 ave 6 max 3 min
Histogram: 1 0 0 0 0 0 0 0 0 1
Nghost:    1.5 ave 3 max 0 min
Histogram: 1 0 0 0 0 0 0 0 0 1
Neighs:    0 ave 0 max 0 min
Histogram: 2 0 0 0 0 0 0 0 0 0

Total # of neighbors = 0
Ave neighs/atom = 0
Neighbor list builds = 1
Dangerous builds = 0

##############DEM Run##############
unfix kgm
unfix g1
unfix d1
unfix vf1
unfix k1

timestep 1e-3
run 10000
Neighbor list info ...
  2 neighbor list requests
  update every 1 steps, delay 0 steps, check yes
  max neighbors/atom: 2000, page size: 100000
  master list distance cutoff = 1.96302e-06
  ghost atom cutoff = 1.96302e-06
  binsize = 9.81509e-07 -> bins = 21 21 612
Memory usage per processor = 9.07941 Mbytes
Step CPU Atoms biomass c_myPres 
  110012            0        9 2.6562135e-16            0 
  111000 0.0056540966        9 2.6562135e-16            0 
  112000  0.013919115        9 2.6562135e-16            0 
  113000  0.018512011        9 2.6562135e-16            0 
  114000  0.026163101        9 2.6562135e-16            0 
  115000  0.031070948        9 2.6562135e-16            0 
  116000  0.036570072        9 2.6562135e-16            0 
  117000  0.045089006        9 2.6562135e-16            0 
  118000  0.049996138        9 2.6562135e-16            0 
  119000  0.055124998        9 2.6562135e-16            0 
  120000  0.062186003        9 2.6562135e-16            0 
  120012  0.062327147        9 2.6562135e-16            0 
Loop time of 0.0623505 on 2 procs for 10000 steps with 9 atoms

Performance: 13857143.727 tau/day, 160383.608 timesteps/s
83.4% CPU use with 2 MPI tasks x no OpenMP threads

MPI task timing breakdown:
Section |  min time  |  avg time  |  max time  |%varavg| %total
---------------------------------------------------------------
Pair    | 0.0024014  | 0.0024892  | 0.0025771  |   0.2 |  3.99
Neigh   | 0          | 0          | 0          |   0.0 |  0.00
Comm    | 0.0099883  | 0.013838   | 0.017688   |   3.3 | 22.19
Output  | 0.00026417 | 0.00033677 | 0.00040936 |   0.4 |  0.54
Modify  | 0.013384   | 0.016351   | 0.019317   |   2.3 | 26.22
Other   |            | 0.02934    |            |       | 47.05

Nlocal:    4.5 ave 6 max 3 min
Histogram: 1 0 0 0 0 0 0 0 0 1
Nghost:    1.5 ave 3 max 0 min
Histogram: 1 0 0 0 0 0 0 0 0 1
Neighs:    0 ave 0 max 0 min
Histogram: 2 0 0 0 0 0 0 0 0 0

Total # of neighbors = 0
Ave neighs/atom = 0
Neighbor list builds = 0
Dangerous builds = 0

next a
jump SELF loopa
variable    a loop 10000

pair_style  gran/hooke/history 1.e-4 NULL 1.e-5 NULL 0.0 1
pair_coeff  * *

timestep 1800

variable kanc equal 50

fix 1 all nve/limit 1e-8
fix fv all viscous 1e-5

fix zw all wall/gran hooke/history 2000 NULL 500.0 NULL 1.5 0 zplane  0.0   1e-04
fix zwa all walladh v_kanc zplane  0.0   1e-04


##############Ibm functions##############

fix k1 all kinetics 1 10 10 300 v_temp v_rth v_gvol v_gasTran v_ph v_diffT v_blThick
fix kgm all kinetics/growth/monod v_EPSdens v_etaHET 1
fix g1 all kinetics/diffusion v_shearRate v_tol pp pp nd kg bulk v_Q v_rvol v_Af
fix d1 all divide 1 v_EPSdens v_divMass 31231
fix vf1 all verify 1 bm1 3

run 1
WARNING: EPS is not defined in fix_kinetics/kinetics/monod (../fix_bio_kinetics_monod.cpp:242)
Memory usage per processor = 9.07941 Mbytes
Step CPU Atoms biomass c_myPres 
  120012            0        9 2.6562135e-16            0 
  120013  0.013099909        9 2.921295e-16            0 
Loop time of 0.013158 on 2 procs for 1 steps with 9 atoms

Performance: 11819458004.476 tau/day, 76.000 timesteps/s
76.0% CPU use with 2 MPI tasks x no OpenMP threads

MPI task timing breakdown:
Section |  min time  |  avg time  |  max time  |%varavg| %total
---------------------------------------------------------------
Pair    | 1.9073e-06 | 1.9073e-06 | 1.9073e-06 |   0.0 |  0.01
Neigh   | 0.0002811  | 0.00028408 | 0.00028706 |   0.0 |  2.16
Comm    | 1.0967e-05 | 1.0967e-05 | 1.0967e-05 |   0.0 |  0.08
Output  | 5.1975e-05 | 5.4002e-05 | 5.6028e-05 |   0.0 |  0.41
Modify  | 0.012751   | 0.012781   | 0.01281    |   0.0 | 97.13
Other   |            | 2.635e-05  |            |       |  0.20

Nlocal:    4.5 ave 6 max 3 min
Histogram: 1 0 0 0 0 0 0 0 0 1
Nghost:    1.5 ave 3 max 0 min
Histogram: 1 0 0 0 0 0 0 0 0 1
Neighs:    0 ave 0 max 0 min
Histogram: 2 0 0 0 0 0 0 0 0 0

Total # of neighbors = 0
Ave neighs/atom = 0
Neighbor list builds = 1
Dangerous builds = 0

##############DEM Run##############
unfix kgm
unfix g1
unfix d1
unfix vf1
unfix k1

timestep 1e-3
run 10000
Neighbor list info ...
  2 neighbor list requests
  update every 1 steps, delay 0 steps, check yes
  max neighbors/atom: 2000, page size: 100000
  master list distance cutoff = 2.01015e-06
  ghost atom cutoff = 2.01015e-06
  binsize = 1.00508e-06 -> bins = 20 20 597
Memory usage per processor = 9.07941 Mbytes
Step CPU Atoms biomass c_myPres 
  120013            0        9 2.921295e-16            0 
  121000 0.0051472187        9 2.921295e-16            0 
  122000  0.009786129        9 2.921295e-16            0 
  123000  0.016085148        9 2.921295e-16            0 
  124000  0.021048069        9 2.921295e-16            0 
  125000  0.026144028        9 2.921295e-16            0 
  126000  0.033284187        9 2.921295e-16            0 
  127000  0.039308071        9 2.921295e-16            0 
  128000  0.044131041        9 2.921295e-16            0 
  129000  0.051113129        9 2.921295e-16            0 
  130000  0.057069063        9 2.921295e-16            0 
  130013  0.057301044        9 2.921295e-16            0 
Loop time of 0.0574135 on 2 procs for 10000 steps with 9 atoms

Performance: 15048736.267 tau/day, 174175.188 timesteps/s
90.6% CPU use with 2 MPI tasks x no OpenMP threads

MPI task timing breakdown:
Section |  min time  |  avg time  |  max time  |%varavg| %total
---------------------------------------------------------------
Pair    | 0.0023961  | 0.0025458  | 0.0026956  |   0.3 |  4.43
Neigh   | 0          | 0          | 0          |   0.0 |  0.00
Comm    | 0.0088212  | 0.011957   | 0.015092   |   2.9 | 20.83
Output  | 0.0002234  | 0.00074947 | 0.0012755  |   1.9 |  1.31
Modify  | 0.014286   | 0.015711   | 0.017137   |   1.1 | 27.37
Other   |            | 0.02645    |            |       | 46.07

Nlocal:    4.5 ave 6 max 3 min
Histogram: 1 0 0 0 0 0 0 0 0 1
Nghost:    1.5 ave 3 max 0 min
Histogram: 1 0 0 0 0 0 0 0 0 1
Neighs:    0 ave 0 max 0 min
Histogram: 2 0 0 0 0 0 0 0 0 0

Total # of neighbors = 0
Ave neighs/atom = 0
Neighbor list builds = 0
Dangerous builds = 0

next a
jump SELF loopa
variable    a loop 10000

pair_style  gran/hooke/history 1.e-4 NULL 1.e-5 NULL 0.0 1
pair_coeff  * *

timestep 1800

variable kanc equal 50

fix 1 all nve/limit 1e-8
fix fv all viscous 1e-5

fix zw all wall/gran hooke/history 2000 NULL 500.0 NULL 1.5 0 zplane  0.0   1e-04
fix zwa all walladh v_kanc zplane  0.0   1e-04


##############Ibm functions##############

fix k1 all kinetics 1 10 10 300 v_temp v_rth v_gvol v_gasTran v_ph v_diffT v_blThick
fix kgm all kinetics/growth/monod v_EPSdens v_etaHET 1
fix g1 all kinetics/diffusion v_shearRate v_tol pp pp nd kg bulk v_Q v_rvol v_Af
fix d1 all divide 1 v_EPSdens v_divMass 31231
fix vf1 all verify 1 bm1 3

run 1
WARNING: EPS is not defined in fix_kinetics/kinetics/monod (../fix_bio_kinetics_monod.cpp:242)
Memory usage per processor = 9.07941 Mbytes
Step CPU Atoms biomass c_myPres 
  130013            0        9 2.921295e-16            0 
  130014  0.021247149        9 3.2128308e-16            0 
Loop time of 0.0213846 on 2 procs for 1 steps with 9 atoms

Performance: 7272524297.524 tau/day, 46.763 timesteps/s
84.2% CPU use with 2 MPI tasks x no OpenMP threads

MPI task timing breakdown:
Section |  min time  |  avg time  |  max time  |%varavg| %total
---------------------------------------------------------------
Pair    | 3.0994e-06 | 9.5367e-06 | 1.5974e-05 |   0.2 |  0.04
Neigh   | 0.00023508 | 0.00025105 | 0.00026703 |   0.1 |  1.17
Comm    | 1.1921e-05 | 1.1921e-05 | 1.1921e-05 |   0.0 |  0.06
Output  | 2.6941e-05 | 7.093e-05  | 0.00011492 |   0.5 |  0.33
Modify  | 0.020964   | 0.020984   | 0.021004   |   0.0 | 98.13
Other   |            | 5.698e-05  |            |       |  0.27

Nlocal:    4.5 ave 6 max 3 min
Histogram: 1 0 0 0 0 0 0 0 0 1
Nghost:    1.5 ave 3 max 0 min
Histogram: 1 0 0 0 0 0 0 0 0 1
Neighs:    0 ave 0 max 0 min
Histogram: 2 0 0 0 0 0 0 0 0 0

Total # of neighbors = 0
Ave neighs/atom = 0
Neighbor list builds = 1
Dangerous builds = 0

##############DEM Run##############
unfix kgm
unfix g1
unfix d1
unfix vf1
unfix k1

timestep 1e-3
run 10000
Neighbor list info ...
  2 neighbor list requests
  update every 1 steps, delay 0 steps, check yes
  max neighbors/atom: 2000, page size: 100000
  master list distance cutoff = 2.0588e-06
  ghost atom cutoff = 2.0588e-06
  binsize = 1.0294e-06 -> bins = 20 20 583
Memory usage per processor = 9.07941 Mbytes
Step CPU Atoms biomass c_myPres 
  130014            0        9 3.2128308e-16            0 
  131000 0.0071439743        9 3.2128308e-16            0 
  132000   0.01544404        9 3.2128308e-16            0 
  133000  0.022116899        9 3.2128308e-16            0 
  134000   0.03232193        9 3.2128308e-16            0 
  135000  0.038975954        9 3.2128308e-16            0 
  136000  0.047779083        9 3.2128308e-16            0 
  137000  0.054245949        9 3.2128308e-16            0 
  138000  0.063165903        9 3.2128308e-16            0 
  139000  0.069840908        9 3.2128308e-16            0 
  140000  0.078264952        9 3.2128308e-16            0 
  140014  0.078464985        9 3.2128308e-16            0 
Loop time of 0.0784935 on 2 procs for 10000 steps with 9 atoms

Performance: 11007284.235 tau/day, 127399.123 timesteps/s
86.6% CPU use with 2 MPI tasks x no OpenMP threads

MPI task timing breakdown:
Section |  min time  |  avg time  |  max time  |%varavg| %total
---------------------------------------------------------------
Pair    | 0.0021672  | 0.0024384  | 0.0027096  |   0.5 |  3.11
Neigh   | 0          | 0          | 0          |   0.0 |  0.00
Comm    | 0.016474   | 0.020171   | 0.023868   |   2.6 | 25.70
Output  | 0.00032783 | 0.00054419 | 0.00076056 |   0.9 |  0.69
Modify  | 0.016064   | 0.018714   | 0.021364   |   1.9 | 23.84
Other   |            | 0.03663    |            |       | 46.66

Nlocal:    4.5 ave 6 max 3 min
Histogram: 1 0 0 0 0 0 0 0 0 1
Nghost:    1.5 ave 3 max 0 min
Histogram: 1 0 0 0 0 0 0 0 0 1
Neighs:    0 ave 0 max 0 min
Histogram: 2 0 0 0 0 0 0 0 0 0

Total # of neighbors = 0
Ave neighs/atom = 0
Neighbor list builds = 0
Dangerous builds = 0

next a
jump SELF loopa
variable    a loop 10000

pair_style  gran/hooke/history 1.e-4 NULL 1.e-5 NULL 0.0 1
pair_coeff  * *

timestep 1800

variable kanc equal 50

fix 1 all nve/limit 1e-8
fix fv all viscous 1e-5

fix zw all wall/gran hooke/history 2000 NULL 500.0 NULL 1.5 0 zplane  0.0   1e-04
fix zwa all walladh v_kanc zplane  0.0   1e-04


##############Ibm functions##############

fix k1 all kinetics 1 10 10 300 v_temp v_rth v_gvol v_gasTran v_ph v_diffT v_blThick
fix kgm all kinetics/growth/monod v_EPSdens v_etaHET 1
fix g1 all kinetics/diffusion v_shearRate v_tol pp pp nd kg bulk v_Q v_rvol v_Af
fix d1 all divide 1 v_EPSdens v_divMass 31231
fix vf1 all verify 1 bm1 3

run 1
WARNING: EPS is not defined in fix_kinetics/kinetics/monod (../fix_bio_kinetics_monod.cpp:242)
Memory usage per processor = 9.07941 Mbytes
Step CPU Atoms biomass c_myPres 
  140014            0        9 3.2128308e-16            0 
  140015  0.026874065        9 3.5334608e-16            0 
Loop time of 0.0271186 on 2 procs for 1 steps with 9 atoms

Performance: 5734817005.631 tau/day, 36.875 timesteps/s
73.8% CPU use with 2 MPI tasks x no OpenMP threads

MPI task timing breakdown:
Section |  min time  |  avg time  |  max time  |%varavg| %total
---------------------------------------------------------------
Pair    | 2.861e-06  | 4.8876e-06 | 6.9141e-06 |   0.1 |  0.02
Neigh   | 0.0002532  | 0.00025463 | 0.00025606 |   0.0 |  0.94
Comm    | 1.0014e-05 | 1.049e-05  | 1.0967e-05 |   0.0 |  0.04
Output  | 9.7036e-05 | 0.00019193 | 0.00028682 |   0.7 |  0.71
Modify  | 0.026531   | 0.026532   | 0.026532   |   0.0 | 97.84
Other   |            | 0.0001251  |            |       |  0.46

Nlocal:    4.5 ave 6 max 3 min
Histogram: 1 0 0 0 0 0 0 0 0 1
Nghost:    1.5 ave 3 max 0 min
Histogram: 1 0 0 0 0 0 0 0 0 1
Neighs:    0 ave 0 max 0 min
Histogram: 2 0 0 0 0 0 0 0 0 0

Total # of neighbors = 0
Ave neighs/atom = 0
Neighbor list builds = 1
Dangerous builds = 0

##############DEM Run##############
unfix kgm
unfix g1
unfix d1
unfix vf1
unfix k1

timestep 1e-3
run 10000
Neighbor list info ...
  2 neighbor list requests
  update every 1 steps, delay 0 steps, check yes
  max neighbors/atom: 2000, page size: 100000
  master list distance cutoff = 2.10902e-06
  ghost atom cutoff = 2.10902e-06
  binsize = 1.05451e-06 -> bins = 19 19 569
Memory usage per processor = 9.07941 Mbytes
Step CPU Atoms biomass c_myPres 
  140015            0        9 3.5334608e-16            0 
  141000 0.0087370872        9 3.5334608e-16            0 
  142000  0.015740156        9 3.5334608e-16            0 
  143000  0.024947166        9 3.5334608e-16            0 
  144000  0.030907154        9 3.5334608e-16            0 
  145000  0.036272049        9 3.5334608e-16            0 
  146000  0.042178154        9 3.5334608e-16            0 
  147000  0.047433138        9 3.5334608e-16            0 
  148000  0.055524111        9 3.5334608e-16            0 
  149000   0.06193614        9 3.5334608e-16            0 
  150000  0.067497015        9 3.5334608e-16            0 
  150015  0.067753077        9 3.5334608e-16            0 
Loop time of 0.0678687 on 2 procs for 10000 steps with 9 atoms

Performance: 12730461.586 tau/day, 147343.305 timesteps/s
88.4% CPU use with 2 MPI tasks x no OpenMP threads

MPI task timing breakdown:
Section |  min time  |  avg time  |  max time  |%varavg| %total
---------------------------------------------------------------
Pair    | 0.0020151  | 0.0021207  | 0.0022264  |   0.2 |  3.12
Neigh   | 0          | 0          | 0          |   0.0 |  0.00
Comm    | 0.010244   | 0.014669   | 0.019094   |   3.7 | 21.61
Output  | 0.00028944 | 0.00098753 | 0.0016856  |   2.2 |  1.46
Modify  | 0.016112   | 0.016352   | 0.016592   |   0.2 | 24.09
Other   |            | 0.03374    |            |       | 49.71

Nlocal:    4.5 ave 6 max 3 min
Histogram: 1 0 0 0 0 0 0 0 0 1
Nghost:    1.5 ave 3 max 0 min
Histogram: 1 0 0 0 0 0 0 0 0 1
Neighs:    0 ave 0 max 0 min
Histogram: 2 0 0 0 0 0 0 0 0 0

Total # of neighbors = 0
Ave neighs/atom = 0
Neighbor list builds = 0
Dangerous builds = 0

next a
jump SELF loopa
variable    a loop 10000

pair_style  gran/hooke/history 1.e-4 NULL 1.e-5 NULL 0.0 1
pair_coeff  * *

timestep 1800

variable kanc equal 50

fix 1 all nve/limit 1e-8
fix fv all viscous 1e-5

fix zw all wall/gran hooke/history 2000 NULL 500.0 NULL 1.5 0 zplane  0.0   1e-04
fix zwa all walladh v_kanc zplane  0.0   1e-04


##############Ibm functions##############

fix k1 all kinetics 1 10 10 300 v_temp v_rth v_gvol v_gasTran v_ph v_diffT v_blThick
fix kgm all kinetics/growth/monod v_EPSdens v_etaHET 1
fix g1 all kinetics/diffusion v_shearRate v_tol pp pp nd kg bulk v_Q v_rvol v_Af
fix d1 all divide 1 v_EPSdens v_divMass 31231
fix vf1 all verify 1 bm1 3

run 1
WARNING: EPS is not defined in fix_kinetics/kinetics/monod (../fix_bio_kinetics_monod.cpp:242)
Memory usage per processor = 9.07941 Mbytes
Step CPU Atoms biomass c_myPres 
  150015            0        9 3.5334608e-16            0 
  150016  0.027471066        9 3.8860886e-16            0 
Loop time of 0.0275571 on 2 procs for 1 steps with 9 atoms

Performance: 5643547563.915 tau/day, 36.288 timesteps/s
87.1% CPU use with 2 MPI tasks x no OpenMP threads

MPI task timing breakdown:
Section |  min time  |  avg time  |  max time  |%varavg| %total
---------------------------------------------------------------
Pair    | 2.1458e-06 | 2.5034e-06 | 2.861e-06  |   0.0 |  0.01
Neigh   | 0.00026798 | 0.00026846 | 0.00026894 |   0.0 |  0.97
Comm    | 1.1921e-05 | 1.1921e-05 | 1.1921e-05 |   0.0 |  0.04
Output  | 2.0027e-05 | 5.5432e-05 | 9.0837e-05 |   0.5 |  0.20
Modify  | 0.02717    | 0.027172   | 0.027173   |   0.0 | 98.60
Other   |            | 4.721e-05  |            |       |  0.17

Nlocal:    4.5 ave 6 max 3 min
Histogram: 1 0 0 0 0 0 0 0 0 1
Nghost:    1.5 ave 3 max 0 min
Histogram: 1 0 0 0 0 0 0 0 0 1
Neighs:    0 ave 0 max 0 min
Histogram: 2 0 0 0 0 0 0 0 0 0

Total # of neighbors = 0
Ave neighs/atom = 0
Neighbor list builds = 1
Dangerous builds = 0

##############DEM Run##############
unfix kgm
unfix g1
unfix d1
unfix vf1
unfix k1

timestep 1e-3
run 10000
Neighbor list info ...
  2 neighbor list requests
  update every 1 steps, delay 0 steps, check yes
  max neighbors/atom: 2000, page size: 100000
  master list distance cutoff = 2.16086e-06
  ghost atom cutoff = 2.16086e-06
  binsize = 1.08043e-06 -> bins = 19 19 556
Memory usage per processor = 9.07941 Mbytes
Step CPU Atoms biomass c_myPres 
  150016            0        9 3.8860886e-16            0 
  151000  0.010499954        9 3.8860886e-16            0 
  152000  0.020832062        9 3.8860886e-16            0 
  153000  0.032983065        9 3.8860886e-16            0 
  154000  0.045360088        9 3.8860886e-16            0 
  155000  0.050964117        9 3.8860886e-16            0 
  156000  0.057616949        9 3.8860886e-16            0 
  157000  0.064822912        9 3.8860886e-16            0 
  158000  0.070918083        9 3.8860886e-16            0 
  159000  0.077007055        9 3.8860886e-16            0 
  160000  0.083321095        9 3.8860886e-16            0 
  160016  0.083496094        9 3.8860886e-16            0 
Loop time of 0.0835351 on 2 procs for 10000 steps with 9 atoms

Performance: 10342960.703 tau/day, 119710.193 timesteps/s
79.0% CPU use with 2 MPI tasks x no OpenMP threads

MPI task timing breakdown:
Section |  min time  |  avg time  |  max time  |%varavg| %total
---------------------------------------------------------------
Pair    | 0.0021555  | 0.0022423  | 0.0023291  |   0.2 |  2.68
Neigh   | 0          | 0          | 0          |   0.0 |  0.00
Comm    | 0.012087   | 0.01939    | 0.026694   |   5.2 | 23.21
Output  | 0.00030851 | 0.00093925 | 0.00157    |   2.1 |  1.12
Modify  | 0.016794   | 0.017244   | 0.017693   |   0.3 | 20.64
Other   |            | 0.04372    |            |       | 52.34

Nlocal:    4.5 ave 6 max 3 min
Histogram: 1 0 0 0 0 0 0 0 0 1
Nghost:    1.5 ave 3 max 0 min
Histogram: 1 0 0 0 0 0 0 0 0 1
Neighs:    0 ave 0 max 0 min
Histogram: 2 0 0 0 0 0 0 0 0 0

Total # of neighbors = 0
Ave neighs/atom = 0
Neighbor list builds = 0
Dangerous builds = 0

next a
jump SELF loopa
variable    a loop 10000

pair_style  gran/hooke/history 1.e-4 NULL 1.e-5 NULL 0.0 1
pair_coeff  * *

timestep 1800

variable kanc equal 50

fix 1 all nve/limit 1e-8
fix fv all viscous 1e-5

fix zw all wall/gran hooke/history 2000 NULL 500.0 NULL 1.5 0 zplane  0.0   1e-04
fix zwa all walladh v_kanc zplane  0.0   1e-04


##############Ibm functions##############

fix k1 all kinetics 1 10 10 300 v_temp v_rth v_gvol v_gasTran v_ph v_diffT v_blThick
fix kgm all kinetics/growth/monod v_EPSdens v_etaHET 1
fix g1 all kinetics/diffusion v_shearRate v_tol pp pp nd kg bulk v_Q v_rvol v_Af
fix d1 all divide 1 v_EPSdens v_divMass 31231
fix vf1 all verify 1 bm1 3

run 1
WARNING: EPS is not defined in fix_kinetics/kinetics/monod (../fix_bio_kinetics_monod.cpp:242)
Memory usage per processor = 9.07941 Mbytes
Step CPU Atoms biomass c_myPres 
  160016            0        9 3.8860886e-16            0 
  160017  0.033293009        9 4.2739073e-16            0 
Loop time of 0.033042 on 2 procs for 1 steps with 9 atoms

Performance: 4706743427.137 tau/day, 30.265 timesteps/s
72.6% CPU use with 2 MPI tasks x no OpenMP threads

MPI task timing breakdown:
Section |  min time  |  avg time  |  max time  |%varavg| %total
---------------------------------------------------------------
Pair    | 2.861e-06  | 2.9802e-06 | 3.0994e-06 |   0.0 |  0.01
Neigh   | 0.00018406 | 0.00044799 | 0.00071192 |   1.2 |  1.36
Comm    | 2.6941e-05 | 2.6941e-05 | 2.6941e-05 |   0.0 |  0.08
Output  | 2.0027e-05 | 5.5552e-05 | 9.1076e-05 |   0.5 |  0.17
Modify  | 0.032372   | 0.032446   | 0.032521   |   0.0 | 98.20
Other   |            | 6.211e-05  |            |       |  0.19

Nlocal:    4.5 ave 6 max 3 min
Histogram: 1 0 0 0 0 0 0 0 0 1
Nghost:    1.5 ave 3 max 0 min
Histogram: 1 0 0 0 0 0 0 0 0 1
Neighs:    0 ave 0 max 0 min
Histogram: 2 0 0 0 0 0 0 0 0 0

Total # of neighbors = 0
Ave neighs/atom = 0
Neighbor list builds = 1
Dangerous builds = 0

##############DEM Run##############
unfix kgm
unfix g1
unfix d1
unfix vf1
unfix k1

timestep 1e-3
run 10000
Neighbor list info ...
  2 neighbor list requests
  update every 1 steps, delay 0 steps, check yes
  max neighbors/atom: 2000, page size: 100000
  master list distance cutoff = 2.21437e-06
  ghost atom cutoff = 2.21437e-06
  binsize = 1.10718e-06 -> bins = 19 19 542
Memory usage per processor = 9.07941 Mbytes
Step CPU Atoms biomass c_myPres 
  160017            0        9 4.2739073e-16            0 
  161000 0.0057380199        9 4.2739073e-16            0 
  162000  0.013529062        9 4.2739073e-16            0 
  163000  0.019539118        9 4.2739073e-16            0 
  164000  0.026319981        9 4.2739073e-16            0 
  165000  0.032454967        9 4.2739073e-16            0 
  166000  0.049734116        9 4.2739073e-16            0 
  167000  0.061043978        9 4.2739073e-16            0 
  168000  0.069087982        9 4.2739073e-16            0 
  169000  0.093667984        9 4.2739073e-16            0 
  170000  0.099647999        9 4.2739073e-16            0 
  170017    0.1066792        9 4.2739073e-16            0 
Loop time of 0.106877 on 2 procs for 10000 steps with 9 atoms

Performance: 8084088.616 tau/day, 93565.840 timesteps/s
67.4% CPU use with 2 MPI tasks x no OpenMP threads

MPI task timing breakdown:
Section |  min time  |  avg time  |  max time  |%varavg| %total
---------------------------------------------------------------
Pair    | 0.0021973  | 0.0027949  | 0.0033925  |   1.1 |  2.62
Neigh   | 0          | 0          | 0          |   0.0 |  0.00
Comm    | 0.015649   | 0.021238   | 0.026827   |   3.8 | 19.87
Output  | 0.00027776 | 0.004527   | 0.0087762  |   6.3 |  4.24
Modify  | 0.020665   | 0.023415   | 0.026166   |   1.8 | 21.91
Other   |            | 0.0549     |            |       | 51.37

Nlocal:    4.5 ave 6 max 3 min
Histogram: 1 0 0 0 0 0 0 0 0 1
Nghost:    1.5 ave 3 max 0 min
Histogram: 1 0 0 0 0 0 0 0 0 1
Neighs:    0 ave 0 max 0 min
Histogram: 2 0 0 0 0 0 0 0 0 0

Total # of neighbors = 0
Ave neighs/atom = 0
Neighbor list builds = 0
Dangerous builds = 0

next a
jump SELF loopa
variable    a loop 10000

pair_style  gran/hooke/history 1.e-4 NULL 1.e-5 NULL 0.0 1
pair_coeff  * *

timestep 1800

variable kanc equal 50

fix 1 all nve/limit 1e-8
fix fv all viscous 1e-5

fix zw all wall/gran hooke/history 2000 NULL 500.0 NULL 1.5 0 zplane  0.0   1e-04
fix zwa all walladh v_kanc zplane  0.0   1e-04


##############Ibm functions##############

fix k1 all kinetics 1 10 10 300 v_temp v_rth v_gvol v_gasTran v_ph v_diffT v_blThick
fix kgm all kinetics/growth/monod v_EPSdens v_etaHET 1
fix g1 all kinetics/diffusion v_shearRate v_tol pp pp nd kg bulk v_Q v_rvol v_Af
fix d1 all divide 1 v_EPSdens v_divMass 31231
fix vf1 all verify 1 bm1 3

run 1
WARNING: EPS is not defined in fix_kinetics/kinetics/monod (../fix_bio_kinetics_monod.cpp:242)
Memory usage per processor = 9.07941 Mbytes
Step CPU Atoms biomass c_myPres 
  170017            0        9 4.2739073e-16            0 
  170018  0.093492985        9 4.7004291e-16            0 
Loop time of 0.0935651 on 2 procs for 1 steps with 9 atoms

Performance: 1662158105.700 tau/day, 10.688 timesteps/s
47.0% CPU use with 2 MPI tasks x no OpenMP threads

MPI task timing breakdown:
Section |  min time  |  avg time  |  max time  |%varavg| %total
---------------------------------------------------------------
Pair    | 2.861e-06  | 2.9802e-06 | 3.0994e-06 |   0.0 |  0.00
Neigh   | 0.00016689 | 0.00031638 | 0.00046587 |   0.8 |  0.34
Comm    | 0.00014114 | 0.0001601  | 0.00017905 |   0.1 |  0.17
Output  | 2.3127e-05 | 5.6624e-05 | 9.0122e-05 |   0.4 |  0.06
Modify  | 0.092823   | 0.092975   | 0.093127   |   0.0 | 99.37
Other   |            | 5.388e-05  |            |       |  0.06

Nlocal:    4.5 ave 6 max 3 min
Histogram: 1 0 0 0 0 0 0 0 0 1
Nghost:    1.5 ave 3 max 0 min
Histogram: 1 0 0 0 0 0 0 0 0 1
Neighs:    0 ave 0 max 0 min
Histogram: 2 0 0 0 0 0 0 0 0 0

Total # of neighbors = 0
Ave neighs/atom = 0
Neighbor list builds = 1
Dangerous builds = 0

##############DEM Run##############
unfix kgm
unfix g1
unfix d1
unfix vf1
unfix k1

timestep 1e-3
run 10000
Neighbor list info ...
  2 neighbor list requests
  update every 1 steps, delay 0 steps, check yes
  max neighbors/atom: 2000, page size: 100000
  master list distance cutoff = 2.2696e-06
  ghost atom cutoff = 2.2696e-06
  binsize = 1.1348e-06 -> bins = 18 18 529
Memory usage per processor = 9.07941 Mbytes
Step CPU Atoms biomass c_myPres 
  170018            0        9 4.7004291e-16            0 
  171000  0.014397144        9 4.7004291e-16            0 
  172000  0.019809008        9 4.7004291e-16            0 
  173000  0.029627085        9 4.7004291e-16            0 
  174000  0.035310984        9 4.7004291e-16            0 
  175000  0.042868137        9 4.7004291e-16            0 
  176000  0.057621002        9 4.7004291e-16            0 
  177000  0.067167044        9 4.7004291e-16            0 
  178000   0.07519412        9 4.7004291e-16            0 
  179000  0.087323189        9 4.7004291e-16            0 
  180000  0.094505072        9 4.7004291e-16            0 
  180018  0.098098993        9 4.7004291e-16            0 
Loop time of 0.098139 on 2 procs for 10000 steps with 9 atoms

Performance: 8803835.180 tau/day, 101896.241 timesteps/s
75.4% CPU use with 2 MPI tasks x no OpenMP threads

MPI task timing breakdown:
Section |  min time  |  avg time  |  max time  |%varavg| %total
---------------------------------------------------------------
Pair    | 0.0024142  | 0.002831   | 0.0032477  |   0.8 |  2.88
Neigh   | 0          | 0          | 0          |   0.0 |  0.00
Comm    | 0.013469   | 0.022812   | 0.032155   |   6.2 | 23.24
Output  | 0.00033545 | 0.00066984 | 0.0010042  |   1.3 |  0.68
Modify  | 0.019224   | 0.02181    | 0.024397   |   1.8 | 22.22
Other   |            | 0.05002    |            |       | 50.96

Nlocal:    4.5 ave 6 max 3 min
Histogram: 1 0 0 0 0 0 0 0 0 1
Nghost:    1.5 ave 3 max 0 min
Histogram: 1 0 0 0 0 0 0 0 0 1
Neighs:    0 ave 0 max 0 min
Histogram: 2 0 0 0 0 0 0 0 0 0

Total # of neighbors = 0
Ave neighs/atom = 0
Neighbor list builds = 0
Dangerous builds = 0

next a
jump SELF loopa
variable    a loop 10000

pair_style  gran/hooke/history 1.e-4 NULL 1.e-5 NULL 0.0 1
pair_coeff  * *

timestep 1800

variable kanc equal 50

fix 1 all nve/limit 1e-8
fix fv all viscous 1e-5

fix zw all wall/gran hooke/history 2000 NULL 500.0 NULL 1.5 0 zplane  0.0   1e-04
fix zwa all walladh v_kanc zplane  0.0   1e-04


##############Ibm functions##############

fix k1 all kinetics 1 10 10 300 v_temp v_rth v_gvol v_gasTran v_ph v_diffT v_blThick
fix kgm all kinetics/growth/monod v_EPSdens v_etaHET 1
fix g1 all kinetics/diffusion v_shearRate v_tol pp pp nd kg bulk v_Q v_rvol v_Af
fix d1 all divide 1 v_EPSdens v_divMass 31231
fix vf1 all verify 1 bm1 3

run 1
WARNING: EPS is not defined in fix_kinetics/kinetics/monod (../fix_bio_kinetics_monod.cpp:242)
Memory usage per processor = 9.07941 Mbytes
Step CPU Atoms biomass c_myPres 
  180018            0        9 4.7004291e-16            0 
  180019  0.035520077        9 5.1695161e-16            0 
Loop time of 0.0357585 on 2 procs for 1 steps with 9 atoms

Performance: 4349176288.355 tau/day, 27.965 timesteps/s
95.1% CPU use with 2 MPI tasks x no OpenMP threads

MPI task timing breakdown:
Section |  min time  |  avg time  |  max time  |%varavg| %total
---------------------------------------------------------------
Pair    | 1.9073e-06 | 1.9073e-06 | 1.9073e-06 |   0.0 |  0.01
Neigh   | 0.00019097 | 0.00019157 | 0.00019217 |   0.0 |  0.54
Comm    | 1.1921e-05 | 1.1921e-05 | 1.1921e-05 |   0.0 |  0.03
Output  | 3.6955e-05 | 7.7963e-05 | 0.00011897 |   0.5 |  0.22
Modify  | 0.035204   | 0.035456   | 0.035708   |   0.1 | 99.15
Other   |            | 1.895e-05  |            |       |  0.05

Nlocal:    4.5 ave 6 max 3 min
Histogram: 1 0 0 0 0 0 0 0 0 1
Nghost:    1.5 ave 3 max 0 min
Histogram: 1 0 0 0 0 0 0 0 0 1
Neighs:    0 ave 0 max 0 min
Histogram: 2 0 0 0 0 0 0 0 0 0

Total # of neighbors = 0
Ave neighs/atom = 0
Neighbor list builds = 1
Dangerous builds = 0

##############DEM Run##############
unfix kgm
unfix g1
unfix d1
unfix vf1
unfix k1

timestep 1e-3
run 10000
Neighbor list info ...
  2 neighbor list requests
  update every 1 steps, delay 0 steps, check yes
  max neighbors/atom: 2000, page size: 100000
  master list distance cutoff = 2.32661e-06
  ghost atom cutoff = 2.32661e-06
  binsize = 1.1633e-06 -> bins = 18 18 516
Memory usage per processor = 9.07941 Mbytes
Step CPU Atoms biomass c_myPres 
  180019            0        9 5.1695161e-16            0 
  181000 0.0070800781        9 5.1695161e-16            0 
  182000  0.013063192        9 5.1695161e-16            0 
  183000  0.018834114        9 5.1695161e-16            0 
  184000  0.026319027        9 5.1695161e-16            0 
  185000  0.032500029        9 5.1695161e-16            0 
  186000   0.03828907        9 5.1695161e-16            0 
  187000  0.044346094        9 5.1695161e-16            0 
  188000  0.050090075        9 5.1695161e-16            0 
  189000  0.056114197        9 5.1695161e-16            0 
  190000  0.063855171        9 5.1695161e-16            0 
  190019   0.06476903        9 5.1695161e-16            0 
Loop time of 0.0648422 on 2 procs for 10000 steps with 9 atoms

Performance: 13324650.900 tau/day, 154220.497 timesteps/s
89.4% CPU use with 2 MPI tasks x no OpenMP threads

MPI task timing breakdown:
Section |  min time  |  avg time  |  max time  |%varavg| %total
---------------------------------------------------------------
Pair    | 0.0019956  | 0.0020856  | 0.0021756  |   0.2 |  3.22
Neigh   | 0          | 0          | 0          |   0.0 |  0.00
Comm    | 0.010188   | 0.014156   | 0.018125   |   3.3 | 21.83
Output  | 0.00034857 | 0.00053525 | 0.00072193 |   0.8 |  0.83
Modify  | 0.016777   | 0.01772    | 0.018662   |   0.7 | 27.33
Other   |            | 0.03035    |            |       | 46.80

Nlocal:    4.5 ave 6 max 3 min
Histogram: 1 0 0 0 0 0 0 0 0 1
Nghost:    1.5 ave 3 max 0 min
Histogram: 1 0 0 0 0 0 0 0 0 1
Neighs:    0 ave 0 max 0 min
Histogram: 2 0 0 0 0 0 0 0 0 0

Total # of neighbors = 0
Ave neighs/atom = 0
Neighbor list builds = 0
Dangerous builds = 0

next a
jump SELF loopa
variable    a loop 10000

pair_style  gran/hooke/history 1.e-4 NULL 1.e-5 NULL 0.0 1
pair_coeff  * *

timestep 1800

variable kanc equal 50

fix 1 all nve/limit 1e-8
fix fv all viscous 1e-5

[...]
Memory usage per processor = 9.20542 Mbytes
Step CPU Atoms biomass c_myPres 
  650065            0      141 4.1086154e-14 0.0058208804 
  650066    16.827463      148 4.5183759e-14   0.02263225 
Loop time of 16.8276 on 2 procs for 1 steps with 148 atoms

Performance: 9241981.635 tau/day, 0.059 timesteps/s
88.3% CPU use with 2 MPI tasks x no OpenMP threads

MPI task timing breakdown:
Section |  min time  |  avg time  |  max time  |%varavg| %total
---------------------------------------------------------------
Pair    | 5.1975e-05 | 5.3525e-05 | 5.5075e-05 |   0.0 |  0.00
Neigh   | 0.00013804 | 0.00015903 | 0.00018001 |   0.2 |  0.00
Comm    | 4.1962e-05 | 4.1962e-05 | 4.1962e-05 |   0.0 |  0.00
Output  | 2.2888e-05 | 6.2943e-05 | 0.000103   |   0.5 |  0.00
Modify  | 16.827     | 16.827     | 16.827     |   0.0 |100.00
Other   |            | 5.054e-05  |            |       |  0.00

Nlocal:    74 ave 77 max 71 min
Histogram: 1 0 0 0 0 0 0 0 0 1
Nghost:    109.5 ave 114 max 105 min
Histogram: 1 0 0 0 0 0 0 0 0 1
Neighs:    289 ave 302 max 276 min
Histogram: 1 0 0 0 0 0 0 0 0 1

Total # of neighbors = 578
Ave neighs/atom = 3.90541
Neighbor list builds = 1
Dangerous builds = 0

##############DEM Run##############
unfix kgm
unfix g1
unfix d1
unfix vf1
unfix k1

timestep 1e-3
run 10000
Neighbor list info ...
  2 neighbor list requests
  update every 1 steps, delay 0 steps, check yes
  max neighbors/atom: 2000, page size: 100000
  master list distance cutoff = 4.09709e-06
  ghost atom cutoff = 4.09709e-06
  binsize = 2.04855e-06 -> bins = 10 10 293
Memory usage per processor = 9.20544 Mbytes
Step CPU Atoms biomass c_myPres 
  650066            0      148 4.5183759e-14  0.024102677 
  651000  0.065738916      148 4.5183759e-14  0.013917812 
  652000   0.13523102      148 4.5183759e-14   0.01162734 
  653000   0.20242786      148 4.5183759e-14  0.010396109 
  654000   0.26796293      148 4.5183759e-14 0.0097212934 
  655000   0.33073688      148 4.5183759e-14 0.0093621079 
  656000   0.39772892      148 4.5183759e-14 0.0091769391 
  657000     0.459306      148 4.5183759e-14 0.0089465823 
  658000   0.53064585      148 4.5183759e-14 0.0086489475 
  659000   0.60401106      148 4.5183759e-14 0.0084585592 
  660000   0.67318702      148 4.5183759e-14 0.0083032641 
  660066   0.67756701      148 4.5183759e-14 0.0082979307 
Loop time of 0.677593 on 2 procs for 10000 steps with 148 atoms

Performance: 1275100.837 tau/day, 14758.112 timesteps/s
93.6% CPU use with 2 MPI tasks x no OpenMP threads

MPI task timing breakdown:
Section |  min time  |  avg time  |  max time  |%varavg| %total
---------------------------------------------------------------
Pair    | 0.35144    | 0.35538    | 0.35932    |   0.7 | 52.45
Neigh   | 0.0025208  | 0.0025542  | 0.0025876  |   0.1 |  0.38
Comm    | 0.11487    | 0.117      | 0.11913    |   0.6 | 17.27
Output  | 0.00031757 | 0.00064933 | 0.00098109 |   1.3 |  0.10
Modify  | 0.10029    | 0.10352    | 0.10675    |   1.0 | 15.28
Other   |            | 0.09849    |            |       | 14.54

Nlocal:    74 ave 77 max 71 min
Histogram: 1 0 0 0 0 0 0 0 0 1
Nghost:    113 ave 116 max 110 min
Histogram: 1 0 0 0 0 0 0 0 0 1
Neighs:    315.5 ave 326 max 305 min
Histogram: 1 0 0 0 0 0 0 0 0 1

Total # of neighbors = 631
Ave neighs/atom = 4.26351
Neighbor list builds = 15
Dangerous builds = 0

next a
jump SELF loopa
variable    a loop 10000

pair_style  gran/hooke/history 1.e-4 NULL 1.e-5 NULL 0.0 1
pair_coeff  * *

timestep 1800

variable kanc equal 50

fix 1 all nve/limit 1e-8
fix fv all viscous 1e-5

fix zw all wall/gran hooke/history 2000 NULL 500.0 NULL 1.5 0 zplane  0.0   1e-04
fix zwa all walladh v_kanc zplane  0.0   1e-04


##############Ibm functions##############

fix k1 all kinetics 1 10 10 300 v_temp v_rth v_gvol v_gasTran v_ph v_diffT v_blThick
fix kgm all kinetics/growth/monod v_EPSdens v_etaHET 1
fix g1 all kinetics/diffusion v_shearRate v_tol pp pp nd kg bulk v_Q v_rvol v_Af
fix d1 all divide 1 v_EPSdens v_divMass 31231
fix vf1 all verify 1 bm1 3

run 1
WARNING: EPS is not defined in fix_kinetics/kinetics/monod (../fix_bio_kinetics_monod.cpp:242)
Memory usage per processor = 9.20547 Mbytes
Step CPU Atoms biomass c_myPres 
  660066            0      148 4.5183759e-14 0.0082979307 
  660067    18.234624      159 4.968935e-14  0.030258424 
Loop time of 18.2347 on 2 procs for 1 steps with 159 atoms

Performance: 8528816.211 tau/day, 0.055 timesteps/s
89.0% CPU use with 2 MPI tasks x no OpenMP threads

MPI task timing breakdown:
Section |  min time  |  avg time  |  max time  |%varavg| %total
---------------------------------------------------------------
Pair    | 9.6798e-05 | 9.7394e-05 | 9.799e-05  |   0.0 |  0.00
Neigh   | 0.0001719  | 0.0001719  | 0.0001719  |   0.0 |  0.00
Comm    | 2.5988e-05 | 2.6464e-05 | 2.6941e-05 |   0.0 |  0.00
Output  | 2.8849e-05 | 3.1948e-05 | 3.5048e-05 |   0.1 |  0.00
Modify  | 18.234     | 18.234     | 18.234     |   0.0 |100.00
Other   |            | 1.562e-05  |            |       |  0.00

Nlocal:    79.5 ave 82 max 77 min
Histogram: 1 0 0 0 0 0 0 0 0 1
Nghost:    118 ave 119 max 117 min
Histogram: 1 0 0 0 0 0 0 0 0 1
Neighs:    323 ave 336 max 310 min
Histogram: 1 0 0 0 0 0 0 0 0 1

Total # of neighbors = 646
Ave neighs/atom = 4.06289
Neighbor list builds = 1
Dangerous builds = 0

##############DEM Run##############
unfix kgm
unfix g1
unfix d1
unfix vf1
unfix k1

timestep 1e-3
run 10000
Neighbor list info ...
  2 neighbor list requests
  update every 1 steps, delay 0 steps, check yes
  max neighbors/atom: 2000, page size: 100000
  master list distance cutoff = 4.09887e-06
  ghost atom cutoff = 4.09887e-06
  binsize = 2.04944e-06 -> bins = 10 10 293
Memory usage per processor = 9.20554 Mbytes
Step CPU Atoms biomass c_myPres 
  660067            0      159 4.968935e-14  0.031911355 
  661000  0.085600853      159 4.968935e-14  0.018084281 
  662000   0.22068191      159 4.968935e-14  0.014860266 
  663000    0.3664999      159 4.968935e-14  0.013202318 
  664000   0.52326989      159 4.968935e-14  0.012006922 
  665000    0.6729269      159 4.968935e-14  0.011132292 
  666000   0.81781793      159 4.968935e-14  0.010654865 
  667000   0.97882795      159 4.968935e-14  0.010310209 
  668000    1.1347179      159 4.968935e-14  0.010134884 
  669000    1.3647058      159 4.968935e-14  0.010027293 
  670000    1.6296618      159 4.968935e-14 0.0099542276 
  670067    1.6442039      159 4.968935e-14 0.0099848822 
Loop time of 1.64424 on 2 procs for 10000 steps with 159 atoms

Performance: 525470.765 tau/day, 6081.838 timesteps/s
81.7% CPU use with 2 MPI tasks x no OpenMP threads

MPI task timing breakdown:
Section |  min time  |  avg time  |  max time  |%varavg| %total
---------------------------------------------------------------
Pair    | 0.87324    | 0.87843    | 0.88362    |   0.6 | 53.42
Neigh   | 0.0030522  | 0.0031869  | 0.0033216  |   0.2 |  0.19
Comm    | 0.26269    | 0.26351    | 0.26432    |   0.2 | 16.03
Output  | 0.00057817 | 0.00070083 | 0.0008235  |   0.5 |  0.04
Modify  | 0.20499    | 0.21031    | 0.21562    |   1.2 | 12.79
Other   |            | 0.2881     |            |       | 17.52

Nlocal:    79.5 ave 80 max 79 min
Histogram: 1 0 0 0 0 0 0 0 0 1
Nghost:    116 ave 118 max 114 min
Histogram: 1 0 0 0 0 0 0 0 0 1
Neighs:    363 ave 365 max 361 min
Histogram: 1 0 0 0 0 0 0 0 0 1

Total # of neighbors = 726
Ave neighs/atom = 4.56604
Neighbor list builds = 13
Dangerous builds = 0

next a
jump SELF loopa
variable    a loop 10000

pair_style  gran/hooke/history 1.e-4 NULL 1.e-5 NULL 0.0 1
pair_coeff  * *

timestep 1800

variable kanc equal 50

fix 1 all nve/limit 1e-8
fix fv all viscous 1e-5

fix zw all wall/gran hooke/history 2000 NULL 500.0 NULL 1.5 0 zplane  0.0   1e-04
fix zwa all walladh v_kanc zplane  0.0   1e-04


##############Ibm functions##############

fix k1 all kinetics 1 10 10 300 v_temp v_rth v_gvol v_gasTran v_ph v_diffT v_blThick
fix kgm all kinetics/growth/monod v_EPSdens v_etaHET 1
fix g1 all kinetics/diffusion v_shearRate v_tol pp pp nd kg bulk v_Q v_rvol v_Af
fix d1 all divide 1 v_EPSdens v_divMass 31231
fix vf1 all verify 1 bm1 3

run 1
WARNING: EPS is not defined in fix_kinetics/kinetics/monod (../fix_bio_kinetics_monod.cpp:242)
Memory usage per processor = 9.20554 Mbytes
Step CPU Atoms biomass c_myPres 
  670067            0      159 4.968935e-14 0.0099848822 
  670068    25.107961      182 5.4643329e-14    0.0394856 
Loop time of 25.108 on 2 procs for 1 steps with 182 atoms

Performance: 6194045.906 tau/day, 0.040 timesteps/s
85.7% CPU use with 2 MPI tasks x no OpenMP threads

MPI task timing breakdown:
Section |  min time  |  avg time  |  max time  |%varavg| %total
---------------------------------------------------------------
Pair    | 6.6996e-05 | 6.9976e-05 | 7.2956e-05 |   0.0 |  0.00
Neigh   | 0.00033617 | 0.00034213 | 0.00034809 |   0.0 |  0.00
Comm    | 4.6968e-05 | 5.4479e-05 | 6.1989e-05 |   0.1 |  0.00
Output  | 2.408e-05  | 2.6584e-05 | 2.9087e-05 |   0.0 |  0.00
Modify  | 25.107     | 25.107     | 25.107     |   0.0 |100.00
Other   |            | 1.609e-05  |            |       |  0.00

Nlocal:    91 ave 93 max 89 min
Histogram: 1 0 0 0 0 0 0 0 0 1
Nghost:    132 ave 137 max 127 min
Histogram: 1 0 0 0 0 0 0 0 0 1
Neighs:    383 ave 385 max 381 min
Histogram: 1 0 0 0 0 0 0 0 0 1

Total # of neighbors = 766
Ave neighs/atom = 4.20879
Neighbor list builds = 1
Dangerous builds = 0

##############DEM Run##############
unfix kgm
unfix g1
unfix d1
unfix vf1
unfix k1

timestep 1e-3
run 10000
Neighbor list info ...
  2 neighbor list requests
  update every 1 steps, delay 0 steps, check yes
  max neighbors/atom: 2000, page size: 100000
  master list distance cutoff = 4.0687e-06
  ghost atom cutoff = 4.0687e-06
  binsize = 2.03435e-06 -> bins = 10 10 295
Memory usage per processor = 9.20568 Mbytes
Step CPU Atoms biomass c_myPres 
  670068            0      182 5.4643329e-14  0.041286067 
  671000  0.094602108      182 5.4643329e-14  0.024339554 
  672000   0.19801998      182 5.4643329e-14  0.018527252 
  673000   0.30924702      182 5.4643329e-14  0.015536208 
  674000   0.40688491      182 5.4643329e-14  0.013856711 
  675000     0.617167      182 5.4643329e-14  0.012710742 
  676000   0.71634007      182 5.4643329e-14  0.011958841 
  677000   0.81568599      182 5.4643329e-14  0.011398614 
  678000   0.91362906      182 5.4643329e-14  0.011012395 
  679000     1.014539      182 5.4643329e-14  0.010623567 
  680000    1.1107311      182 5.4643329e-14  0.010421773 
  680068    1.1171131      182 5.4643329e-14  0.010408323 
Loop time of 1.11714 on 2 procs for 10000 steps with 182 atoms

Performance: 773402.154 tau/day, 8951.414 timesteps/s
88.8% CPU use with 2 MPI tasks x no OpenMP threads

MPI task timing breakdown:
Section |  min time  |  avg time  |  max time  |%varavg| %total
---------------------------------------------------------------
Pair    | 0.62379    | 0.63803    | 0.65226    |   1.8 | 57.11
Neigh   | 0.004647   | 0.0051495  | 0.005652   |   0.7 |  0.46
Comm    | 0.18686    | 0.19109    | 0.19533    |   1.0 | 17.11
Output  | 0.00039625 | 0.00048447 | 0.00057268 |   0.4 |  0.04
Modify  | 0.14161    | 0.14176    | 0.14191    |   0.0 | 12.69
Other   |            | 0.1406     |            |       | 12.59

Nlocal:    91 ave 95 max 87 min
Histogram: 1 0 0 0 0 0 0 0 0 1
Nghost:    130 ave 136 max 124 min
Histogram: 1 0 0 0 0 0 0 0 0 1
Neighs:    423.5 ave 435 max 412 min
Histogram: 1 0 0 0 0 0 0 0 0 1

Total # of neighbors = 847
Ave neighs/atom = 4.65385
Neighbor list builds = 21
Dangerous builds = 0

next a
jump SELF loopa
variable    a loop 10000

pair_style  gran/hooke/history 1.e-4 NULL 1.e-5 NULL 0.0 1
pair_coeff  * *

timestep 1800

variable kanc equal 50

fix 1 all nve/limit 1e-8
fix fv all viscous 1e-5

fix zw all wall/gran hooke/history 2000 NULL 500.0 NULL 1.5 0 zplane  0.0   1e-04
fix zwa all walladh v_kanc zplane  0.0   1e-04


##############Ibm functions##############

fix k1 all kinetics 1 10 10 300 v_temp v_rth v_gvol v_gasTran v_ph v_diffT v_blThick
fix kgm all kinetics/growth/monod v_EPSdens v_etaHET 1
fix g1 all kinetics/diffusion v_shearRate v_tol pp pp nd kg bulk v_Q v_rvol v_Af
fix d1 all divide 1 v_EPSdens v_divMass 31231
fix vf1 all verify 1 bm1 3

run 1
WARNING: EPS is not defined in fix_kinetics/kinetics/monod (../fix_bio_kinetics_monod.cpp:242)
Memory usage per processor = 9.20568 Mbytes
Step CPU Atoms biomass c_myPres 
  680068            0      182 5.4643329e-14  0.010408323 
  680069    28.132465      197 6.0090067e-14  0.038380774 
Loop time of 28.1326 on 2 procs for 1 steps with 197 atoms

Performance: 5528114.134 tau/day, 0.036 timesteps/s
90.9% CPU use with 2 MPI tasks x no OpenMP threads

MPI task timing breakdown:
Section |  min time  |  avg time  |  max time  |%varavg| %total
---------------------------------------------------------------
Pair    | 7.2956e-05 | 9.1553e-05 | 0.00011015 |   0.2 |  0.00
Neigh   | 0.00021791 | 0.00022495 | 0.00023198 |   0.0 |  0.00
Comm    | 3.2902e-05 | 4.3988e-05 | 5.5075e-05 |   0.2 |  0.00
Output  | 2.5034e-05 | 6.2585e-05 | 0.00010014 |   0.5 |  0.00
Modify  | 28.132     | 28.132     | 28.132     |   0.0 |100.00
Other   |            | 5.054e-05  |            |       |  0.00

Nlocal:    98.5 ave 102 max 95 min
Histogram: 1 0 0 0 0 0 0 0 0 1
Nghost:    146.5 ave 151 max 142 min
Histogram: 1 0 0 0 0 0 0 0 0 1
Neighs:    428.5 ave 444 max 413 min
Histogram: 1 0 0 0 0 0 0 0 0 1

Total # of neighbors = 857
Ave neighs/atom = 4.35025
Neighbor list builds = 1
Dangerous builds = 0

##############DEM Run##############
unfix kgm
unfix g1
unfix d1
unfix vf1
unfix k1

timestep 1e-3
run 10000
Neighbor list info ...
  2 neighbor list requests
  update every 1 steps, delay 0 steps, check yes
  max neighbors/atom: 2000, page size: 100000
  master list distance cutoff = 4.09244e-06
  ghost atom cutoff = 4.09244e-06
  binsize = 2.04622e-06 -> bins = 10 10 294
Memory usage per processor = 9.20578 Mbytes
Step CPU Atoms biomass c_myPres 
  680069            0      197 6.0090067e-14  0.040599625 
  681000  0.083879948      197 6.0090067e-14  0.026945491 
  682000   0.25239611      197 6.0090067e-14  0.022555686 
  683000   0.42310691      197 6.0090067e-14  0.020705609 
  684000   0.51819897      197 6.0090067e-14  0.019726533 
  685000    0.6114471      197 6.0090067e-14  0.019198581 
  686000   0.70061207      197 6.0090067e-14  0.018849024 
  687000   0.79180193      197 6.0090067e-14  0.018455303 
  688000   0.88310909      197 6.0090067e-14  0.018019855 
  689000   0.97533393      197 6.0090067e-14  0.017646254 
  690000    1.1222351      197 6.0090067e-14  0.017411357 
  690069     1.129513      197 6.0090067e-14  0.017448754 
Loop time of 1.12955 on 2 procs for 10000 steps with 197 atoms

Performance: 764908.491 tau/day, 8853.108 timesteps/s
86.4% CPU use with 2 MPI tasks x no OpenMP threads

MPI task timing breakdown:
Section |  min time  |  avg time  |  max time  |%varavg| %total
---------------------------------------------------------------
Pair    | 0.50085    | 0.5642     | 0.62754    |   8.4 | 49.95
Neigh   | 0.0040002  | 0.004234   | 0.0044677  |   0.4 |  0.37
Comm    | 0.21783    | 0.2218     | 0.22576    |   0.8 | 19.64
Output  | 0.00032449 | 0.00052571 | 0.00072694 |   0.9 |  0.05
Modify  | 0.12687    | 0.13707    | 0.14727    |   2.8 | 12.14
Other   |            | 0.2017     |            |       | 17.86

Nlocal:    98.5 ave 100 max 97 min
Histogram: 1 0 0 0 0 0 0 0 0 1
Nghost:    150 ave 152 max 148 min
Histogram: 1 0 0 0 0 0 0 0 0 1
Neighs:    472 ave 478 max 466 min
Histogram: 1 0 0 0 0 0 0 0 0 1

Total # of neighbors = 944
Ave neighs/atom = 4.79188
Neighbor list builds = 18
Dangerous builds = 0

next a
jump SELF loopa
variable    a loop 10000

pair_style  gran/hooke/history 1.e-4 NULL 1.e-5 NULL 0.0 1
pair_coeff  * *

timestep 1800

variable kanc equal 50

fix 1 all nve/limit 1e-8
fix fv all viscous 1e-5

fix zw all wall/gran hooke/history 2000 NULL 500.0 NULL 1.5 0 zplane  0.0   1e-04
fix zwa all walladh v_kanc zplane  0.0   1e-04


##############Ibm functions##############

fix k1 all kinetics 1 10 10 300 v_temp v_rth v_gvol v_gasTran v_ph v_diffT v_blThick
fix kgm all kinetics/growth/monod v_EPSdens v_etaHET 1
fix g1 all kinetics/diffusion v_shearRate v_tol pp pp nd kg bulk v_Q v_rvol v_Af
fix d1 all divide 1 v_EPSdens v_divMass 31231
fix vf1 all verify 1 bm1 3

run 1
WARNING: EPS is not defined in fix_kinetics/kinetics/monod (../fix_bio_kinetics_monod.cpp:242)
Memory usage per processor = 9.20578 Mbytes
Step CPU Atoms biomass c_myPres 
  690069            0      197 6.0090067e-14  0.017448754 
  690070    38.574018      217 6.6078104e-14  0.051586211 
Loop time of 38.5741 on 2 procs for 1 steps with 217 atoms

Performance: 4031719.742 tau/day, 0.026 timesteps/s
85.8% CPU use with 2 MPI tasks x no OpenMP threads

MPI task timing breakdown:
Section |  min time  |  avg time  |  max time  |%varavg| %total
---------------------------------------------------------------
Pair    | 8.3923e-05 | 9.0003e-05 | 9.6083e-05 |   0.1 |  0.00
Neigh   | 0.00028205 | 0.00034797 | 0.00041389 |   0.4 |  0.00
Comm    | 4.4107e-05 | 4.4107e-05 | 4.4107e-05 |   0.0 |  0.00
Output  | 2.6941e-05 | 6.4492e-05 | 0.00010204 |   0.5 |  0.00
Modify  | 38.573     | 38.574     | 38.574     |   0.0 |100.00
Other   |            | 6.27e-05   |            |       |  0.00

Nlocal:    108.5 ave 110 max 107 min
Histogram: 1 0 0 0 0 0 0 0 0 1
Nghost:    167.5 ave 170 max 165 min
Histogram: 1 0 0 0 0 0 0 0 0 1
Neighs:    487.5 ave 499 max 476 min
Histogram: 1 0 0 0 0 0 0 0 0 1

Total # of neighbors = 975
Ave neighs/atom = 4.49309
Neighbor list builds = 1
Dangerous builds = 0

##############DEM Run##############
unfix kgm
unfix g1
unfix d1
unfix vf1
unfix k1

timestep 1e-3
run 10000
Neighbor list info ...
  2 neighbor list requests
  update every 1 steps, delay 0 steps, check yes
  max neighbors/atom: 2000, page size: 100000
  master list distance cutoff = 4.09985e-06
  ghost atom cutoff = 4.09985e-06
  binsize = 2.04992e-06 -> bins = 10 10 293
Memory usage per processor = 9.20591 Mbytes
Step CPU Atoms biomass c_myPres 
  690070            0      217 6.6078104e-14  0.053880202 
  691000  0.089109182      217 6.6078104e-14  0.033306392 
  692000   0.18561006      217 6.6078104e-14  0.027761492 
  693000   0.28124404      217 6.6078104e-14  0.025173454 
  694000   0.37339807      217 6.6078104e-14  0.023431677 
  695000   0.46692324      217 6.6078104e-14  0.022321472 
  696000   0.58790302      217 6.6078104e-14  0.021306608 
  697000   0.73737502      217 6.6078104e-14  0.020822229 
  698000   0.84989309      217 6.6078104e-14  0.020359704 
  699000   0.95503616      217 6.6078104e-14  0.020079765 
  700000    1.0970981      217 6.6078104e-14  0.019805768 
  700070     1.106806      217 6.6078104e-14  0.019781942 
Loop time of 1.1069 on 2 procs for 10000 steps with 217 atoms

Performance: 780558.248 tau/day, 9034.239 timesteps/s
89.8% CPU use with 2 MPI tasks x no OpenMP threads

MPI task timing breakdown:
Section |  min time  |  avg time  |  max time  |%varavg| %total
---------------------------------------------------------------
Pair    | 0.54854    | 0.57377    | 0.59899    |   3.3 | 51.84
Neigh   | 0.0042567  | 0.0043575  | 0.0044582  |   0.2 |  0.39
Comm    | 0.23281    | 0.23403    | 0.23525    |   0.3 | 21.14
Output  | 0.00047994 | 0.00053155 | 0.00058317 |   0.2 |  0.05
Modify  | 0.1343     | 0.1376     | 0.14089    |   0.9 | 12.43
Other   |            | 0.1566     |            |       | 14.15

Nlocal:    108.5 ave 115 max 102 min
Histogram: 1 0 0 0 0 0 0 0 0 1
Nghost:    169 ave 175 max 163 min
Histogram: 1 0 0 0 0 0 0 0 0 1
Neighs:    541.5 ave 576 max 507 min
Histogram: 1 0 0 0 0 0 0 0 0 1

Total # of neighbors = 1083
Ave neighs/atom = 4.99078
Neighbor list builds = 19
Dangerous builds = 0
