ITEM: TIMESTEP
0
ITEM: NUMBER OF ATOMS
9
ITEM: BOX BOUNDS pp pp ff
0.0000000000000000e+00 2.0000000000000002e-05
0.0000000000000000e+00 2.0000000000000002e-05
0.0000000000000000e+00 5.9999999999999995e-04
ITEM: ATOMS id type diameter x y z 
1 1 6e-06 5e-06 5e-06 1e-06 
2 1 6e-06 1e-05 5e-06 1e-06 
3 1 6e-06 1.5e-05 5e-06 1e-06 
4 1 6e-06 5e-06 1e-05 1e-06 
5 1 6e-06 1e-05 1e-05 1e-06 
6 1 6e-06 1.5e-05 1e-05 1e-06 
7 1 6e-06 5e-06 1.5e-05 1e-06 
8 1 6e-06 1e-05 1.5e-05 1e-06 
9 1 6e-06 1.5e-05 1.5e-05 1e-06 
