  Granular Flow Simulation 

       146 atoms 
       5 atom types 
       5 nutrients

    0.000000      5.0E-05  xlo xhi
   0.000000      5.0E-05  ylo yhi
   0.000000      1.0E-06  zlo zhi

 Atoms

1	1	1.00E-006	1.00E+003	1.00E-006	1.00E-006	5.00E-007	1.00E-006
2	1	1.00E-006	1.00E+003	2.00E-006	1.00E-006	5.00E-007	1.00E-006
3	1	1.00E-006	1.00E+003	3.00E-006	1.00E-006	5.00E-007	1.00E-006
4	1	1.00E-006	1.00E+003	4.00E-006	1.00E-006	5.00E-007	1.00E-006
5	1	1.00E-006	1.00E+003	5.00E-006	1.00E-006	5.00E-007	1.00E-006
6	1	1.00E-006	1.00E+003	6.00E-006	1.00E-006	5.00E-007	1.00E-006
7	1	1.00E-006	1.00E+003	7.00E-006	1.00E-006	5.00E-007	1.00E-006
8	1	1.00E-006	1.00E+003	8.00E-006	1.00E-006	5.00E-007	1.00E-006
9	1	1.00E-006	1.00E+003	9.00E-006	1.00E-006	5.00E-007	1.00E-006
10	1	1.00E-006	1.00E+003	1.00E-005	1.00E-006	5.00E-007	1.00E-006
11	1	1.00E-006	1.00E+003	1.10E-005	1.00E-006	5.00E-007	1.00E-006
12	1	1.00E-006	1.00E+003	1.20E-005	1.00E-006	5.00E-007	1.00E-006
13	1	1.00E-006	1.00E+003	1.30E-005	1.00E-006	5.00E-007	1.00E-006
14	1	1.00E-006	1.00E+003	1.40E-005	1.00E-006	5.00E-007	1.00E-006
15	1	1.00E-006	1.00E+003	1.50E-005	1.00E-006	5.00E-007	1.00E-006
16	1	1.00E-006	1.00E+003	1.60E-005	1.00E-006	5.00E-007	1.00E-006
17	1	1.00E-006	1.00E+003	1.70E-005	1.00E-006	5.00E-007	1.00E-006
18	1	1.00E-006	1.00E+003	1.80E-005	1.00E-006	5.00E-007	1.00E-006
19	1	1.00E-006	1.00E+003	1.90E-005	1.00E-006	5.00E-007	1.00E-006
20	1	1.00E-006	1.00E+003	2.00E-005	1.00E-006	5.00E-007	1.00E-006
21	1	1.00E-006	1.00E+003	2.10E-005	1.00E-006	5.00E-007	1.00E-006
22	1	1.00E-006	1.00E+003	2.20E-005	1.00E-006	5.00E-007	1.00E-006
23	1	1.00E-006	1.00E+003	2.30E-005	1.00E-006	5.00E-007	1.00E-006
24	1	1.00E-006	1.00E+003	2.40E-005	1.00E-006	5.00E-007	1.00E-006
25	1	1.00E-006	1.00E+003	2.50E-005	1.00E-006	5.00E-007	1.00E-006
26	1	1.00E-006	1.00E+003	2.60E-005	1.00E-006	5.00E-007	1.00E-006
27	1	1.00E-006	1.00E+003	2.70E-005	1.00E-006	5.00E-007	1.00E-006
28	1	1.00E-006	1.00E+003	2.80E-005	1.00E-006	5.00E-007	1.00E-006
29	1	1.00E-006	1.00E+003	2.90E-005	1.00E-006	5.00E-007	1.00E-006
30	1	1.00E-006	1.00E+003	3.00E-005	1.00E-006	5.00E-007	1.00E-006
31	1	1.00E-006	1.00E+003	3.10E-005	1.00E-006	5.00E-007	1.00E-006
32	1	1.00E-006	1.00E+003	3.20E-005	1.00E-006	5.00E-007	1.00E-006
33	1	1.00E-006	1.00E+003	3.30E-005	1.00E-006	5.00E-007	1.00E-006
34	1	1.00E-006	1.00E+003	3.40E-005	1.00E-006	5.00E-007	1.00E-006
35	1	1.00E-006	1.00E+003	3.50E-005	1.00E-006	5.00E-007	1.00E-006
36	1	1.00E-006	1.00E+003	3.60E-005	1.00E-006	5.00E-007	1.00E-006
37	1	1.00E-006	1.00E+003	3.70E-005	1.00E-006	5.00E-007	1.00E-006
38	1	1.00E-006	1.00E+003	3.80E-005	1.00E-006	5.00E-007	1.00E-006
39	1	1.00E-006	1.00E+003	3.90E-005	1.00E-006	5.00E-007	1.00E-006
40	1	1.00E-006	1.00E+003	4.00E-005	1.00E-006	5.00E-007	1.00E-006
41	1	1.00E-006	1.00E+003	4.10E-005	1.00E-006	5.00E-007	1.00E-006
42	1	1.00E-006	1.00E+003	4.20E-005	1.00E-006	5.00E-007	1.00E-006
43	1	1.00E-006	1.00E+003	4.30E-005	1.00E-006	5.00E-007	1.00E-006
44	1	1.00E-006	1.00E+003	4.40E-005	1.00E-006	5.00E-007	1.00E-006
45	1	1.00E-006	1.00E+003	4.50E-005	1.00E-006	5.00E-007	1.00E-006
46	1	1.00E-006	1.00E+003	4.60E-005	1.00E-006	5.00E-007	1.00E-006
47	1	1.00E-006	1.00E+003	4.70E-005	1.00E-006	5.00E-007	1.00E-006
48	1	1.00E-006	1.00E+003	4.80E-005	1.00E-006	5.00E-007	1.00E-006
49	1	1.00E-006	1.00E+003	4.90E-005	1.00E-006	5.00E-007	1.00E-006
50	1	1.00E-006	1.00E+003	1.00E-006	4.90E-005	5.00E-007	1.00E-006
51	1	1.00E-006	1.00E+003	2.00E-006	4.90E-005	5.00E-007	1.00E-006
52	1	1.00E-006	1.00E+003	3.00E-006	4.90E-005	5.00E-007	1.00E-006
53	1	1.00E-006	1.00E+003	4.00E-006	4.90E-005	5.00E-007	1.00E-006
54	1	1.00E-006	1.00E+003	5.00E-006	4.90E-005	5.00E-007	1.00E-006
55	1	1.00E-006	1.00E+003	6.00E-006	4.90E-005	5.00E-007	1.00E-006
56	1	1.00E-006	1.00E+003	7.00E-006	4.90E-005	5.00E-007	1.00E-006
57	1	1.00E-006	1.00E+003	8.00E-006	4.90E-005	5.00E-007	1.00E-006
58	1	1.00E-006	1.00E+003	9.00E-006	4.90E-005	5.00E-007	1.00E-006
59	1	1.00E-006	1.00E+003	1.00E-005	4.90E-005	5.00E-007	1.00E-006
60	1	1.00E-006	1.00E+003	1.10E-005	4.90E-005	5.00E-007	1.00E-006
61	1	1.00E-006	1.00E+003	1.20E-005	4.90E-005	5.00E-007	1.00E-006
62	1	1.00E-006	1.00E+003	1.30E-005	4.90E-005	5.00E-007	1.00E-006
63	1	1.00E-006	1.00E+003	1.40E-005	4.90E-005	5.00E-007	1.00E-006
64	1	1.00E-006	1.00E+003	1.50E-005	4.90E-005	5.00E-007	1.00E-006
65	1	1.00E-006	1.00E+003	1.60E-005	4.90E-005	5.00E-007	1.00E-006
66	1	1.00E-006	1.00E+003	1.70E-005	4.90E-005	5.00E-007	1.00E-006
67	1	1.00E-006	1.00E+003	1.80E-005	4.90E-005	5.00E-007	1.00E-006
68	1	1.00E-006	1.00E+003	1.90E-005	4.90E-005	5.00E-007	1.00E-006
69	1	1.00E-006	1.00E+003	2.00E-005	4.90E-005	5.00E-007	1.00E-006
70	1	1.00E-006	1.00E+003	2.10E-005	4.90E-005	5.00E-007	1.00E-006
71	1	1.00E-006	1.00E+003	2.20E-005	4.90E-005	5.00E-007	1.00E-006
72	1	1.00E-006	1.00E+003	2.30E-005	4.90E-005	5.00E-007	1.00E-006
73	1	1.00E-006	1.00E+003	2.40E-005	4.90E-005	5.00E-007	1.00E-006
74	1	1.00E-006	1.00E+003	2.50E-005	4.90E-005	5.00E-007	1.00E-006
75	1	1.00E-006	1.00E+003	2.60E-005	4.90E-005	5.00E-007	1.00E-006
76	1	1.00E-006	1.00E+003	2.70E-005	4.90E-005	5.00E-007	1.00E-006
77	1	1.00E-006	1.00E+003	2.80E-005	4.90E-005	5.00E-007	1.00E-006
78	1	1.00E-006	1.00E+003	2.90E-005	4.90E-005	5.00E-007	1.00E-006
79	1	1.00E-006	1.00E+003	3.00E-005	4.90E-005	5.00E-007	1.00E-006
80	1	1.00E-006	1.00E+003	3.10E-005	4.90E-005	5.00E-007	1.00E-006
81	1	1.00E-006	1.00E+003	3.20E-005	4.90E-005	5.00E-007	1.00E-006
82	1	1.00E-006	1.00E+003	3.30E-005	4.90E-005	5.00E-007	1.00E-006
83	1	1.00E-006	1.00E+003	3.40E-005	4.90E-005	5.00E-007	1.00E-006
84	1	1.00E-006	1.00E+003	3.50E-005	4.90E-005	5.00E-007	1.00E-006
85	1	1.00E-006	1.00E+003	3.60E-005	4.90E-005	5.00E-007	1.00E-006
86	1	1.00E-006	1.00E+003	3.70E-005	4.90E-005	5.00E-007	1.00E-006
87	1	1.00E-006	1.00E+003	3.80E-005	4.90E-005	5.00E-007	1.00E-006
88	1	1.00E-006	1.00E+003	3.90E-005	4.90E-005	5.00E-007	1.00E-006
89	1	1.00E-006	1.00E+003	4.00E-005	4.90E-005	5.00E-007	1.00E-006
90	1	1.00E-006	1.00E+003	4.10E-005	4.90E-005	5.00E-007	1.00E-006
91	1	1.00E-006	1.00E+003	4.20E-005	4.90E-005	5.00E-007	1.00E-006
92	1	1.00E-006	1.00E+003	4.30E-005	4.90E-005	5.00E-007	1.00E-006
93	1	1.00E-006	1.00E+003	4.40E-005	4.90E-005	5.00E-007	1.00E-006
94	1	1.00E-006	1.00E+003	4.50E-005	4.90E-005	5.00E-007	1.00E-006
95	1	1.00E-006	1.00E+003	4.60E-005	4.90E-005	5.00E-007	1.00E-006
96	1	1.00E-006	1.00E+003	4.70E-005	4.90E-005	5.00E-007	1.00E-006
97	1	1.00E-006	1.00E+003	4.80E-005	4.90E-005	5.00E-007	1.00E-006
98	1	1.00E-006	1.00E+003	4.90E-005	4.90E-005	5.00E-007	1.00E-006
99	2	1.00E-006	1.00E+003	2.00E-005	3.00E-006	5.00E-007	1.00E-006
100	3	1.00E-006	1.00E+003	2.10E-005	3.00E-006	5.00E-007	1.00E-006
101	4	1.00E-006	1.00E+003	2.20E-005	3.00E-006	5.00E-007	1.00E-006
102	5	1.00E-006	1.00E+003	2.30E-005	3.00E-006	5.00E-007	1.00E-006
103	2	1.00E-006	1.00E+003	2.00E-005	5.00E-006	5.00E-007	1.00E-006
104	3	1.00E-006	1.00E+003	2.10E-005	5.00E-006	5.00E-007	1.00E-006
105	4	1.00E-006	1.00E+003	2.20E-005	5.00E-006	5.00E-007	1.00E-006
106	5	1.00E-006	1.00E+003	2.30E-005	5.00E-006	5.00E-007	1.00E-006
107	2	1.00E-006	1.00E+003	2.00E-005	7.00E-006	5.00E-007	1.00E-006
108	3	1.00E-006	1.00E+003	2.10E-005	7.00E-006	5.00E-007	1.00E-006
109	4	1.00E-006	1.00E+003	2.20E-005	7.00E-006	5.00E-007	1.00E-006
110	5	1.00E-006	1.00E+003	2.30E-005	7.00E-006	5.00E-007	1.00E-006
111	2	1.00E-006	1.00E+003	2.00E-005	9.00E-006	5.00E-007	1.00E-006
112	3	1.00E-006	1.00E+003	2.10E-005	9.00E-006	5.00E-007	1.00E-006
113	4	1.00E-006	1.00E+003	2.20E-005	9.00E-006	5.00E-007	1.00E-006
114	5	1.00E-006	1.00E+003	2.30E-005	9.00E-006	5.00E-007	1.00E-006
115	2	1.00E-006	1.00E+003	2.00E-005	1.10E-005	5.00E-007	1.00E-006
116	3	1.00E-006	1.00E+003	2.10E-005	1.10E-005	5.00E-007	1.00E-006
117	4	1.00E-006	1.00E+003	2.20E-005	1.10E-005	5.00E-007	1.00E-006
118	5	1.00E-006	1.00E+003	2.30E-005	1.10E-005	5.00E-007	1.00E-006
119	2	1.00E-006	1.00E+003	2.00E-005	1.30E-005	5.00E-007	1.00E-006
120	3	1.00E-006	1.00E+003	2.10E-005	1.30E-005	5.00E-007	1.00E-006
121	4	1.00E-006	1.00E+003	2.20E-005	1.30E-005	5.00E-007	1.00E-006
122	5	1.00E-006	1.00E+003	2.30E-005	1.30E-005	5.00E-007	1.00E-006
123	2	1.00E-006	1.00E+003	2.00E-005	1.50E-005	5.00E-007	1.00E-006
124	3	1.00E-006	1.00E+003	2.10E-005	1.50E-005	5.00E-007	1.00E-006
125	4	1.00E-006	1.00E+003	2.20E-005	1.50E-005	5.00E-007	1.00E-006
126	5	1.00E-006	1.00E+003	2.30E-005	1.50E-005	5.00E-007	1.00E-006
127	2	1.00E-006	1.00E+003	2.00E-005	1.70E-005	5.00E-007	1.00E-006
128	3	1.00E-006	1.00E+003	2.10E-005	1.70E-005	5.00E-007	1.00E-006
129	4	1.00E-006	1.00E+003	2.20E-005	1.70E-005	5.00E-007	1.00E-006
130	5	1.00E-006	1.00E+003	2.30E-005	1.70E-005	5.00E-007	1.00E-006
131	2	1.00E-006	1.00E+003	2.00E-005	1.90E-005	5.00E-007	1.00E-006
132	3	1.00E-006	1.00E+003	2.10E-005	1.90E-005	5.00E-007	1.00E-006
133	4	1.00E-006	1.00E+003	2.20E-005	1.90E-005	5.00E-007	1.00E-006
134	5	1.00E-006	1.00E+003	2.30E-005	1.90E-005	5.00E-007	1.00E-006
135	2	1.00E-006	1.00E+003	2.00E-005	2.10E-005	5.00E-007	1.00E-006
136	3	1.00E-006	1.00E+003	2.10E-005	2.10E-005	5.00E-007	1.00E-006
137	4	1.00E-006	1.00E+003	2.20E-005	2.10E-005	5.00E-007	1.00E-006
138	5	1.00E-006	1.00E+003	2.30E-005	2.10E-005	5.00E-007	1.00E-006
139	2	1.00E-006	1.00E+003	2.00E-005	2.30E-005	5.00E-007	1.00E-006
140	3	1.00E-006	1.00E+003	2.10E-005	2.30E-005	5.00E-007	1.00E-006
141	4	1.00E-006	1.00E+003	2.20E-005	2.30E-005	5.00E-007	1.00E-006
142	5	1.00E-006	1.00E+003	2.30E-005	2.30E-005	5.00E-007	1.00E-006
143	2	1.00E-006	1.00E+003	2.00E-005	2.50E-005	5.00E-007	1.00E-006
144	3	1.00E-006	1.00E+003	2.10E-005	2.50E-005	5.00E-007	1.00E-006
145	4	1.00E-006	1.00E+003	2.20E-005	2.50E-005	5.00E-007	1.00E-006
146	5	1.00E-006	1.00E+003	2.30E-005	2.50E-005	5.00E-007	1.00E-006


 Nutrients

     1 sub l 1e-4 1e-4 1e-4 1e-4 1e-4 1e-4 1e-4
     2 o2 l 1e-4 1e-4 1e-4 1e-4 1e-4 1e-4 1e-4
     3 no2 l 1e-4 1e-4 1e-4 1e-4 1e-4 1e-4 1e-4
     4 no3 l 1e-4 1e-4 1e-4 1e-4 1e-4 1e-4 1e-4
     5 nh4 l 1e-4 1e-4 1e-4 1e-4 1e-4 1e-4 1e-4

 Diffusion Coeffs
    
     sub 1.6e-9
     o2 0
     no2 0
     no3 0
     nh4 0

 Type Name

     1 het
     2 aob
     3 nob
     4 eps
     5 dead

 Ks
     
     het 3.5e-5 0 0 0 0
     aob 0 0 0 0 0
     nob 0 0 0 0 0
     eps 0 0 0 0 0
     dead 0 0 0 0 0

Growth Rate

     het 0.000
     aob 0
     nob 0
     eps 0
     dead 0

 Yield
    
     het 0.61
     aob 0.33
     nob 0.083
     eps 0.18
     dead 0

 Maintenance
 
     het 0
     aob 0
     nob 0
     eps 0
     dead 0

 Decay

     het 0.000003694
     aob 0.00000127314
     nob 0.00000127314
     eps 0.00000196759
     dead 0


