NUFEB Simulation 

       6 atoms 
       1 atom types 
       6 bacilli

   0.000000e-04   50e-6  xlo xhi 
   0.000000e-04   50e-6  ylo yhi 
   0.000000e-04   10e-6  zlo zhi 

 Atoms 

     1 1 1 150 21e-6 24e-6 2e-6 1
     2 1 1 150 40e-6 21e-6 2e-6 1
     3 1 1 150 22e-6 11e-6 2e-6 1
     4 1 1 150 19e-6 32e-6 2e-6 1
     5 1 1 150 21e-6 17e-6 2e-6 1
     6 1 1 150 13e-6 26e-6 2e-6 1

 Bacilli
     
     1 0 0 7.2e-24 0 0 0 4e-6 0 0 1e-6
     2 0 0 7.2e-24 0 0 0 4e-6 3.5e-6 0 1e-6
     3 0 0 7.2e-24 0 0 0 4.2e-6 1e-6 0 1e-6
     4 0 0 7.2e-24 0 0 0 0 3.5e-6 0 1e-6
     5 0 0 7.2e-24 0 0 0 3.5e-6 2e-6 0 1e-6
     6 0 0 7.2e-24 0 0 0 4e-6 3.5e-6 0 1e-6
