LAMMPS (5 Nov 2016)
# NUFEB simulation



atom_style	bio

atom_modify	map array sort 1000 5e-7

boundary	pp pp ff

newton		off

processors  * * 1



units si



comm_modify	vel yes

read_data_bio atom.in

  orthogonal box = (0 0 0) to (0.0016 3e-05 0.00038)
  1 by 1 by 1 MPI processor grid
  reading atoms ...
  0 atoms
  5 nutrients


variable  x equal 258

variable  y equal 5

variable  z equal 10



lattice sc 6.221e-6

Lattice spacing in x,y,z = 6.221e-06 6.221e-06 6.221e-06


region reg block 1 $x 1 $y 1 $z

region reg block 1 258 1 $y 1 $z

region reg block 1 258 1 5 1 $z

region reg block 1 258 1 5 1 10



variable  xx internal 0.0

variable  zz internal 0.0

variable  v equal "(0.29*v_z*zlat * cos(v_xx/xlat * 4.7*PI*4.0/v_x) + 0.90*v_z*zlat - v_zz) > 0.0"



#create_atoms 1 region reg var v set x xx set z zz

create_atoms 1 region reg

Created 10280 atoms


neighbor	5e-7 bin



set type 1 diameter 1.211e-6

  10280 settings made for diameter
set type 1 density 10

  10280 settings made for density
set type 1 mass 3.065e-15

  10280 settings made for mass




##############Define DEM Variables&Commands##############



pair_style  gran/hooke/history 1.e-4 NULL 1.e-5 NULL 0.0 1

pair_coeff  * *



reset_timestep 0



timestep 1e-6



#fix 1 all nve/limit 1e-7

#fix fv all viscous 1e-5



fix zw all wall/gran hooke/history 5000 NULL 500.0 NULL 1.5 0 zplane 0.000000e-04   4e-4



variable kanc equal 50



fix zwa all walladh v_kanc zplane  0.000000e-04   4e-4



variable ke equal 5e+10

fix  fd all fdrag



##############Define IBm Variables##############



#variables used in fix monod

variable EPSdens equal 30

variable EPSratio equal 1.25



#variables used in fix kinetics 

variable diffT equal 1e-4

variable tol equal 1e-7

variable etaHET equal 0

variable layer equal -1



#Defining nufebFoam variables

variable demSteps equal -1

variable bioSteps equal 1

variable bioDt equal 60

variable nloops equal 20





##############Define IBm Commands##############



fix k1 all kinetics 1 160 3 38 v_diffT v_layer niter -1

fix kgm all kinetics/growth/monod v_EPSdens v_etaHET gflag 0

fix g1 all kinetics/diffusion v_tol dn nn nn kg



fix cfd1 all nufebFoam v_demSteps v_bioSteps v_bioDt v_nloops

fix vf1 all verify 100 bm2 1 demflag 0



##############Simulation Output##############



#dump		id all custom 1 snapshot.bubblemd id type diameter x y z

#dump		du2 all grid 1000 grid_%_*.vti con 

thermo_style    custom step cpu atoms biomass 

thermo		10

thermo_modify	lost warn



run 0 pre no post no
WARNING: EPS is not defined in fix_kinetics/kinetics/monod (../fix_bio_kinetics_monod.cpp:253)
WARNING: Negative input value for DEM steps, steps will be calculated and adjusted in nufebFoam (../fix_bio_fluid.cpp:73)
ae = 1.000000e+00, top = 6.281550e-05, base = 6.281550e-05, ave_h = 6.221000e-05 
Neighbor list info ...
  2 neighbor list requests
  update every 1 steps, delay 10 steps, check yes
  max neighbors/atom: 2000, page size: 100000
  master list distance cutoff = 1.711e-06
  ghost atom cutoff = 1.711e-06
  binsize = 8.555e-07 -> bins = 1871 36 445
Memory usage per processor = 140.029 Mbytes
Step CPU Atoms biomass 
       0            0    10280  3.15082e-11 
Loop time of 3.8147e-06 on 1 procs for 0 steps with 10280 atoms

0.0% CPU use with 1 MPI tasks x no OpenMP threads
run 1 pre no post no
Step CPU Atoms biomass 
       0            0    10280  3.15082e-11 
number of iterations: 1866303 
       1    4257.3085    10280  3.15082e-11 
Loop time of 4257.31 on 1 procs for 1 steps with 10280 atoms

100.0% CPU use with 1 MPI tasks x no OpenMP threads
run 100 pre no post no
Step CPU Atoms biomass 
       1            0    10280  3.15082e-11 
      10  0.010221958    10280  3.15082e-11 
      20  0.018854856    10280  3.15082e-11 
      30  0.032942772    10280  3.15082e-11 
      40  0.050707817    10280  3.15082e-11 
      50  0.067246914    10280  3.15082e-11 
      60  0.083300829    10280  3.15082e-11 
      70  0.095513821    10280  3.15082e-11 
      80   0.10953093    10280  3.15082e-11 
      90   0.12335992    10280  3.15082e-11 
ssurf = 5.954107e-04 
     100    0.1381278    10280  3.15082e-11 
     101   0.13957787    10280  3.15082e-11 
Loop time of 0.139659 on 1 procs for 100 steps with 10280 atoms

100.2% CPU use with 1 MPI tasks x no OpenMP threads
run 100 pre no post no
Step CPU Atoms biomass 
     101            0    10280  3.15082e-11 
     110  0.012130022    10280  3.15082e-11 
     120  0.027041197    10280  3.15082e-11 
     130  0.040274143    10280  3.15082e-11 
     140  0.058656216    10280  3.15082e-11 
     150  0.074658155    10280  3.15082e-11 
     160  0.091202021    10280  3.15082e-11 
     170   0.10636401    10280  3.15082e-11 
     180   0.11821508    10280  3.15082e-11 
     190   0.13103199    10280  3.15082e-11 
ssurf = 5.954107e-04 
     200   0.14742517    10280  3.15082e-11 
     201   0.14915204    10280  3.15082e-11 
Loop time of 0.149271 on 1 procs for 100 steps with 10280 atoms

99.1% CPU use with 1 MPI tasks x no OpenMP threads
run 100 pre no post no
Step CPU Atoms biomass 
     201            0    10280  3.15082e-11 
     210 0.0083940029    10280  3.15082e-11 
     220  0.022994041    10280  3.15082e-11 
     230  0.045400143    10280  3.15082e-11 
     240  0.057206154    10280  3.15082e-11 
     250  0.073786974    10280  3.15082e-11 
     260  0.090589046    10280  3.15082e-11 
     270   0.11048102    10280  3.15082e-11 
     280   0.12167001    10280  3.15082e-11 
     290   0.14370418    10280  3.15082e-11 
ssurf = 5.954107e-04 
     300   0.15412617    10280  3.15082e-11 
     301   0.15640497    10280  3.15082e-11 
Loop time of 0.15665 on 1 procs for 100 steps with 10280 atoms

102.1% CPU use with 1 MPI tasks x no OpenMP threads
run 100 pre no post no
Step CPU Atoms biomass 
     301            0    10280  3.15082e-11 
     310  0.018257141    10280  3.15082e-11 
     320  0.032675028    10280  3.15082e-11 
     330  0.044772148    10280  3.15082e-11 
     340  0.061419964    10280  3.15082e-11 
     350  0.079057932    10280  3.15082e-11 
     360  0.095479012    10280  3.15082e-11 
     370   0.10877895    10280  3.15082e-11 
     380   0.12133694    10280  3.15082e-11 
     390   0.12940502    10280  3.15082e-11 
ssurf = 5.954107e-04 
     400   0.15094113    10280  3.15082e-11 
     401   0.15236115    10280  3.15082e-11 
Loop time of 0.15258 on 1 procs for 100 steps with 10280 atoms

99.6% CPU use with 1 MPI tasks x no OpenMP threads
run 100 pre no post no
Step CPU Atoms biomass 
     401            0    10280  3.15082e-11 
     410  0.016093016    10280  3.15082e-11 
     420  0.034044027    10280  3.15082e-11 
     430  0.045847178    10280  3.15082e-11 
     440  0.063609123    10280  3.15082e-11 
     450  0.082551003    10280  3.15082e-11 
     460  0.097419024    10280  3.15082e-11 
     470   0.10996008    10280  3.15082e-11 
     480   0.12281299    10280  3.15082e-11 
     490    0.1404891    10280  3.15082e-11 
ssurf = 5.954107e-04 
     500   0.16015506    10280  3.15082e-11 
     501   0.16157603    10280  3.15082e-11 
Loop time of 0.16165 on 1 procs for 100 steps with 10280 atoms

99.0% CPU use with 1 MPI tasks x no OpenMP threads
run 100 pre no post no
Step CPU Atoms biomass 
     501            0    10280  3.15082e-11 
     510  0.016942978    10280  3.15082e-11 
     520  0.036336899    10280  3.15082e-11 
     530  0.050013781    10280  3.15082e-11 
     540  0.066198826    10280  3.15082e-11 
     550  0.088004827    10280  3.15082e-11 
     560   0.10586095    10280  3.15082e-11 
     570   0.12339997    10280  3.15082e-11 
     580   0.13882685    10280  3.15082e-11 
     590   0.15697289    10280  3.15082e-11 
ssurf = 5.954107e-04 
     600   0.17297482    10280  3.15082e-11 
     601   0.17409277    10280  3.15082e-11 
Loop time of 0.174138 on 1 procs for 100 steps with 10280 atoms

101.1% CPU use with 1 MPI tasks x no OpenMP threads
run 100 pre no post no
Step CPU Atoms biomass 
     601            0    10280  3.15082e-11 
     610  0.014472008    10280  3.15082e-11 
     620  0.023272038    10280  3.15082e-11 
     630  0.035164118    10280  3.15082e-11 
     640  0.053879023    10280  3.15082e-11 
     650  0.073559046    10280  3.15082e-11 
     660  0.091834068    10280  3.15082e-11 
     670    0.1119051    10280  3.15082e-11 
     680   0.13391495    10280  3.15082e-11 
     690      0.15555    10280  3.15082e-11 
ssurf = 5.954107e-04 
     700    0.1740799    10280  3.15082e-11 
     701    0.1748929    10280  3.15082e-11 
Loop time of 0.174931 on 1 procs for 100 steps with 10280 atoms

100.6% CPU use with 1 MPI tasks x no OpenMP threads
run 100 pre no post no
Step CPU Atoms biomass 
     701            0    10280  3.15082e-11 
     710  0.017969131    10280  3.15082e-11 
     720  0.028571129    10280  3.15082e-11 
     730  0.040759087    10280  3.15082e-11 
     740  0.058958054    10280  3.15082e-11 
     750  0.074881077    10280  3.15082e-11 
     760  0.089951992    10280  3.15082e-11 
     770   0.11015797    10280  3.15082e-11 
     780   0.13235402    10280  3.15082e-11 
     790   0.15369105    10280  3.15082e-11 
ssurf = 5.954107e-04 
     800   0.17837214    10280  3.15082e-11 
     801   0.18116999    10280  3.15082e-11 
Loop time of 0.181441 on 1 procs for 100 steps with 10280 atoms

99.2% CPU use with 1 MPI tasks x no OpenMP threads
run 100 pre no post no
Step CPU Atoms biomass 
     801            0    10280  3.15082e-11 
     810   0.01326108    10280  3.15082e-11 
     820  0.022265911    10280  3.15082e-11 
     830  0.032524109    10280  3.15082e-11 
     840  0.047696114    10280  3.15082e-11 
     850  0.056756973    10280  3.15082e-11 
     860  0.072986126    10280  3.15082e-11 
     870   0.09218502    10280  3.15082e-11 
     880   0.11220598    10280  3.15082e-11 
     890   0.13245392    10280  3.15082e-11 
ssurf = 5.954107e-04 
     900    0.1497879    10280  3.15082e-11 
     901   0.15092897    10280  3.15082e-11 
Loop time of 0.151006 on 1 procs for 100 steps with 10280 atoms

98.0% CPU use with 1 MPI tasks x no OpenMP threads
run 100 pre no post no
Step CPU Atoms biomass 
     901            0    10280  3.15082e-11 
     910  0.013403177    10280  3.15082e-11 
     920  0.036345005    10280  3.15082e-11 
     930  0.060943127    10280  3.15082e-11 
     940  0.079210997    10280  3.15082e-11 
     950   0.09966898    10280  3.15082e-11 
     960   0.12101412    10280  3.15082e-11 
     970   0.13957906    10280  3.15082e-11 
     980   0.15882206    10280  3.15082e-11 
     990   0.17920899    10280  3.15082e-11 
ssurf = 5.954107e-04 
    1000   0.19497395    10280  3.15082e-11 
    1001   0.19587398    10280  3.15082e-11 
Loop time of 0.195912 on 1 procs for 100 steps with 10280 atoms

100.0% CPU use with 1 MPI tasks x no OpenMP threads
run 100 pre no post no
Step CPU Atoms biomass 
    1001            0    10280  3.15082e-11 
    1010   0.01255393    10280  3.15082e-11 
    1020  0.032763958    10280  3.15082e-11 
    1030  0.053689003    10280  3.15082e-11 
    1040  0.070402861    10280  3.15082e-11 
    1050  0.095824003    10280  3.15082e-11 
    1060   0.11539197    10280  3.15082e-11 
    1070   0.13419795    10280  3.15082e-11 
    1080   0.15066695    10280  3.15082e-11 
    1090   0.17403793    10280  3.15082e-11 
ssurf = 5.954107e-04 
    1100   0.19692397    10280  3.15082e-11 
    1101   0.19963098    10280  3.15082e-11 
Loop time of 0.199814 on 1 procs for 100 steps with 10280 atoms

100.1% CPU use with 1 MPI tasks x no OpenMP threads
run 100 pre no post no
Step CPU Atoms biomass 
    1101            0    10280  3.15082e-11 
    1110 0.0070199966    10280  3.15082e-11 
    1120  0.019426107    10280  3.15082e-11 
    1130  0.028820038    10280  3.15082e-11 
    1140  0.038173914    10280  3.15082e-11 
    1150  0.051626921    10280  3.15082e-11 
    1160  0.065737009    10280  3.15082e-11 
    1170  0.075518131    10280  3.15082e-11 
    1180  0.087836027    10280  3.15082e-11 
    1190  0.094098091    10280  3.15082e-11 
ssurf = 5.954107e-04 
    1200   0.10308504    10280  3.15082e-11 
    1201   0.10376501    10280  3.15082e-11 
Loop time of 0.10381 on 1 procs for 100 steps with 10280 atoms

100.2% CPU use with 1 MPI tasks x no OpenMP threads
run 100 pre no post no
Step CPU Atoms biomass 
    1201            0    10280  3.15082e-11 
    1210 0.0057380199    10280  3.15082e-11 
    1220  0.015547991    10280  3.15082e-11 
    1230  0.028599024    10280  3.15082e-11 
    1240  0.034965992    10280  3.15082e-11 
    1250  0.043420076    10280  3.15082e-11 
    1260  0.057291031    10280  3.15082e-11 
    1270  0.063664913    10280  3.15082e-11 
    1280  0.071748972    10280  3.15082e-11 
    1290  0.084500074    10280  3.15082e-11 
ssurf = 5.954107e-04 
    1300  0.092543125    10280  3.15082e-11 
    1301   0.09325695    10280  3.15082e-11 
Loop time of 0.0932951 on 1 procs for 100 steps with 10280 atoms

98.6% CPU use with 1 MPI tasks x no OpenMP threads
run 100 pre no post no
Step CPU Atoms biomass 
    1301            0    10280  3.15082e-11 
    1310   0.01149416    10280  3.15082e-11 
    1320   0.02156806    10280  3.15082e-11 
    1330  0.027516127    10280  3.15082e-11 
    1340  0.035087109    10280  3.15082e-11 
    1350  0.047222137    10280  3.15082e-11 
    1360   0.05601716    10280  3.15082e-11 
    1370  0.062226057    10280  3.15082e-11 
    1380  0.070749998    10280  3.15082e-11 
    1390  0.084197998    10280  3.15082e-11 
ssurf = 5.954107e-04 
    1400   0.09010601    10280  3.15082e-11 
    1401  0.090761185    10280  3.15082e-11 
Loop time of 0.0908 on 1 procs for 100 steps with 10280 atoms

101.3% CPU use with 1 MPI tasks x no OpenMP threads
run 100 pre no post no
Step CPU Atoms biomass 
    1401            0    10280  3.15082e-11 
    1410 0.0079789162    10280  3.15082e-11 
    1420  0.021804094    10280  3.15082e-11 
    1430  0.027721882    10280  3.15082e-11 
    1440  0.033570051    10280  3.15082e-11 
    1450  0.040937901    10280  3.15082e-11 
    1460  0.053058863    10280  3.15082e-11 
    1470  0.061755896    10280  3.15082e-11 
    1480  0.068391085    10280  3.15082e-11 
    1490  0.079731941    10280  3.15082e-11 
ssurf = 5.954107e-04 
    1500   0.09007597    10280  3.15082e-11 
    1501  0.090722084    10280  3.15082e-11 
Loop time of 0.0907581 on 1 procs for 100 steps with 10280 atoms

97.0% CPU use with 1 MPI tasks x no OpenMP threads
run 100 pre no post no
Step CPU Atoms biomass 
    1501            0    10280  3.15082e-11 
    1510  0.010037899    10280  3.15082e-11 
    1520  0.022178888    10280  3.15082e-11 
    1530  0.027668953    10280  3.15082e-11 
    1540  0.033143997    10280  3.15082e-11 
    1550  0.038791895    10280  3.15082e-11 
    1560  0.051630974    10280  3.15082e-11 
    1570  0.060970068    10280  3.15082e-11 
    1580  0.066596985    10280  3.15082e-11 
    1590  0.075040102    10280  3.15082e-11 
ssurf = 5.954107e-04 
    1600  0.089108944    10280  3.15082e-11 
    1601  0.089730978    10280  3.15082e-11 
Loop time of 0.0897689 on 1 procs for 100 steps with 10280 atoms

98.0% CPU use with 1 MPI tasks x no OpenMP threads
run 100 pre no post no
Step CPU Atoms biomass 
    1601            0    10280  3.15082e-11 
    1610 0.0080149174    10280  3.15082e-11 
    1620  0.021953821    10280  3.15082e-11 
    1630     0.027704    10280  3.15082e-11 
    1640  0.033320904    10280  3.15082e-11 
    1650  0.039402962    10280  3.15082e-11 
    1660  0.052432775    10280  3.15082e-11 
    1670  0.061433792    10280  3.15082e-11 
    1680  0.066978931    10280  3.15082e-11 
    1690   0.07504487    10280  3.15082e-11 
ssurf = 5.954107e-04 
    1700  0.089631796    10280  3.15082e-11 
    1701  0.090610981    10280  3.15082e-11 
Loop time of 0.0906529 on 1 procs for 100 steps with 10280 atoms

92.7% CPU use with 1 MPI tasks x no OpenMP threads
run 100 pre no post no
Step CPU Atoms biomass 
    1701            0    10280  3.15082e-11 
    1710  0.011008978    10280  3.15082e-11 
    1720  0.022613049    10280  3.15082e-11 
    1730  0.028259039    10280  3.15082e-11 
    1740  0.033828974    10280  3.15082e-11 
    1750  0.041564941    10280  3.15082e-11 
    1760  0.056750059    10280  3.15082e-11 
    1770  0.062478065    10280  3.15082e-11 
    1780  0.075639009    10280  3.15082e-11 
    1790  0.091555119    10280  3.15082e-11 
ssurf = 5.954107e-04 
    1800   0.10237813    10280  3.15082e-11 
    1801   0.10377002    10280  3.15082e-11 
Loop time of 0.10383 on 1 procs for 100 steps with 10280 atoms

100.2% CPU use with 1 MPI tasks x no OpenMP threads
run 100 pre no post no
Step CPU Atoms biomass 
    1801            0    10280  3.15082e-11 
    1810 0.0081839561    10280  3.15082e-11 
    1820  0.022421122    10280  3.15082e-11 
    1830  0.028293133    10280  3.15082e-11 
    1840  0.034159184    10280  3.15082e-11 
    1850  0.039952993    10280  3.15082e-11 
    1860  0.055421114    10280  3.15082e-11 
    1870  0.064172029    10280  3.15082e-11 
    1880   0.07030797    10280  3.15082e-11 
    1890  0.079957008    10280  3.15082e-11 
ssurf = 5.954107e-04 
    1900  0.092023134    10280  3.15082e-11 
    1901  0.092612982    10280  3.15082e-11 
Loop time of 0.0926502 on 1 procs for 100 steps with 10280 atoms

99.3% CPU use with 1 MPI tasks x no OpenMP threads
run 100 pre no post no
Step CPU Atoms biomass 
    1901            0    10280  3.15082e-11 
    1910 0.0087649822    10280  3.15082e-11 
    1920   0.02154398    10280  3.15082e-11 
    1930  0.027449846    10280  3.15082e-11 
    1940  0.034226894    10280  3.15082e-11 
    1950   0.04527998    10280  3.15082e-11 
    1960  0.055940866    10280  3.15082e-11 
    1970  0.061859846    10280  3.15082e-11 
    1980  0.070415974    10280  3.15082e-11 
    1990  0.084486961    10280  3.15082e-11 
ssurf = 5.954107e-04 
    2000  0.090403795    10280  3.15082e-11 
    2001   0.09103179    10280  3.15082e-11 
Loop time of 0.0910668 on 1 procs for 100 steps with 10280 atoms

101.0% CPU use with 1 MPI tasks x no OpenMP threads
run 100 pre no post no
Step CPU Atoms biomass 
    2001            0    10280  3.15082e-11 
    2010  0.013457775    10280  3.15082e-11 
    2020  0.029987812    10280  3.15082e-11 
    2030  0.047947884    10280  3.15082e-11 
    2040  0.065578938    10280  3.15082e-11 
    2050  0.081433773    10280  3.15082e-11 
    2060  0.097029924    10280  3.15082e-11 
    2070   0.11068797    10280  3.15082e-11 
    2080   0.12399483    10280  3.15082e-11 
    2090   0.14002895    10280  3.15082e-11 
ssurf = 5.954107e-04 
    2100   0.15479279    10280  3.15082e-11 
    2101   0.15637493    10280  3.15082e-11 
Loop time of 0.156439 on 1 procs for 100 steps with 10280 atoms

97.2% CPU use with 1 MPI tasks x no OpenMP threads
run 100 pre no post no
Step CPU Atoms biomass 
    2101            0    10280  3.15082e-11 
    2110  0.013690948    10280  3.15082e-11 
    2120  0.023283005    10280  3.15082e-11 
    2130   0.03527379    10280  3.15082e-11 
    2140  0.049098015    10280  3.15082e-11 
    2150  0.057755947    10280  3.15082e-11 
    2160   0.07062602    10280  3.15082e-11 
    2170  0.082476854    10280  3.15082e-11 
    2180  0.092230797    10280  3.15082e-11 
    2190   0.10808992    10280  3.15082e-11 
ssurf = 5.954107e-04 
    2200   0.11675501    10280  3.15082e-11 
    2201   0.11771798    10280  3.15082e-11 
Loop time of 0.117763 on 1 procs for 100 steps with 10280 atoms

98.5% CPU use with 1 MPI tasks x no OpenMP threads
run 100 pre no post no
Step CPU Atoms biomass 
    2201            0    10280  3.15082e-11 
    2210 0.0061321259    10280  3.15082e-11 
    2220  0.021181107    10280  3.15082e-11 
    2230  0.029417038    10280  3.15082e-11 
    2240  0.035923958    10280  3.15082e-11 
    2250  0.049303055    10280  3.15082e-11 
    2260   0.05887413    10280  3.15082e-11 
    2270   0.06526494    10280  3.15082e-11 
    2280  0.078338146    10280  3.15082e-11 
    2290  0.088157177    10280  3.15082e-11 
ssurf = 5.954107e-04 
    2300  0.094437122    10280  3.15082e-11 
    2301   0.09512496    10280  3.15082e-11 
Loop time of 0.0951631 on 1 procs for 100 steps with 10280 atoms

100.9% CPU use with 1 MPI tasks x no OpenMP threads
run 100 pre no post no
Step CPU Atoms biomass 
    2301            0    10280  3.15082e-11 
    2310 0.0057160854    10280  3.15082e-11 
    2320  0.013967037    10280  3.15082e-11 
    2330  0.027180195    10280  3.15082e-11 
    2340  0.034857988    10280  3.15082e-11 
    2350  0.042268038    10280  3.15082e-11 
    2360  0.054586172    10280  3.15082e-11 
    2370  0.064049006    10280  3.15082e-11 
    2380  0.070787191    10280  3.15082e-11 
    2390  0.082254171    10280  3.15082e-11 
ssurf = 5.954107e-04 
    2400  0.092816114    10280  3.15082e-11 
    2401  0.093507051    10280  3.15082e-11 
Loop time of 0.0935471 on 1 procs for 100 steps with 10280 atoms

98.3% CPU use with 1 MPI tasks x no OpenMP threads
run 100 pre no post no
Step CPU Atoms biomass 
    2401            0    10280  3.15082e-11 
    2410  0.014027119    10280  3.15082e-11 
    2420  0.032793045    10280  3.15082e-11 
    2430  0.048263073    10280  3.15082e-11 
    2440  0.065934181    10280  3.15082e-11 
    2450   0.08217001    10280  3.15082e-11 
    2460   0.10006022    10280  3.15082e-11 
    2470   0.11675501    10280  3.15082e-11 
    2480    0.1335752    10280  3.15082e-11 
    2490   0.15090513    10280  3.15082e-11 
ssurf = 5.954107e-04 
    2500   0.16743302    10280  3.15082e-11 
    2501   0.16899419    10280  3.15082e-11 
Loop time of 0.169071 on 1 procs for 100 steps with 10280 atoms

99.4% CPU use with 1 MPI tasks x no OpenMP threads
run 100 pre no post no
Step CPU Atoms biomass 
    2501            0    10280  3.15082e-11 
    2510  0.012617111    10280  3.15082e-11 
    2520  0.021054983    10280  3.15082e-11 
    2530  0.031890154    10280  3.15082e-11 
    2540  0.046069145    10280  3.15082e-11 
    2550  0.054504156    10280  3.15082e-11 
    2560  0.067187071    10280  3.15082e-11 
    2570  0.079770088    10280  3.15082e-11 
    2580  0.090664148    10280  3.15082e-11 
    2590    0.1062181    10280  3.15082e-11 
ssurf = 5.954107e-04 
    2600   0.12197614    10280  3.15082e-11 
    2601   0.12343907    10280  3.15082e-11 
Loop time of 0.123558 on 1 procs for 100 steps with 10280 atoms

100.4% CPU use with 1 MPI tasks x no OpenMP threads
run 100 pre no post no
Step CPU Atoms biomass 
    2601            0    10280  3.15082e-11 
    2610  0.011613846    10280  3.15082e-11 
    2620  0.020938873    10280  3.15082e-11 
    2630  0.027202845    10280  3.15082e-11 
    2640  0.035574913    10280  3.15082e-11 
    2650  0.047495842    10280  3.15082e-11 
    2660  0.056381941    10280  3.15082e-11 
    2670  0.063755989    10280  3.15082e-11 
    2680  0.075693846    10280  3.15082e-11 
    2690  0.085653067    10280  3.15082e-11 
ssurf = 5.954107e-04 
    2700  0.092370033    10280  3.15082e-11 
    2701  0.093262911    10280  3.15082e-11 
Loop time of 0.0933709 on 1 procs for 100 steps with 10280 atoms

98.5% CPU use with 1 MPI tasks x no OpenMP threads
run 100 pre no post no
Step CPU Atoms biomass 
    2701            0    10280  3.15082e-11 
    2710 0.0064139366    10280  3.15082e-11 
    2720  0.021286011    10280  3.15082e-11 
    2730  0.029026031    10280  3.15082e-11 
    2740  0.035712004    10280  3.15082e-11 
    2750  0.049766064    10280  3.15082e-11 
    2760  0.058384895    10280  3.15082e-11 
    2770  0.064954996    10280  3.15082e-11 
    2780  0.081796885    10280  3.15082e-11 
    2790  0.096482038    10280  3.15082e-11 
ssurf = 5.954107e-04 
    2800   0.10939503    10280  3.15082e-11 
    2801   0.11102796    10280  3.15082e-11 
Loop time of 0.111089 on 1 procs for 100 steps with 10280 atoms

93.6% CPU use with 1 MPI tasks x no OpenMP threads
run 100 pre no post no
Step CPU Atoms biomass 
    2801            0    10280  3.15082e-11 
    2810  0.008231163    10280  3.15082e-11 
    2820   0.02196312    10280  3.15082e-11 
    2830   0.02780509    10280  3.15082e-11 
    2840  0.037168026    10280  3.15082e-11 
    2850  0.051554203    10280  3.15082e-11 
    2860  0.057403088    10280  3.15082e-11 
    2870  0.066717148    10280  3.15082e-11 
    2880   0.08148098    10280  3.15082e-11 
    2890  0.087413073    10280  3.15082e-11 
ssurf = 5.954107e-04 
    2900  0.095837116    10280  3.15082e-11 
    2901  0.096914053    10280  3.15082e-11 
Loop time of 0.0969551 on 1 procs for 100 steps with 10280 atoms

103.1% CPU use with 1 MPI tasks x no OpenMP threads
run 100 pre no post no
Step CPU Atoms biomass 
    2901            0    10280  3.15082e-11 
    2910 0.0083098412    10280  3.15082e-11 
    2920  0.021929979    10280  3.15082e-11 
    2930  0.027730942    10280  3.15082e-11 
    2940  0.033483028    10280  3.15082e-11 
    2950  0.041106939    10280  3.15082e-11 
    2960  0.053194046    10280  3.15082e-11 
    2970  0.061733007    10280  3.15082e-11 
    2980  0.067709923    10280  3.15082e-11 
    2990  0.080364943    10280  3.15082e-11 
ssurf = 5.954107e-04 
    3000  0.090647936    10280  3.15082e-11 
    3001   0.09125495    10280  3.15082e-11 
Loop time of 0.09129 on 1 procs for 100 steps with 10280 atoms

100.8% CPU use with 1 MPI tasks x no OpenMP threads
run 100 pre no post no
Step CPU Atoms biomass 
    3001            0    10280  3.15082e-11 
    3010 0.0053319931    10280  3.15082e-11 
    3020  0.015137911    10280  3.15082e-11 
    3030  0.028297901    10280  3.15082e-11 
    3040  0.034250975    10280  3.15082e-11 
    3050  0.042757034    10280  3.15082e-11 
    3060  0.056396961    10280  3.15082e-11 
    3070  0.062168837    10280  3.15082e-11 
    3080  0.068182945    10280  3.15082e-11 
    3090  0.081861973    10280  3.15082e-11 
ssurf = 5.954107e-04 
    3100  0.091012955    10280  3.15082e-11 
    3101  0.091614008    10280  3.15082e-11 
Loop time of 0.0916488 on 1 procs for 100 steps with 10280 atoms

100.4% CPU use with 1 MPI tasks x no OpenMP threads
run 100 pre no post no
Step CPU Atoms biomass 
    3101            0    10280  3.15082e-11 
    3110 0.0050320625    10280  3.15082e-11 
    3120  0.010524035    10280  3.15082e-11 
    3130  0.020953894    10280  3.15082e-11 
    3140  0.032883883    10280  3.15082e-11 
    3150  0.038328886    10280  3.15082e-11 
    3160  0.044041872    10280  3.15082e-11 
    3170  0.057543039    10280  3.15082e-11 
    3180  0.066349983    10280  3.15082e-11 
    3190  0.071810961    10280  3.15082e-11 
ssurf = 5.954107e-04 
    3200  0.080924034    10280  3.15082e-11 
    3201  0.083136082    10280  3.15082e-11 
Loop time of 0.0832031 on 1 procs for 100 steps with 10280 atoms

101.0% CPU use with 1 MPI tasks x no OpenMP threads
run 100 pre no post no
Step CPU Atoms biomass 
    3201            0    10280  3.15082e-11 
    3210 0.0084049702    10280  3.15082e-11 
    3220  0.022125006    10280  3.15082e-11 
    3230  0.027724981    10280  3.15082e-11 
    3240  0.033259869    10280  3.15082e-11 
    3250   0.03896904    10280  3.15082e-11 
    3260  0.051956892    10280  3.15082e-11 
    3270  0.061041832    10280  3.15082e-11 
    3280  0.066489935    10280  3.15082e-11 
    3290  0.075141907    10280  3.15082e-11 
ssurf = 5.954107e-04 
    3300   0.08897686    10280  3.15082e-11 
    3301  0.089536905    10280  3.15082e-11 
Loop time of 0.0895729 on 1 procs for 100 steps with 10280 atoms

98.2% CPU use with 1 MPI tasks x no OpenMP threads
run 100 pre no post no
Step CPU Atoms biomass 
    3301            0    10280  3.15082e-11 
    3310 0.0088448524    10280  3.15082e-11 
    3320  0.022492886    10280  3.15082e-11 
    3330  0.028059959    10280  3.15082e-11 
    3340  0.033674955    10280  3.15082e-11 
    3350  0.039470911    10280  3.15082e-11 
    3360  0.053027868    10280  3.15082e-11 
    3370  0.061826944    10280  3.15082e-11 
    3380  0.067348957    10280  3.15082e-11 
    3390  0.076158047    10280  3.15082e-11 
ssurf = 5.954107e-04 
    3400  0.090055943    10280  3.15082e-11 
    3401  0.090664864    10280  3.15082e-11 
Loop time of 0.090699 on 1 procs for 100 steps with 10280 atoms

97.0% CPU use with 1 MPI tasks x no OpenMP threads
run 100 pre no post no
Step CPU Atoms biomass 
    3401            0    10280  3.15082e-11 
    3410 0.0054109097    10280  3.15082e-11 
    3420  0.018446922    10280  3.15082e-11 
    3430  0.028239012    10280  3.15082e-11 
    3440   0.03384614    10280  3.15082e-11 
    3450  0.042702913    10280  3.15082e-11 
    3460  0.056880951    10280  3.15082e-11 
    3470  0.062459946    10280  3.15082e-11 
    3480  0.068361044    10280  3.15082e-11 
    3490  0.082193136    10280  3.15082e-11 
ssurf = 5.954107e-04 
    3500  0.090379953    10280  3.15082e-11 
    3501  0.090939999    10280  3.15082e-11 
Loop time of 0.0909731 on 1 procs for 100 steps with 10280 atoms

101.1% CPU use with 1 MPI tasks x no OpenMP threads
run 100 pre no post no
Step CPU Atoms biomass 
    3501            0    10280  3.15082e-11 
    3510 0.0093650818    10280  3.15082e-11 
    3520  0.022424936    10280  3.15082e-11 
    3530  0.027873039    10280  3.15082e-11 
    3540  0.033298016    10280  3.15082e-11 
    3550  0.039195061    10280  3.15082e-11 
    3560  0.052880049    10280  3.15082e-11 
    3570  0.061074972    10280  3.15082e-11 
    3580  0.066591024    10280  3.15082e-11 
    3590  0.076208115    10280  3.15082e-11 
ssurf = 5.954107e-04 
    3600  0.089039087    10280  3.15082e-11 
    3601   0.08960104    10280  3.15082e-11 
Loop time of 0.0896311 on 1 procs for 100 steps with 10280 atoms

98.2% CPU use with 1 MPI tasks x no OpenMP threads
run 100 pre no post no
Step CPU Atoms biomass 
    3601            0    10280  3.15082e-11 
    3610  0.005136013    10280  3.15082e-11 
    3620  0.016170979    10280  3.15082e-11 
    3630  0.028252125    10280  3.15082e-11 
    3640  0.033971071    10280  3.15082e-11 
    3650    0.0427351    10280  3.15082e-11 
    3660  0.057115078    10280  3.15082e-11 
    3670  0.062864065    10280  3.15082e-11 
    3680  0.069483995    10280  3.15082e-11 
    3690  0.084470034    10280  3.15082e-11 
ssurf = 5.954107e-04 
    3700  0.091265917    10280  3.15082e-11 
    3701   0.09186101    10280  3.15082e-11 
Loop time of 0.091918 on 1 procs for 100 steps with 10280 atoms

100.1% CPU use with 1 MPI tasks x no OpenMP threads
run 100 pre no post no
Step CPU Atoms biomass 
    3701            0    10280  3.15082e-11 
    3710 0.0050318241    10280  3.15082e-11 
    3720     0.010674    10280  3.15082e-11 
    3730  0.023949862    10280  3.15082e-11 
    3740  0.033035994    10280  3.15082e-11 
    3750  0.038497925    10280  3.15082e-11 
    3760  0.046796799    10280  3.15082e-11 
    3770    0.0610888    10280  3.15082e-11 
    3780  0.066574812    10280  3.15082e-11 
    3790  0.072139025    10280  3.15082e-11 
ssurf = 5.954107e-04 
    3800  0.082017899    10280  3.15082e-11 
    3801  0.083741903    10280  3.15082e-11 
Loop time of 0.0838358 on 1 procs for 100 steps with 10280 atoms

100.2% CPU use with 1 MPI tasks x no OpenMP threads
run 100 pre no post no
Step CPU Atoms biomass 
    3801            0    10280  3.15082e-11 
    3810  0.010089159    10280  3.15082e-11 
    3820  0.022595167    10280  3.15082e-11 
    3830   0.02811718    10280  3.15082e-11 
    3840  0.033709049    10280  3.15082e-11 
    3850  0.040421009    10280  3.15082e-11 
    3860  0.052278042    10280  3.15082e-11 
    3870  0.061114073    10280  3.15082e-11 
    3880   0.06669116    10280  3.15082e-11 
    3890   0.07530117    10280  3.15082e-11 
ssurf = 5.954107e-04 
    3900   0.08893919    10280  3.15082e-11 
    3901  0.089560986    10280  3.15082e-11 
Loop time of 0.0895932 on 1 procs for 100 steps with 10280 atoms

98.2% CPU use with 1 MPI tasks x no OpenMP threads
run 100 pre no post no
Step CPU Atoms biomass 
    3901            0    10280  3.15082e-11 
    3910 0.0050778389    10280  3.15082e-11 
    3920  0.012033939    10280  3.15082e-11 
    3930  0.027111053    10280  3.15082e-11 
    3940  0.033378839    10280  3.15082e-11 
    3950  0.039008856    10280  3.15082e-11 
    3960  0.050276041    10280  3.15082e-11 
    3970  0.061064959    10280  3.15082e-11 
    3980  0.066632032    10280  3.15082e-11 
    3990  0.074481964    10280  3.15082e-11 
ssurf = 5.954107e-04 
    4000  0.089114904    10280  3.15082e-11 
    4001  0.089691877    10280  3.15082e-11 
Loop time of 0.0897229 on 1 procs for 100 steps with 10280 atoms

102.5% CPU use with 1 MPI tasks x no OpenMP threads
run 100 pre no post no
Step CPU Atoms biomass 
    4001            0    10280  3.15082e-11 
    4010 0.0080690384    10280  3.15082e-11 
    4020  0.022027016    10280  3.15082e-11 
    4030  0.027451038    10280  3.15082e-11 
    4040  0.032886028    10280  3.15082e-11 
    4050   0.03847909    10280  3.15082e-11 
    4060  0.049282074    10280  3.15082e-11 
    4070  0.060971975    10280  3.15082e-11 
    4080  0.066553116    10280  3.15082e-11 
    4090  0.074659109    10280  3.15082e-11 
ssurf = 5.954107e-04 
    4100      0.08901    10280  3.15082e-11 
    4101  0.089633942    10280  3.15082e-11 
Loop time of 0.089669 on 1 procs for 100 steps with 10280 atoms

98.1% CPU use with 1 MPI tasks x no OpenMP threads
run 100 pre no post no
Step CPU Atoms biomass 
    4101            0    10280  3.15082e-11 
    4110 0.0057678223    10280  3.15082e-11 
    4120  0.020268917    10280  3.15082e-11 
    4130  0.028530836    10280  3.15082e-11 
    4140  0.034259796    10280  3.15082e-11 
    4150  0.043838978    10280  3.15082e-11 
    4160    0.0571208    10280  3.15082e-11 
    4170  0.062831879    10280  3.15082e-11 
    4180  0.069830894    10280  3.15082e-11 
    4190  0.084682941    10280  3.15082e-11 
ssurf = 5.954107e-04 
    4200  0.091346979    10280  3.15082e-11 
    4201  0.091959953    10280  3.15082e-11 
Loop time of 0.0919909 on 1 procs for 100 steps with 10280 atoms

100.0% CPU use with 1 MPI tasks x no OpenMP threads
run 100 pre no post no
Step CPU Atoms biomass 
    4201            0    10280  3.15082e-11 
    4210  0.008327961    10280  3.15082e-11 
    4220  0.022172928    10280  3.15082e-11 
    4230  0.028103828    10280  3.15082e-11 
    4240  0.033790827    10280  3.15082e-11 
    4250  0.040124893    10280  3.15082e-11 
    4260  0.054620028    10280  3.15082e-11 
    4270  0.062280893    10280  3.15082e-11 
    4280  0.068049908    10280  3.15082e-11 
    4290  0.078073978    10280  3.15082e-11 
ssurf = 5.954107e-04 
    4300  0.090477943    10280  3.15082e-11 
    4301  0.091074944    10280  3.15082e-11 
Loop time of 0.09111 on 1 procs for 100 steps with 10280 atoms

101.0% CPU use with 1 MPI tasks x no OpenMP threads
run 100 pre no post no
Step CPU Atoms biomass 
    4301            0    10280  3.15082e-11 
    4310  0.012638092    10280  3.15082e-11 
    4320  0.023468018    10280  3.15082e-11 
    4330  0.034711123    10280  3.15082e-11 
    4340  0.048875093    10280  3.15082e-11 
    4350  0.058199167    10280  3.15082e-11 
    4360   0.07131815    10280  3.15082e-11 
    4370   0.08278513    10280  3.15082e-11 
    4380  0.093197107    10280  3.15082e-11 
    4390   0.10813308    10280  3.15082e-11 
ssurf = 5.954107e-04 
    4400   0.11665201    10280  3.15082e-11 
    4401   0.11755514    10280  3.15082e-11 
Loop time of 0.117601 on 1 procs for 100 steps with 10280 atoms

98.6% CPU use with 1 MPI tasks x no OpenMP threads
run 100 pre no post no
Step CPU Atoms biomass 
    4401            0    10280  3.15082e-11 
    4410  0.010137081    10280  3.15082e-11 
    4420  0.018823862    10280  3.15082e-11 
    4430  0.031081915    10280  3.15082e-11 
    4440  0.043447018    10280  3.15082e-11 
    4450  0.053567886    10280  3.15082e-11 
    4460  0.068466902    10280  3.15082e-11 
    4470  0.078182936    10280  3.15082e-11 
    4480  0.091181993    10280  3.15082e-11 
    4490     0.103755    10280  3.15082e-11 
ssurf = 5.954107e-04 
    4500   0.11255002    10280  3.15082e-11 
    4501   0.11374903    10280  3.15082e-11 
Loop time of 0.113846 on 1 procs for 100 steps with 10280 atoms

101.9% CPU use with 1 MPI tasks x no OpenMP threads
run 100 pre no post no
Step CPU Atoms biomass 
    4501            0    10280  3.15082e-11 
    4510  0.012372971    10280  3.15082e-11 
    4520  0.020962954    10280  3.15082e-11 
    4530  0.027173996    10280  3.15082e-11 
    4540  0.034702063    10280  3.15082e-11 
    4550  0.049911976    10280  3.15082e-11 
    4560  0.056158066    10280  3.15082e-11 
    4570  0.062468052    10280  3.15082e-11 
    4580  0.076204062    10280  3.15082e-11 
    4590  0.085535049    10280  3.15082e-11 
ssurf = 5.954107e-04 
    4600  0.092061043    10280  3.15082e-11 
    4601   0.09307313    10280  3.15082e-11 
Loop time of 0.0931211 on 1 procs for 100 steps with 10280 atoms

98.8% CPU use with 1 MPI tasks x no OpenMP threads
run 100 pre no post no
Step CPU Atoms biomass 
    4601            0    10280  3.15082e-11 
    4610 0.0057117939    10280  3.15082e-11 
    4620  0.013336897    10280  3.15082e-11 
    4630  0.025105953    10280  3.15082e-11 
    4640  0.034359932    10280  3.15082e-11 
    4650  0.040984869    10280  3.15082e-11 
    4660   0.05162096    10280  3.15082e-11 
    4670   0.06316185    10280  3.15082e-11 
    4680     0.069417    10280  3.15082e-11 
    4690  0.079613924    10280  3.15082e-11 
ssurf = 5.954107e-04 
    4700  0.093243837    10280  3.15082e-11 
    4701  0.093913794    10280  3.15082e-11 
Loop time of 0.0939498 on 1 procs for 100 steps with 10280 atoms

102.2% CPU use with 1 MPI tasks x no OpenMP threads
run 100 pre no post no
Step CPU Atoms biomass 
    4701            0    10280  3.15082e-11 
    4710 0.0053730011    10280  3.15082e-11 
    4720  0.011616945    10280  3.15082e-11 
    4730  0.025155067    10280  3.15082e-11 
    4740  0.034381151    10280  3.15082e-11 
    4750  0.040092945    10280  3.15082e-11 
    4760  0.050876141    10280  3.15082e-11 
    4770  0.062886953    10280  3.15082e-11 
    4780  0.068576097    10280  3.15082e-11 
    4790  0.076130152    10280  3.15082e-11 
ssurf = 5.954107e-04 
    4800  0.091594934    10280  3.15082e-11 
    4801  0.092201948    10280  3.15082e-11 
Loop time of 0.092237 on 1 procs for 100 steps with 10280 atoms

99.7% CPU use with 1 MPI tasks x no OpenMP threads
run 100 pre no post no
Step CPU Atoms biomass 
    4801            0    10280  3.15082e-11 
    4810 0.0094189644    10280  3.15082e-11 
    4820  0.022646904    10280  3.15082e-11 
    4830  0.028323889    10280  3.15082e-11 
    4840  0.034035921    10280  3.15082e-11 
    4850  0.040611982    10280  3.15082e-11 
    4860  0.055174828    10280  3.15082e-11 
    4870  0.062440872    10280  3.15082e-11 
    4880  0.068194866    10280  3.15082e-11 
    4890  0.080163002    10280  3.15082e-11 
ssurf = 5.954107e-04 
    4900  0.091023922    10280  3.15082e-11 
    4901  0.091619968    10280  3.15082e-11 
Loop time of 0.091655 on 1 procs for 100 steps with 10280 atoms

100.4% CPU use with 1 MPI tasks x no OpenMP threads
run 100 pre no post no
Step CPU Atoms biomass 
    4901            0    10280  3.15082e-11 
    4910 0.0052349567    10280  3.15082e-11 
    4920  0.013479948    10280  3.15082e-11 
    4930  0.026726961    10280  3.15082e-11 
    4940  0.032568932    10280  3.15082e-11 
    4950  0.038722992    10280  3.15082e-11 
    4960  0.054823875    10280  3.15082e-11 
    4970  0.068881989    10280  3.15082e-11 
    4980  0.081725836    10280  3.15082e-11 
    4990  0.090322971    10280  3.15082e-11 
ssurf = 5.954107e-04 
    5000  0.095983982    10280  3.15082e-11 
    5001  0.096559048    10280  3.15082e-11 
Loop time of 0.0965919 on 1 procs for 100 steps with 10280 atoms

99.4% CPU use with 1 MPI tasks x no OpenMP threads
run 100 pre no post no
Step CPU Atoms biomass 
    5001            0    10280  3.15082e-11 
    5010 0.0052781105    10280  3.15082e-11 
    5020   0.01402092    10280  3.15082e-11 
    5030  0.028027058    10280  3.15082e-11 
    5040  0.033510923    10280  3.15082e-11 
    5050  0.039282084    10280  3.15082e-11 
    5060  0.053780079    10280  3.15082e-11 
    5070  0.061769962    10280  3.15082e-11 
    5080  0.067291975    10280  3.15082e-11 
    5090  0.078539133    10280  3.15082e-11 
ssurf = 5.954107e-04 
    5100  0.089690924    10280  3.15082e-11 
    5101  0.090263128    10280  3.15082e-11 
Loop time of 0.0902941 on 1 procs for 100 steps with 10280 atoms

101.9% CPU use with 1 MPI tasks x no OpenMP threads
run 100 pre no post no
Step CPU Atoms biomass 
    5101            0    10280  3.15082e-11 
    5110 0.0050671101    10280  3.15082e-11 
    5120  0.011399984    10280  3.15082e-11 
    5130  0.025417089    10280  3.15082e-11 
    5140  0.033030987    10280  3.15082e-11 
    5150  0.038512945    10280  3.15082e-11 
    5160  0.049485922    10280  3.15082e-11 
    5170  0.061404943    10280  3.15082e-11 
    5180  0.073405027    10280  3.15082e-11 
    5190    0.0880301    10280  3.15082e-11 
ssurf = 5.954107e-04 
    5200  0.097303152    10280  3.15082e-11 
    5201  0.097927094    10280  3.15082e-11 
Loop time of 0.0979571 on 1 procs for 100 steps with 10280 atoms

98.0% CPU use with 1 MPI tasks x no OpenMP threads
run 100 pre no post no
Step CPU Atoms biomass 
    5201            0    10280  3.15082e-11 
    5210 0.0054860115    10280  3.15082e-11 
    5220   0.01718998    10280  3.15082e-11 
    5230  0.028539896    10280  3.15082e-11 
    5240  0.034399986    10280  3.15082e-11 
    5250  0.042902946    10280  3.15082e-11 
    5260   0.05713892    10280  3.15082e-11 
    5270  0.062973976    10280  3.15082e-11 
    5280  0.069509029    10280  3.15082e-11 
    5290  0.081482887    10280  3.15082e-11 
ssurf = 5.954107e-04 
    5300  0.090905905    10280  3.15082e-11 
    5301  0.091565847    10280  3.15082e-11 
Loop time of 0.091604 on 1 procs for 100 steps with 10280 atoms

100.4% CPU use with 1 MPI tasks x no OpenMP threads
run 100 pre no post no
Step CPU Atoms biomass 
    5301            0    10280  3.15082e-11 
    5310 0.0073769093    10280  3.15082e-11 
    5320  0.022584915    10280  3.15082e-11 
    5330  0.028327942    10280  3.15082e-11 
    5340  0.034345865    10280  3.15082e-11 
    5350   0.04795599    10280  3.15082e-11 
    5360  0.056881905    10280  3.15082e-11 
    5370  0.062587976    10280  3.15082e-11 
    5380  0.073725939    10280  3.15082e-11 
    5390  0.085296869    10280  3.15082e-11 
ssurf = 5.954107e-04 
    5400  0.091053009    10280  3.15082e-11 
    5401  0.091681004    10280  3.15082e-11 
Loop time of 0.091722 on 1 procs for 100 steps with 10280 atoms

100.3% CPU use with 1 MPI tasks x no OpenMP threads
run 100 pre no post no
Step CPU Atoms biomass 
    5401            0    10280  3.15082e-11 
    5410  0.011058807    10280  3.15082e-11 
    5420  0.023825884    10280  3.15082e-11 
    5430  0.029315948    10280  3.15082e-11 
    5440  0.034763813    10280  3.15082e-11 
    5450  0.040834904    10280  3.15082e-11 
    5460  0.055863857    10280  3.15082e-11 
    5470  0.062886953    10280  3.15082e-11 
    5480  0.068549871    10280  3.15082e-11 
    5490  0.080320835    10280  3.15082e-11 
ssurf = 5.954107e-04 
    5500  0.091189861    10280  3.15082e-11 
    5501  0.091751814    10280  3.15082e-11 
Loop time of 0.091784 on 1 procs for 100 steps with 10280 atoms

100.2% CPU use with 1 MPI tasks x no OpenMP threads
run 100 pre no post no
Step CPU Atoms biomass 
    5501            0    10280  3.15082e-11 
    5510 0.0051372051    10280  3.15082e-11 
    5520  0.011898994    10280  3.15082e-11 
    5530  0.027041197    10280  3.15082e-11 
    5540  0.033173084    10280  3.15082e-11 
    5550  0.038640022    10280  3.15082e-11 
    5560  0.047305107    10280  3.15082e-11 
    5570  0.060904026    10280  3.15082e-11 
    5580  0.066451073    10280  3.15082e-11 
    5590  0.072898149    10280  3.15082e-11 
ssurf = 5.954107e-04 
    5600  0.087397099    10280  3.15082e-11 
    5601  0.089523077    10280  3.15082e-11 
Loop time of 0.089556 on 1 procs for 100 steps with 10280 atoms

98.3% CPU use with 1 MPI tasks x no OpenMP threads
run 100 pre no post no
Step CPU Atoms biomass 
    5601            0    10280  3.15082e-11 
    5610 0.0052931309    10280  3.15082e-11 
    5620  0.013017178    10280  3.15082e-11 
    5630  0.024420023    10280  3.15082e-11 
    5640  0.033702135    10280  3.15082e-11 
    5650  0.039633036    10280  3.15082e-11 
    5660  0.049158096    10280  3.15082e-11 
    5670  0.061854124    10280  3.15082e-11 
    5680  0.067610979    10280  3.15082e-11 
    5690  0.076484203    10280  3.15082e-11 
ssurf = 5.954107e-04 
    5700  0.089626074    10280  3.15082e-11 
    5701  0.090895176    10280  3.15082e-11 
Loop time of 0.090929 on 1 procs for 100 steps with 10280 atoms

101.2% CPU use with 1 MPI tasks x no OpenMP threads
run 100 pre no post no
Step CPU Atoms biomass 
    5701            0    10280  3.15082e-11 
    5710 0.0053489208    10280  3.15082e-11 
    5720  0.013787985    10280  3.15082e-11 
    5730  0.028351068    10280  3.15082e-11 
    5740   0.03414011    10280  3.15082e-11 
    5750  0.040127993    10280  3.15082e-11 
    5760  0.051491022    10280  3.15082e-11 
    5770  0.062205076    10280  3.15082e-11 
    5780  0.067954063    10280  3.15082e-11 
    5790  0.076709986    10280  3.15082e-11 
ssurf = 5.954107e-04 
    5800  0.091006041    10280  3.15082e-11 
    5801  0.092054129    10280  3.15082e-11 
Loop time of 0.0921299 on 1 procs for 100 steps with 10280 atoms

99.9% CPU use with 1 MPI tasks x no OpenMP threads
run 100 pre no post no
Step CPU Atoms biomass 
    5801            0    10280  3.15082e-11 
    5810  0.013746977    10280  3.15082e-11 
    5820  0.022289038    10280  3.15082e-11 
    5830  0.034270048    10280  3.15082e-11 
    5840  0.047659874    10280  3.15082e-11 
    5850  0.056428909    10280  3.15082e-11 
    5860   0.07083106    10280  3.15082e-11 
    5870  0.081428051    10280  3.15082e-11 
    5880  0.092123985    10280  3.15082e-11 
    5890   0.10681891    10280  3.15082e-11 
ssurf = 5.954107e-04 
    5900   0.11531687    10280  3.15082e-11 
    5901   0.11623001    10280  3.15082e-11 
Loop time of 0.116276 on 1 procs for 100 steps with 10280 atoms

99.8% CPU use with 1 MPI tasks x no OpenMP threads
run 100 pre no post no
Step CPU Atoms biomass 
    5901            0    10280  3.15082e-11 
    5910  0.011816978    10280  3.15082e-11 
    5920  0.022265911    10280  3.15082e-11 
    5930  0.033499956    10280  3.15082e-11 
    5940  0.048497915    10280  3.15082e-11 
    5950  0.057353973    10280  3.15082e-11 
    5960  0.071705103    10280  3.15082e-11 
    5970  0.082154036    10280  3.15082e-11 
    5980  0.092947006    10280  3.15082e-11 
    5990   0.10769796    10280  3.15082e-11 
ssurf = 5.954107e-04 
    6000   0.11623693    10280  3.15082e-11 
    6001    0.1171329    10280  3.15082e-11 
Loop time of 0.117185 on 1 procs for 100 steps with 10280 atoms

99.0% CPU use with 1 MPI tasks x no OpenMP threads
run 100 pre no post no
Step CPU Atoms biomass 
    6001            0    10280  3.15082e-11 
    6010 0.0058050156    10280  3.15082e-11 
    6020  0.016541958    10280  3.15082e-11 
    6030  0.028800011    10280  3.15082e-11 
    6040  0.035102844    10280  3.15082e-11 
    6050  0.044592857    10280  3.15082e-11 
    6060  0.058295965    10280  3.15082e-11 
    6070  0.064502954    10280  3.15082e-11 
    6080  0.072918892    10280  3.15082e-11 
    6090  0.087504864    10280  3.15082e-11 
ssurf = 5.954107e-04 
    6100  0.093817949    10280  3.15082e-11 
    6101  0.094483852    10280  3.15082e-11 
Loop time of 0.094522 on 1 procs for 100 steps with 10280 atoms

101.6% CPU use with 1 MPI tasks x no OpenMP threads
run 100 pre no post no
Step CPU Atoms biomass 
    6101            0    10280  3.15082e-11 
    6110 0.0056359768    10280  3.15082e-11 
    6120  0.012219906    10280  3.15082e-11 
    6130  0.025791883    10280  3.15082e-11 
    6140  0.035053015    10280  3.15082e-11 
    6150  0.041405916    10280  3.15082e-11 
    6160  0.054393053    10280  3.15082e-11 
    6170   0.06477499    10280  3.15082e-11 
    6180   0.07111907    10280  3.15082e-11 
    6190  0.083199024    10280  3.15082e-11 
ssurf = 5.954107e-04 
    6200  0.094176054    10280  3.15082e-11 
    6201  0.094816923    10280  3.15082e-11 
Loop time of 0.0948529 on 1 procs for 100 steps with 10280 atoms

97.0% CPU use with 1 MPI tasks x no OpenMP threads
run 100 pre no post no
Step CPU Atoms biomass 
    6201            0    10280  3.15082e-11 
    6210 0.0053730011    10280  3.15082e-11 
    6220  0.011615038    10280  3.15082e-11 
    6230  0.025672913    10280  3.15082e-11 
    6240   0.03448081    10280  3.15082e-11 
    6250  0.040473938    10280  3.15082e-11 
    6260  0.053493977    10280  3.15082e-11 
    6270  0.063747883    10280  3.15082e-11 
    6280  0.069638968    10280  3.15082e-11 
    6290  0.081220865    10280  3.15082e-11 
ssurf = 5.954107e-04 
    6300  0.092989922    10280  3.15082e-11 
    6301  0.093632936    10280  3.15082e-11 
Loop time of 0.0936799 on 1 procs for 100 steps with 10280 atoms

98.2% CPU use with 1 MPI tasks x no OpenMP threads
run 100 pre no post no
Step CPU Atoms biomass 
    6301            0    10280  3.15082e-11 
    6310 0.0053160191    10280  3.15082e-11 
    6320  0.011430979    10280  3.15082e-11 
    6330  0.025054932    10280  3.15082e-11 
    6340  0.034031868    10280  3.15082e-11 
    6350  0.039784908    10280  3.15082e-11 
    6360  0.050379038    10280  3.15082e-11 
    6370  0.062438965    10280  3.15082e-11 
    6380  0.068188906    10280  3.15082e-11 
    6390  0.076390028    10280  3.15082e-11 
ssurf = 5.954107e-04 
    6400  0.090899944    10280  3.15082e-11 
    6401  0.091518879    10280  3.15082e-11 
Loop time of 0.0915511 on 1 procs for 100 steps with 10280 atoms

100.5% CPU use with 1 MPI tasks x no OpenMP threads
run 100 pre no post no
Step CPU Atoms biomass 
    6401            0    10280  3.15082e-11 
    6410 0.0094678402    10280  3.15082e-11 
    6420  0.023583889    10280  3.15082e-11 
    6430  0.029064894    10280  3.15082e-11 
    6440  0.034631968    10280  3.15082e-11 
    6450  0.040226936    10280  3.15082e-11 
    6460  0.051738024    10280  3.15082e-11 
    6470  0.062792063    10280  3.15082e-11 
    6480  0.068395853    10280  3.15082e-11 
    6490  0.076632977    10280  3.15082e-11 
ssurf = 5.954107e-04 
    6500  0.090983868    10280  3.15082e-11 
    6501  0.091589928    10280  3.15082e-11 
Loop time of 0.0916231 on 1 procs for 100 steps with 10280 atoms

100.4% CPU use with 1 MPI tasks x no OpenMP threads
run 100 pre no post no
Step CPU Atoms biomass 
    6501            0    10280  3.15082e-11 
    6510 0.0092818737    10280  3.15082e-11 
    6520  0.022938967    10280  3.15082e-11 
    6530  0.028384924    10280  3.15082e-11 
    6540  0.033876896    10280  3.15082e-11 
    6550  0.040910959    10280  3.15082e-11 
    6560  0.055213928    10280  3.15082e-11 
    6570  0.062247038    10280  3.15082e-11 
    6580  0.067687035    10280  3.15082e-11 
    6590  0.076741934    10280  3.15082e-11 
ssurf = 5.954107e-04 
    6600  0.090093851    10280  3.15082e-11 
    6601  0.090656996    10280  3.15082e-11 
Loop time of 0.0906899 on 1 procs for 100 steps with 10280 atoms

101.4% CPU use with 1 MPI tasks x no OpenMP threads
run 100 pre no post no
Step CPU Atoms biomass 
    6601            0    10280  3.15082e-11 
    6610 0.0053508282    10280  3.15082e-11 
    6620  0.017675877    10280  3.15082e-11 
    6630  0.028563023    10280  3.15082e-11 
    6640  0.034314871    10280  3.15082e-11 
    6650  0.043946028    10280  3.15082e-11 
    6660  0.057265043    10280  3.15082e-11 
    6670  0.062947035    10280  3.15082e-11 
    6680  0.070246935    10280  3.15082e-11 
    6690  0.084429979    10280  3.15082e-11 
ssurf = 5.954107e-04 
    6700  0.091629982    10280  3.15082e-11 
    6701  0.092257977    10280  3.15082e-11 
Loop time of 0.0922909 on 1 procs for 100 steps with 10280 atoms

99.7% CPU use with 1 MPI tasks x no OpenMP threads
run 100 pre no post no
Step CPU Atoms biomass 
    6701            0    10280  3.15082e-11 
    6710  0.011651993    10280  3.15082e-11 
    6720  0.022345066    10280  3.15082e-11 
    6730  0.028222084    10280  3.15082e-11 
    6740   0.03666997    10280  3.15082e-11 
    6750   0.05100894    10280  3.15082e-11 
    6760   0.05704999    10280  3.15082e-11 
    6770  0.063110113    10280  3.15082e-11 
    6780  0.077521086    10280  3.15082e-11 
    6790  0.085604906    10280  3.15082e-11 
ssurf = 5.954107e-04 
    6800  0.091393948    10280  3.15082e-11 
    6801  0.092020988    10280  3.15082e-11 
Loop time of 0.092056 on 1 procs for 100 steps with 10280 atoms

99.9% CPU use with 1 MPI tasks x no OpenMP threads
run 100 pre no post no
Step CPU Atoms biomass 
    6801            0    10280  3.15082e-11 
    6810 0.0087640285    10280  3.15082e-11 
    6820  0.017279863    10280  3.15082e-11 
    6830  0.030599833    10280  3.15082e-11 
    6840  0.042860031    10280  3.15082e-11 
    6850   0.05169487    10280  3.15082e-11 
    6860   0.06641984    10280  3.15082e-11 
    6870  0.076489925    10280  3.15082e-11 
    6880  0.087532997    10280  3.15082e-11 
    6890   0.10160804    10280  3.15082e-11 
ssurf = 5.954107e-04 
    6900   0.11022592    10280  3.15082e-11 
    6901   0.11120582    10280  3.15082e-11 
Loop time of 0.111259 on 1 procs for 100 steps with 10280 atoms

100.7% CPU use with 1 MPI tasks x no OpenMP threads
run 100 pre no post no
Step CPU Atoms biomass 
    6901            0    10280  3.15082e-11 
    6910  0.012042046    10280  3.15082e-11 
    6920  0.020498991    10280  3.15082e-11 
    6930  0.032891035    10280  3.15082e-11 
    6940   0.04645896    10280  3.15082e-11 
    6950  0.054960966    10280  3.15082e-11 
    6960  0.068959951    10280  3.15082e-11 
    6970  0.080398083    10280  3.15082e-11 
    6980  0.091269016    10280  3.15082e-11 
    6990   0.10652709    10280  3.15082e-11 
ssurf = 5.954107e-04 
    7000   0.11513209    10280  3.15082e-11 
    7001   0.11644602    10280  3.15082e-11 
Loop time of 0.116504 on 1 procs for 100 steps with 10280 atoms

99.6% CPU use with 1 MPI tasks x no OpenMP threads
run 100 pre no post no
Step CPU Atoms biomass 
    7001            0    10280  3.15082e-11 
    7010  0.011508942    10280  3.15082e-11 
    7020  0.020469904    10280  3.15082e-11 
    7030  0.026708841    10280  3.15082e-11 
    7040  0.035881996    10280  3.15082e-11 
    7050  0.048857927    10280  3.15082e-11 
    7060  0.056103945    10280  3.15082e-11 
    7070  0.064574003    10280  3.15082e-11 
    7080  0.076617002    10280  3.15082e-11 
    7090  0.085464001    10280  3.15082e-11 
ssurf = 5.954107e-04 
    7100  0.092809916    10280  3.15082e-11 
    7101  0.094244957    10280  3.15082e-11 
Loop time of 0.0942888 on 1 procs for 100 steps with 10280 atoms

97.6% CPU use with 1 MPI tasks x no OpenMP threads
run 100 pre no post no
Step CPU Atoms biomass 
    7101            0    10280  3.15082e-11 
    7110  0.011719942    10280  3.15082e-11 
    7120  0.021264076    10280  3.15082e-11 
    7130  0.027642012    10280  3.15082e-11 
    7140  0.035927057    10280  3.15082e-11 
    7150  0.047883034    10280  3.15082e-11 
    7160  0.056755066    10280  3.15082e-11 
    7170  0.063870907    10280  3.15082e-11 
    7180  0.076262951    10280  3.15082e-11 
    7190  0.086070061    10280  3.15082e-11 
ssurf = 5.954107e-04 
    7200  0.092947006    10280  3.15082e-11 
    7201  0.093708038    10280  3.15082e-11 
Loop time of 0.0937479 on 1 procs for 100 steps with 10280 atoms

98.1% CPU use with 1 MPI tasks x no OpenMP threads
run 100 pre no post no
Step CPU Atoms biomass 
    7201            0    10280  3.15082e-11 
    7210 0.0056958199    10280  3.15082e-11 
    7220  0.022186995    10280  3.15082e-11 
    7230  0.035840988    10280  3.15082e-11 
    7240  0.041575909    10280  3.15082e-11 
    7250  0.054000854    10280  3.15082e-11 
    7260  0.064874887    10280  3.15082e-11 
    7270  0.070618868    10280  3.15082e-11 
    7280  0.080775976    10280  3.15082e-11 
    7290  0.093711853    10280  3.15082e-11 
ssurf = 5.954107e-04 
    7300  0.099465847    10280  3.15082e-11 
    7301   0.10007787    10280  3.15082e-11 
Loop time of 0.100114 on 1 procs for 100 steps with 10280 atoms

99.9% CPU use with 1 MPI tasks x no OpenMP threads
run 100 pre no post no
Step CPU Atoms biomass 
    7301            0    10280  3.15082e-11 
    7310 0.0052549839    10280  3.15082e-11 
    7320   0.01222086    10280  3.15082e-11 
    7330  0.026490927    10280  3.15082e-11 
    7340  0.033548832    10280  3.15082e-11 
    7350  0.039578915    10280  3.15082e-11 
    7360  0.052259922    10280  3.15082e-11 
    7370  0.062171936    10280  3.15082e-11 
    7380  0.067888975    10280  3.15082e-11 
    7390  0.076846838    10280  3.15082e-11 
ssurf = 5.954107e-04 
    7400  0.090564966    10280  3.15082e-11 
    7401  0.091180801    10280  3.15082e-11 
Loop time of 0.0912108 on 1 procs for 100 steps with 10280 atoms

96.5% CPU use with 1 MPI tasks x no OpenMP threads
run 100 pre no post no
Step CPU Atoms biomass 
    7401            0    10280  3.15082e-11 
    7410 0.0059361458    10280  3.15082e-11 
    7420  0.019691229    10280  3.15082e-11 
    7430  0.028677225    10280  3.15082e-11 
    7440   0.03503108    10280  3.15082e-11 
    7450  0.046855211    10280  3.15082e-11 
    7460  0.057795048    10280  3.15082e-11 
    7470  0.064014196    10280  3.15082e-11 
    7480   0.07548213    10280  3.15082e-11 
    7490   0.08693409    10280  3.15082e-11 
ssurf = 5.954107e-04 
    7500  0.093155146    10280  3.15082e-11 
    7501  0.093822002    10280  3.15082e-11 
Loop time of 0.0938551 on 1 procs for 100 steps with 10280 atoms

98.0% CPU use with 1 MPI tasks x no OpenMP threads
run 100 pre no post no
Step CPU Atoms biomass 
    7501            0    10280  3.15082e-11 
    7510 0.0091230869    10280  3.15082e-11 
    7520  0.023214102    10280  3.15082e-11 
    7530  0.029588938    10280  3.15082e-11 
    7540  0.037384033    10280  3.15082e-11 
    7550  0.052607059    10280  3.15082e-11 
    7560  0.059185982    10280  3.15082e-11 
    7570  0.067106009    10280  3.15082e-11 
    7580  0.082591057    10280  3.15082e-11 
    7590  0.089059114    10280  3.15082e-11 
ssurf = 5.954107e-04 
    7600  0.095622063    10280  3.15082e-11 
    7601  0.097214937    10280  3.15082e-11 
Loop time of 0.0972831 on 1 procs for 100 steps with 10280 atoms

98.7% CPU use with 1 MPI tasks x no OpenMP threads
run 100 pre no post no
Step CPU Atoms biomass 
    7601            0    10280  3.15082e-11 
    7610  0.013756037    10280  3.15082e-11 
    7620  0.022171974    10280  3.15082e-11 
    7630  0.028025866    10280  3.15082e-11 
    7640  0.033957958    10280  3.15082e-11 
    7650  0.045546055    10280  3.15082e-11 
    7660  0.055826902    10280  3.15082e-11 
    7670  0.061665058    10280  3.15082e-11 
    7680  0.071158886    10280  3.15082e-11 
    7690   0.08465004    10280  3.15082e-11 
ssurf = 5.954107e-04 
    7700  0.090564966    10280  3.15082e-11 
    7701  0.091167927    10280  3.15082e-11 
Loop time of 0.0911989 on 1 procs for 100 steps with 10280 atoms

96.5% CPU use with 1 MPI tasks x no OpenMP threads
run 100 pre no post no
Step CPU Atoms biomass 
    7701            0    10280  3.15082e-11 
    7710  0.010455132    10280  3.15082e-11 
    7720  0.022752047    10280  3.15082e-11 
    7730  0.028577089    10280  3.15082e-11 
    7740  0.034497023    10280  3.15082e-11 
    7750   0.04263711    10280  3.15082e-11 
    7760  0.057599068    10280  3.15082e-11 
    7770  0.063470125    10280  3.15082e-11 
    7780  0.069602966    10280  3.15082e-11 
    7790  0.083704948    10280  3.15082e-11 
ssurf = 5.954107e-04 
    7800  0.092242956    10280  3.15082e-11 
    7801   0.09288311    10280  3.15082e-11 
Loop time of 0.0929201 on 1 procs for 100 steps with 10280 atoms

99.0% CPU use with 1 MPI tasks x no OpenMP threads
run 100 pre no post no
Step CPU Atoms biomass 
    7801            0    10280  3.15082e-11 
    7810 0.0057270527    10280  3.15082e-11 
    7820  0.012439013    10280  3.15082e-11 
    7830  0.025547981    10280  3.15082e-11 
    7840  0.035741091    10280  3.15082e-11 
    7850  0.042025089    10280  3.15082e-11 
    7860   0.05162406    10280  3.15082e-11 
    7870  0.064798117    10280  3.15082e-11 
    7880   0.07100606    10280  3.15082e-11 
    7890  0.080914974    10280  3.15082e-11 
ssurf = 5.954107e-04 
    7900  0.094310045    10280  3.15082e-11 
    7901  0.095023155    10280  3.15082e-11 
Loop time of 0.095062 on 1 procs for 100 steps with 10280 atoms

101.0% CPU use with 1 MPI tasks x no OpenMP threads
run 100 pre no post no
Step CPU Atoms biomass 
    7901            0    10280  3.15082e-11 
    7910 0.0075240135    10280  3.15082e-11 
    7920  0.023001909    10280  3.15082e-11 
    7930  0.029500008    10280  3.15082e-11 
    7940  0.035866022    10280  3.15082e-11 
    7950  0.049382925    10280  3.15082e-11 
    7960  0.058868885    10280  3.15082e-11 
    7970  0.065676928    10280  3.15082e-11 
    7980  0.076758862    10280  3.15082e-11 
    7990  0.087568045    10280  3.15082e-11 
ssurf = 5.954107e-04 
    8000  0.093911886    10280  3.15082e-11 
    8001  0.094568014    10280  3.15082e-11 
Loop time of 0.0946009 on 1 procs for 100 steps with 10280 atoms

101.5% CPU use with 1 MPI tasks x no OpenMP threads
run 100 pre no post no
Step CPU Atoms biomass 
    8001            0    10280  3.15082e-11 
    8010 0.0099670887    10280  3.15082e-11 
    8020   0.02197504    10280  3.15082e-11 
    8030  0.038095951    10280  3.15082e-11 
    8040  0.048388958    10280  3.15082e-11 
    8050  0.063420057    10280  3.15082e-11 
    8060   0.07585001    10280  3.15082e-11 
    8070  0.088484049    10280  3.15082e-11 
    8080   0.10286498    10280  3.15082e-11 
    8090    0.1146059    10280  3.15082e-11 
ssurf = 5.954107e-04 
    8100   0.12978411    10280  3.15082e-11 
    8101   0.13090491    10280  3.15082e-11 
Loop time of 0.13096 on 1 procs for 100 steps with 10280 atoms

100.8% CPU use with 1 MPI tasks x no OpenMP threads
run 100 pre no post no
Step CPU Atoms biomass 
    8101            0    10280  3.15082e-11 
    8110  0.009292841    10280  3.15082e-11 
    8120  0.019768953    10280  3.15082e-11 
    8130  0.035048962    10280  3.15082e-11 
    8140  0.046835899    10280  3.15082e-11 
    8150  0.061909914    10280  3.15082e-11 
    8160  0.074874878    10280  3.15082e-11 
    8170  0.088944912    10280  3.15082e-11 
    8180   0.10321498    10280  3.15082e-11 
    8190   0.11532688    10280  3.15082e-11 
ssurf = 5.954107e-04 
    8200   0.13110495    10280  3.15082e-11 
    8201   0.13216782    10280  3.15082e-11 
Loop time of 0.132223 on 1 procs for 100 steps with 10280 atoms

99.8% CPU use with 1 MPI tasks x no OpenMP threads
run 100 pre no post no
Step CPU Atoms biomass 
    8201            0    10280  3.15082e-11 
    8210  0.012554884    10280  3.15082e-11 
    8220  0.021181107    10280  3.15082e-11 
    8230  0.031253099    10280  3.15082e-11 
    8240   0.04539609    10280  3.15082e-11 
    8250   0.05399394    10280  3.15082e-11 
    8260  0.066870928    10280  3.15082e-11 
    8270  0.079284906    10280  3.15082e-11 
    8280  0.089540005    10280  3.15082e-11 
    8290   0.10391498    10280  3.15082e-11 
ssurf = 5.954107e-04 
    8300   0.11384201    10280  3.15082e-11 
    8301   0.11474299    10280  3.15082e-11 
Loop time of 0.114791 on 1 procs for 100 steps with 10280 atoms

97.6% CPU use with 1 MPI tasks x no OpenMP threads
run 100 pre no post no
Step CPU Atoms biomass 
    8301            0    10280  3.15082e-11 
    8310  0.013238192    10280  3.15082e-11 
    8320  0.023238182    10280  3.15082e-11 
    8330  0.034088135    10280  3.15082e-11 
    8340  0.048135996    10280  3.15082e-11 
    8350  0.056509972    10280  3.15082e-11 
    8360  0.069503069    10280  3.15082e-11 
    8370  0.081511021    10280  3.15082e-11 
    8380  0.090589046    10280  3.15082e-11 
    8390   0.10539699    10280  3.15082e-11 
ssurf = 5.954107e-04 
    8400   0.11525106    10280  3.15082e-11 
    8401   0.11616015    10280  3.15082e-11 
Loop time of 0.116205 on 1 procs for 100 steps with 10280 atoms

99.8% CPU use with 1 MPI tasks x no OpenMP threads
run 100 pre no post no
Step CPU Atoms biomass 
    8401            0    10280  3.15082e-11 
    8410 0.0086448193    10280  3.15082e-11 
    8420  0.022189856    10280  3.15082e-11 
    8430  0.028533936    10280  3.15082e-11 
    8440  0.037588835    10280  3.15082e-11 
    8450  0.051445961    10280  3.15082e-11 
    8460  0.057689905    10280  3.15082e-11 
    8470  0.067020893    10280  3.15082e-11 
    8480  0.080711842    10280  3.15082e-11 
    8490  0.087037802    10280  3.15082e-11 
ssurf = 5.954107e-04 
    8500  0.096058846    10280  3.15082e-11 
    8501  0.097541809    10280  3.15082e-11 
Loop time of 0.097584 on 1 procs for 100 steps with 10280 atoms

102.5% CPU use with 1 MPI tasks x no OpenMP threads
run 100 pre no post no
Step CPU Atoms biomass 
    8501            0    10280  3.15082e-11 
    8510 0.0076549053    10280  3.15082e-11 
    8520  0.022814989    10280  3.15082e-11 
    8530  0.029067039    10280  3.15082e-11 
    8540  0.036812067    10280  3.15082e-11 
    8550  0.052507877    10280  3.15082e-11 
    8560  0.058894873    10280  3.15082e-11 
    8570  0.065476894    10280  3.15082e-11 
    8580  0.079997063    10280  3.15082e-11 
    8590  0.088504076    10280  3.15082e-11 
ssurf = 5.954107e-04 
    8600  0.094942093    10280  3.15082e-11 
    8601  0.095607996    10280  3.15082e-11 
Loop time of 0.095645 on 1 procs for 100 steps with 10280 atoms

100.4% CPU use with 1 MPI tasks x no OpenMP threads
run 100 pre no post no
Step CPU Atoms biomass 
    8601            0    10280  3.15082e-11 
    8610 0.0067141056    10280  3.15082e-11 
    8620  0.022293091    10280  3.15082e-11 
    8630  0.027873993    10280  3.15082e-11 
    8640  0.033449173    10280  3.15082e-11 
    8650  0.046233177    10280  3.15082e-11 
    8660  0.055529118    10280  3.15082e-11 
    8670  0.061135054    10280  3.15082e-11 
    8680  0.067094088    10280  3.15082e-11 
    8690  0.083297014    10280  3.15082e-11 
ssurf = 5.954107e-04 
    8700  0.088770151    10280  3.15082e-11 
    8701  0.089337111    10280  3.15082e-11 
Loop time of 0.0893681 on 1 procs for 100 steps with 10280 atoms

102.9% CPU use with 1 MPI tasks x no OpenMP threads
run 100 pre no post no
Step CPU Atoms biomass 
    8701            0    10280  3.15082e-11 
    8710  0.011945963    10280  3.15082e-11 
    8720  0.021749973    10280  3.15082e-11 
    8730   0.03531599    10280  3.15082e-11 
    8740  0.040997982    10280  3.15082e-11 
    8750  0.046698809    10280  3.15082e-11 
    8760  0.052742958    10280  3.15082e-11 
    8770  0.066939831    10280  3.15082e-11 
    8780  0.075231791    10280  3.15082e-11 
    8790  0.080926895    10280  3.15082e-11 
ssurf = 5.954107e-04 
    8800  0.093160868    10280  3.15082e-11 
    8801  0.094989777    10280  3.15082e-11 
Loop time of 0.095089 on 1 procs for 100 steps with 10280 atoms

101.0% CPU use with 1 MPI tasks x no OpenMP threads
run 100 pre no post no
Step CPU Atoms biomass 
    8801            0    10280  3.15082e-11 
    8810 0.0050671101    10280  3.15082e-11 
    8820   0.01069212    10280  3.15082e-11 
    8830  0.019934177    10280  3.15082e-11 
    8840  0.032716036    10280  3.15082e-11 
    8850  0.038189173    10280  3.15082e-11 
    8860  0.046634197    10280  3.15082e-11 
    8870  0.059499025    10280  3.15082e-11 
    8880  0.066045046    10280  3.15082e-11 
    8890  0.071784019    10280  3.15082e-11 
ssurf = 5.954107e-04 
    8900  0.081259012    10280  3.15082e-11 
    8901   0.08328104    10280  3.15082e-11 
Loop time of 0.083358 on 1 procs for 100 steps with 10280 atoms

100.8% CPU use with 1 MPI tasks x no OpenMP threads
run 100 pre no post no
Step CPU Atoms biomass 
    8901            0    10280  3.15082e-11 
    8910 0.0051629543    10280  3.15082e-11 
    8920  0.011095047    10280  3.15082e-11 
    8930  0.021879911    10280  3.15082e-11 
    8940  0.033217907    10280  3.15082e-11 
    8950  0.038702011    10280  3.15082e-11 
    8960  0.047034979    10280  3.15082e-11 
    8970  0.059593916    10280  3.15082e-11 
    8980  0.066318035    10280  3.15082e-11 
    8990  0.072115898    10280  3.15082e-11 
ssurf = 5.954107e-04 
    9000  0.081541061    10280  3.15082e-11 
    9001  0.083398104    10280  3.15082e-11 
Loop time of 0.0834939 on 1 procs for 100 steps with 10280 atoms

95.8% CPU use with 1 MPI tasks x no OpenMP threads
run 100 pre no post no
Step CPU Atoms biomass 
    9001            0    10280  3.15082e-11 
    9010 0.0060839653    10280  3.15082e-11 
    9020  0.016366959    10280  3.15082e-11 
    9030  0.028444052    10280  3.15082e-11 
    9040  0.034175873    10280  3.15082e-11 
    9050  0.042981863    10280  3.15082e-11 
    9060  0.056975842    10280  3.15082e-11 
    9070  0.062751055    10280  3.15082e-11 
    9080  0.068711042    10280  3.15082e-11 
    9090  0.082350969    10280  3.15082e-11 
ssurf = 5.954107e-04 
    9100   0.09128499    10280  3.15082e-11 
    9101  0.091938019    10280  3.15082e-11 
Loop time of 0.091974 on 1 procs for 100 steps with 10280 atoms

100.0% CPU use with 1 MPI tasks x no OpenMP threads
run 100 pre no post no
Step CPU Atoms biomass 
    9101            0    10280  3.15082e-11 
    9110 0.0054759979    10280  3.15082e-11 
    9120  0.011382818    10280  3.15082e-11 
    9130   0.02502799    10280  3.15082e-11 
    9140  0.033841848    10280  3.15082e-11 
    9150  0.039573908    10280  3.15082e-11 
    9160  0.050397873    10280  3.15082e-11 
    9170  0.062350988    10280  3.15082e-11 
    9180  0.068075895    10280  3.15082e-11 
    9190  0.076034784    10280  3.15082e-11 
ssurf = 5.954107e-04 
    9200  0.090629816    10280  3.15082e-11 
    9201  0.091257811    10280  3.15082e-11 
Loop time of 0.09129 on 1 procs for 100 steps with 10280 atoms

100.8% CPU use with 1 MPI tasks x no OpenMP threads
run 100 pre no post no
Step CPU Atoms biomass 
    9201            0    10280  3.15082e-11 
    9210 0.0050630569    10280  3.15082e-11 
    9220  0.015211105    10280  3.15082e-11 
    9230  0.028068066    10280  3.15082e-11 
    9240  0.033642054    10280  3.15082e-11 
    9250  0.041068077    10280  3.15082e-11 
    9260  0.056313992    10280  3.15082e-11 
    9270  0.061890125    10280  3.15082e-11 
    9280  0.067434072    10280  3.15082e-11 
    9290  0.080872059    10280  3.15082e-11 
ssurf = 5.954107e-04 
    9300  0.089740992    10280  3.15082e-11 
    9301   0.09029603    10280  3.15082e-11 
Loop time of 0.0903261 on 1 procs for 100 steps with 10280 atoms

101.9% CPU use with 1 MPI tasks x no OpenMP threads
run 100 pre no post no
Step CPU Atoms biomass 
    9301            0    10280  3.15082e-11 
    9310  0.008259058    10280  3.15082e-11 
    9320  0.022213936    10280  3.15082e-11 
    9330  0.027858019    10280  3.15082e-11 
    9340  0.035783052    10280  3.15082e-11 
    9350  0.048446894    10280  3.15082e-11 
    9360  0.055922031    10280  3.15082e-11 
    9370  0.061580896    10280  3.15082e-11 
    9380  0.070268869    10280  3.15082e-11 
    9390  0.083978891    10280  3.15082e-11 
ssurf = 5.954107e-04 
    9400   0.08946085    10280  3.15082e-11 
    9401  0.090045929    10280  3.15082e-11 
Loop time of 0.0900819 on 1 procs for 100 steps with 10280 atoms

102.1% CPU use with 1 MPI tasks x no OpenMP threads
run 100 pre no post no
Step CPU Atoms biomass 
    9401            0    10280  3.15082e-11 
    9410  0.010038137    10280  3.15082e-11 
    9420  0.022242069    10280  3.15082e-11 
    9430   0.02799511    10280  3.15082e-11 
    9440  0.033764124    10280  3.15082e-11 
    9450  0.041950226    10280  3.15082e-11 
    9460  0.056488037    10280  3.15082e-11 
    9470  0.062445164    10280  3.15082e-11 
    9480  0.068691015    10280  3.15082e-11 
    9490  0.082469225    10280  3.15082e-11 
ssurf = 5.954107e-04 
    9500  0.091428995    10280  3.15082e-11 
    9501  0.092052221    10280  3.15082e-11 
Loop time of 0.0920851 on 1 procs for 100 steps with 10280 atoms

99.9% CPU use with 1 MPI tasks x no OpenMP threads
run 100 pre no post no
Step CPU Atoms biomass 
    9501            0    10280  3.15082e-11 
    9510  0.011828899    10280  3.15082e-11 
    9520  0.021137953    10280  3.15082e-11 
    9530  0.026831865    10280  3.15082e-11 
    9540  0.033238888    10280  3.15082e-11 
    9550  0.044183969    10280  3.15082e-11 
    9560  0.055313826    10280  3.15082e-11 
    9570  0.070600986    10280  3.15082e-11 
    9580  0.085919857    10280  3.15082e-11 
    9590   0.09185195    10280  3.15082e-11 
ssurf = 5.954107e-04 
    9600   0.10279393    10280  3.15082e-11 
    9601   0.10450077    10280  3.15082e-11 
Loop time of 0.104566 on 1 procs for 100 steps with 10280 atoms

99.5% CPU use with 1 MPI tasks x no OpenMP threads
run 100 pre no post no
Step CPU Atoms biomass 
    9601            0    10280  3.15082e-11 
    9610 0.0086581707    10280  3.15082e-11 
    9620  0.022289038    10280  3.15082e-11 
    9630  0.027852058    10280  3.15082e-11 
    9640  0.033293962    10280  3.15082e-11 
    9650  0.039623022    10280  3.15082e-11 
    9660  0.049276114    10280  3.15082e-11 
    9670  0.061676025    10280  3.15082e-11 
    9680  0.067209005    10280  3.15082e-11 
    9690   0.07647109    10280  3.15082e-11 
ssurf = 5.954107e-04 
    9700  0.090423107    10280  3.15082e-11 
    9701  0.091010094    10280  3.15082e-11 
Loop time of 0.091042 on 1 procs for 100 steps with 10280 atoms

96.7% CPU use with 1 MPI tasks x no OpenMP threads
run 100 pre no post no
Step CPU Atoms biomass 
    9701            0    10280  3.15082e-11 
    9710  0.005918026    10280  3.15082e-11 
    9720  0.017250061    10280  3.15082e-11 
    9730  0.027780056    10280  3.15082e-11 
    9740  0.033368111    10280  3.15082e-11 
    9750  0.044289112    10280  3.15082e-11 
    9760  0.056513071    10280  3.15082e-11 
    9770  0.062007904    10280  3.15082e-11 
    9780  0.070059061    10280  3.15082e-11 
    9790   0.08501792    10280  3.15082e-11 
ssurf = 5.954107e-04 
    9800   0.09060812    10280  3.15082e-11 
    9801  0.091167927    10280  3.15082e-11 
Loop time of 0.0912001 on 1 procs for 100 steps with 10280 atoms

100.9% CPU use with 1 MPI tasks x no OpenMP threads
run 100 pre no post no
Step CPU Atoms biomass 
    9801            0    10280  3.15082e-11 
    9810 0.0050749779    10280  3.15082e-11 
    9820  0.010653019    10280  3.15082e-11 
    9830  0.022341967    10280  3.15082e-11 
    9840   0.03368783    10280  3.15082e-11 
    9850   0.03918004    10280  3.15082e-11 
    9860  0.048095942    10280  3.15082e-11 
    9870  0.062224865    10280  3.15082e-11 
    9880  0.067834854    10280  3.15082e-11 
    9890    0.0737679    10280  3.15082e-11 
ssurf = 5.954107e-04 
    9900  0.088582993    10280  3.15082e-11 
    9901  0.090863943    10280  3.15082e-11 
Loop time of 0.0910389 on 1 procs for 100 steps with 10280 atoms

101.1% CPU use with 1 MPI tasks x no OpenMP threads
run 100 pre no post no
Step CPU Atoms biomass 
    9901            0    10280  3.15082e-11 
    9910 0.0059030056    10280  3.15082e-11 
    9920  0.017108917    10280  3.15082e-11 
    9930   0.02809906    10280  3.15082e-11 
    9940  0.033829927    10280  3.15082e-11 
    9950  0.042681932    10280  3.15082e-11 
    9960  0.056396961    10280  3.15082e-11 
    9970  0.062206984    10280  3.15082e-11 
    9980  0.069857121    10280  3.15082e-11 
    9990  0.081762075    10280  3.15082e-11 
ssurf = 5.954107e-04 
   10000  0.090570927    10280  3.15082e-11 
   10001  0.091229916    10280  3.15082e-11 
Loop time of 0.091269 on 1 procs for 100 steps with 10280 atoms

100.8% CPU use with 1 MPI tasks x no OpenMP threads
run 1 pre no post no
Step CPU Atoms biomass 
   10001            0    10280  3.15082e-11 
number of iterations: 459140 
   10002    1116.4984    10280  3.15082e-11 
Loop time of 1116.5 on 1 procs for 1 steps with 10280 atoms

100.0% CPU use with 1 MPI tasks x no OpenMP threads
run 100 pre no post no
Step CPU Atoms biomass 
   10002            0    10280  3.15082e-11 
   10010  0.010504007    10280  3.15082e-11 
   10020  0.024009943    10280  3.15082e-11 
   10030  0.039392948    10280  3.15082e-11 
   10040  0.055745125    10280  3.15082e-11 
   10050  0.073184967    10280  3.15082e-11 
   10060  0.091339111    10280  3.15082e-11 
   10070   0.10656095    10280  3.15082e-11 
   10080   0.12016892    10280  3.15082e-11 
   10090    0.1373601    10280  3.15082e-11 
ssurf = 1.810814e-03 
   10100   0.14730406    10280  3.15082e-11 
   10102   0.14911199    10280  3.15082e-11 
Loop time of 0.149152 on 1 procs for 100 steps with 10280 atoms

99.2% CPU use with 1 MPI tasks x no OpenMP threads
run 100 pre no post no
Step CPU Atoms biomass 
   10102            0    10280  3.15082e-11 
   10110 0.0056970119    10280  3.15082e-11 
   10120  0.018691063    10280  3.15082e-11 
   10130   0.03196907    10280  3.15082e-11 
   10140  0.047039986    10280  3.15082e-11 
   10150  0.060150146    10280  3.15082e-11 
   10160  0.078630209    10280  3.15082e-11 
   10170  0.094518185    10280  3.15082e-11 
   10180   0.10179806    10280  3.15082e-11 
   10190   0.11405301    10280  3.15082e-11 
ssurf = 1.810814e-03 
   10200   0.12884808    10280  3.15082e-11 
   10202   0.13268709    10280  3.15082e-11 
Loop time of 0.132751 on 1 procs for 100 steps with 10280 atoms

99.4% CPU use with 1 MPI tasks x no OpenMP threads
run 100 pre no post no
Step CPU Atoms biomass 
   10202            0    10280  3.15082e-11 
   10210  0.014366865    10280  3.15082e-11 
   10220  0.032472849    10280  3.15082e-11 
   10230  0.049687862    10280  3.15082e-11 
   10240  0.063125849    10280  3.15082e-11 
   10250  0.076061964    10280  3.15082e-11 
   10260   0.08352685    10280  3.15082e-11 
   10270    0.1003859    10280  3.15082e-11 
   10280   0.12067103    10280  3.15082e-11 
   10290   0.13578105    10280  3.15082e-11 
ssurf = 1.810814e-03 
   10300   0.15639997    10280  3.15082e-11 
   10302   0.16099191    10280  3.15082e-11 
Loop time of 0.161083 on 1 procs for 100 steps with 10280 atoms

99.3% CPU use with 1 MPI tasks x no OpenMP threads
run 100 pre no post no
Step CPU Atoms biomass 
   10302            0    10280  3.15082e-11 
   10310  0.011765957    10280  3.15082e-11 
   10320  0.027112961    10280  3.15082e-11 
   10330  0.046971083    10280  3.15082e-11 
   10340  0.071684122    10280  3.15082e-11 
   10350  0.092235088    10280  3.15082e-11 
   10360   0.10763001    10280  3.15082e-11 
   10370   0.13000894    10280  3.15082e-11 
   10380   0.14856005    10280  3.15082e-11 
   10390   0.16958404    10280  3.15082e-11 
ssurf = 1.810814e-03 
   10400   0.18991709    10280  3.15082e-11 
   10402   0.19144011    10280  3.15082e-11 
Loop time of 0.19149 on 1 procs for 100 steps with 10280 atoms

100.3% CPU use with 1 MPI tasks x no OpenMP threads
run 100 pre no post no
Step CPU Atoms biomass 
   10402            0    10280  3.15082e-11 
   10410  0.017864943    10280  3.15082e-11 
   10420  0.035177946    10280  3.15082e-11 
   10430  0.056107044    10280  3.15082e-11 
   10440  0.072075844    10280  3.15082e-11 
   10450  0.093426943    10280  3.15082e-11 
   10460   0.11640501    10280  3.15082e-11 
   10470   0.13770795    10280  3.15082e-11 
   10480     0.155442    10280  3.15082e-11 
   10490   0.17235303    10280  3.15082e-11 
ssurf = 1.810814e-03 
   10500    0.1880939    10280  3.15082e-11 
   10502   0.19207191    10280  3.15082e-11 
[...]
  197110  0.061419964    10280  3.15082e-11 
  197120  0.071187973    10280  3.15082e-11 
Loop time of 0.0712378 on 1 procs for 100 steps with 10280 atoms

101.1% CPU use with 1 MPI tasks x no OpenMP threads
run 100 pre no post no
Step CPU Atoms biomass 
  197120            0    10280  3.15082e-11 
  197130 0.0052821636    10280  3.15082e-11 
  197140  0.011691093    10280  3.15082e-11 
  197150  0.021841049    10280  3.15082e-11 
  197160  0.028379202    10280  3.15082e-11 
  197170  0.033300161    10280  3.15082e-11 
  197180  0.038305998    10280  3.15082e-11 
  197190  0.045875072    10280  3.15082e-11 
ssurf = 3.218814e-03 
  197200  0.056312084    10280  3.15082e-11 
  197210   0.06124711    10280  3.15082e-11 
  197220  0.066145182    10280  3.15082e-11 
Loop time of 0.0661771 on 1 procs for 100 steps with 10280 atoms

96.7% CPU use with 1 MPI tasks x no OpenMP threads
run 100 pre no post no
Step CPU Atoms biomass 
  197220            0    10280  3.15082e-11 
  197230 0.0087618828    10280  3.15082e-11 
  197240  0.018346071    10280  3.15082e-11 
  197250  0.025589943    10280  3.15082e-11 
  197260  0.030494928    10280  3.15082e-11 
  197270  0.035398006    10280  3.15082e-11 
  197280  0.040338993    10280  3.15082e-11 
  197290  0.048087835    10280  3.15082e-11 
ssurf = 3.218814e-03 
  197300  0.058467865    10280  3.15082e-11 
  197310  0.063412905    10280  3.15082e-11 
  197320  0.068297863    10280  3.15082e-11 
Loop time of 0.068332 on 1 procs for 100 steps with 10280 atoms

99.5% CPU use with 1 MPI tasks x no OpenMP threads
run 100 pre no post no
Step CPU Atoms biomass 
  197320            0    10280  3.15082e-11 
  197330 0.0050020218    10280  3.15082e-11 
  197340  0.011380196    10280  3.15082e-11 
  197350  0.020503998    10280  3.15082e-11 
  197360  0.027664185    10280  3.15082e-11 
  197370  0.032618999    10280  3.15082e-11 
  197380  0.037651062    10280  3.15082e-11 
  197390  0.045975208    10280  3.15082e-11 
ssurf = 3.218814e-03 
  197400  0.056013107    10280  3.15082e-11 
  197410  0.060958147    10280  3.15082e-11 
  197420  0.065903187    10280  3.15082e-11 
Loop time of 0.0659361 on 1 procs for 100 steps with 10280 atoms

97.1% CPU use with 1 MPI tasks x no OpenMP threads
run 100 pre no post no
Step CPU Atoms biomass 
  197420            0    10280  3.15082e-11 
  197430 0.0049040318    10280  3.15082e-11 
  197440 0.0096709728    10280  3.15082e-11 
  197450  0.020542145    10280  3.15082e-11 
  197460  0.028027058    10280  3.15082e-11 
  197470  0.032822132    10280  3.15082e-11 
  197480  0.037580967    10280  3.15082e-11 
  197490  0.042593002    10280  3.15082e-11 
ssurf = 3.218814e-03 
  197500  0.056349993    10280  3.15082e-11 
  197510  0.061425924    10280  3.15082e-11 
  197520  0.066422939    10280  3.15082e-11 
Loop time of 0.066458 on 1 procs for 100 steps with 10280 atoms

96.3% CPU use with 1 MPI tasks x no OpenMP threads
run 100 pre no post no
Step CPU Atoms biomass 
  197520            0    10280  3.15082e-11 
  197530 0.0067019463    10280  3.15082e-11 
  197540  0.011650801    10280  3.15082e-11 
  197550  0.017172813    10280  3.15082e-11 
  197560  0.025824785    10280  3.15082e-11 
  197570  0.034464836    10280  3.15082e-11 
  197580  0.039376974    10280  3.15082e-11 
  197590  0.044340849    10280  3.15082e-11 
ssurf = 3.218814e-03 
  197600  0.051184893    10280  3.15082e-11 
  197610  0.060857773    10280  3.15082e-11 
  197620  0.067299843    10280  3.15082e-11 
Loop time of 0.067333 on 1 procs for 100 steps with 10280 atoms

101.0% CPU use with 1 MPI tasks x no OpenMP threads
run 100 pre no post no
Step CPU Atoms biomass 
  197620            0    10280  3.15082e-11 
  197630 0.0050499439    10280  3.15082e-11 
  197640  0.012310982    10280  3.15082e-11 
  197650  0.023501873    10280  3.15082e-11 
  197660  0.028420925    10280  3.15082e-11 
  197670  0.033342838    10280  3.15082e-11 
  197680  0.039248943    10280  3.15082e-11 
  197690  0.048383951    10280  3.15082e-11 
ssurf = 3.218814e-03 
  197700  0.056269884    10280  3.15082e-11 
  197710  0.061206818    10280  3.15082e-11 
  197720  0.066169977    10280  3.15082e-11 
Loop time of 0.0662019 on 1 procs for 100 steps with 10280 atoms

96.7% CPU use with 1 MPI tasks x no OpenMP threads
run 100 pre no post no
Step CPU Atoms biomass 
  197720            0    10280  3.15082e-11 
  197730 0.0051720142    10280  3.15082e-11 
  197740  0.010142803    10280  3.15082e-11 
  197750  0.018337965    10280  3.15082e-11 
  197760  0.028205872    10280  3.15082e-11 
  197770  0.033116817    10280  3.15082e-11 
  197780  0.038095951    10280  3.15082e-11 
  197790  0.044190884    10280  3.15082e-11 
ssurf = 3.218814e-03 
  197800  0.053966999    10280  3.15082e-11 
  197810  0.061441898    10280  3.15082e-11 
  197820  0.066350937    10280  3.15082e-11 
Loop time of 0.066381 on 1 procs for 100 steps with 10280 atoms

96.4% CPU use with 1 MPI tasks x no OpenMP threads
run 100 pre no post no
Step CPU Atoms biomass 
  197820            0    10280  3.15082e-11 
  197830 0.0070509911    10280  3.15082e-11 
  197840  0.018329859    10280  3.15082e-11 
  197850  0.023290873    10280  3.15082e-11 
  197860  0.028123856    10280  3.15082e-11 
  197870  0.034198999    10280  3.15082e-11 
  197880  0.043471813    10280  3.15082e-11 
  197890  0.050969839    10280  3.15082e-11 
ssurf = 3.218814e-03 
  197900    0.0559659    10280  3.15082e-11 
  197910  0.060839891    10280  3.15082e-11 
  197920  0.067297935    10280  3.15082e-11 
Loop time of 0.0673318 on 1 procs for 100 steps with 10280 atoms

101.0% CPU use with 1 MPI tasks x no OpenMP threads
run 100 pre no post no
Step CPU Atoms biomass 
  197920            0    10280  3.15082e-11 
  197930 0.0051820278    10280  3.15082e-11 
  197940  0.011562109    10280  3.15082e-11 
  197950  0.020334005    10280  3.15082e-11 
  197960   0.02773118    10280  3.15082e-11 
  197970  0.032612085    10280  3.15082e-11 
  197980  0.037623167    10280  3.15082e-11 
  197990  0.044275999    10280  3.15082e-11 
ssurf = 3.218814e-03 
  198000   0.05506897    10280  3.15082e-11 
  198010   0.06004405    10280  3.15082e-11 
  198020  0.064959049    10280  3.15082e-11 
Loop time of 0.0649891 on 1 procs for 100 steps with 10280 atoms

98.5% CPU use with 1 MPI tasks x no OpenMP threads
run 100 pre no post no
Step CPU Atoms biomass 
  198020            0    10280  3.15082e-11 
  198030 0.0050971508    10280  3.15082e-11 
  198040  0.010071039    10280  3.15082e-11 
  198050  0.016940117    10280  3.15082e-11 
  198060  0.028130054    10280  3.15082e-11 
  198070  0.033055067    10280  3.15082e-11 
  198080  0.038011074    10280  3.15082e-11 
  198090   0.04313612    10280  3.15082e-11 
ssurf = 3.218814e-03 
  198100  0.052073002    10280  3.15082e-11 
  198110  0.061088085    10280  3.15082e-11 
  198120  0.066056967    10280  3.15082e-11 
Loop time of 0.066088 on 1 procs for 100 steps with 10280 atoms

102.9% CPU use with 1 MPI tasks x no OpenMP threads
run 100 pre no post no
Step CPU Atoms biomass 
  198120            0    10280  3.15082e-11 
  198130   0.01057601    10280  3.15082e-11 
  198140   0.01624918    10280  3.15082e-11 
  198150  0.021221161    10280  3.15082e-11 
  198160  0.026221991    10280  3.15082e-11 
  198170  0.033568144    10280  3.15082e-11 
  198180  0.044016123    10280  3.15082e-11 
  198190  0.048932076    10280  3.15082e-11 
ssurf = 3.218814e-03 
  198200  0.053876162    10280  3.15082e-11 
  198210  0.059785128    10280  3.15082e-11 
  198220  0.068242073    10280  3.15082e-11 
Loop time of 0.0682881 on 1 procs for 100 steps with 10280 atoms

99.6% CPU use with 1 MPI tasks x no OpenMP threads
run 100 pre no post no
Step CPU Atoms biomass 
  198220            0    10280  3.15082e-11 
  198230 0.0087580681    10280  3.15082e-11 
  198240  0.016942024    10280  3.15082e-11 
  198250  0.021846056    10280  3.15082e-11 
  198260  0.026751995    10280  3.15082e-11 
  198270  0.033087969    10280  3.15082e-11 
  198280  0.042076111    10280  3.15082e-11 
  198290  0.049338102    10280  3.15082e-11 
ssurf = 3.218814e-03 
  198300  0.054272175    10280  3.15082e-11 
  198310  0.059277058    10280  3.15082e-11 
  198320  0.066126108    10280  3.15082e-11 
Loop time of 0.0661862 on 1 procs for 100 steps with 10280 atoms

96.7% CPU use with 1 MPI tasks x no OpenMP threads
run 100 pre no post no
Step CPU Atoms biomass 
  198320            0    10280  3.15082e-11 
  198330 0.0051031113    10280  3.15082e-11 
  198340  0.011951923    10280  3.15082e-11 
  198350  0.021605015    10280  3.15082e-11 
  198360  0.028170109    10280  3.15082e-11 
  198370   0.03309989    10280  3.15082e-11 
  198380  0.038150072    10280  3.15082e-11 
  198390  0.045883894    10280  3.15082e-11 
ssurf = 3.218814e-03 
  198400  0.055943966    10280  3.15082e-11 
  198410  0.060861111    10280  3.15082e-11 
  198420  0.065789938    10280  3.15082e-11 
Loop time of 0.0658221 on 1 procs for 100 steps with 10280 atoms

97.2% CPU use with 1 MPI tasks x no OpenMP threads
run 100 pre no post no
Step CPU Atoms biomass 
  198420            0    10280  3.15082e-11 
  198430 0.0050621033    10280  3.15082e-11 
  198440  0.010143995    10280  3.15082e-11 
  198450  0.017825127    10280  3.15082e-11 
  198460  0.028022051    10280  3.15082e-11 
  198470  0.032988071    10280  3.15082e-11 
  198480  0.037907124    10280  3.15082e-11 
  198490  0.043869019    10280  3.15082e-11 
ssurf = 3.218814e-03 
  198500  0.052776098    10280  3.15082e-11 
  198510  0.060769081    10280  3.15082e-11 
  198520  0.065647125    10280  3.15082e-11 
Loop time of 0.0656791 on 1 procs for 100 steps with 10280 atoms

103.5% CPU use with 1 MPI tasks x no OpenMP threads
run 100 pre no post no
Step CPU Atoms biomass 
  198520            0    10280  3.15082e-11 
  198530 0.0049917698    10280  3.15082e-11 
  198540  0.011377811    10280  3.15082e-11 
  198550  0.021057844    10280  3.15082e-11 
  198560   0.02807498    10280  3.15082e-11 
  198570  0.032987833    10280  3.15082e-11 
  198580  0.037957907    10280  3.15082e-11 
  198590  0.045423985    10280  3.15082e-11 
ssurf = 3.218814e-03 
  198600  0.055842876    10280  3.15082e-11 
  198610  0.060762882    10280  3.15082e-11 
  198620  0.065655947    10280  3.15082e-11 
Loop time of 0.0656879 on 1 procs for 100 steps with 10280 atoms

97.4% CPU use with 1 MPI tasks x no OpenMP threads
run 100 pre no post no
Step CPU Atoms biomass 
  198620            0    10280  3.15082e-11 
  198630 0.0050480366    10280  3.15082e-11 
  198640  0.014249086    10280  3.15082e-11 
  198650  0.023679018    10280  3.15082e-11 
  198660  0.028660059    10280  3.15082e-11 
  198670  0.033535957    10280  3.15082e-11 
  198680   0.04008007    10280  3.15082e-11 
  198690  0.052134991    10280  3.15082e-11 
ssurf = 3.218814e-03 
  198700  0.057113886    10280  3.15082e-11 
  198710   0.06200099    10280  3.15082e-11 
  198720  0.066972971    10280  3.15082e-11 
Loop time of 0.0670059 on 1 procs for 100 steps with 10280 atoms

101.5% CPU use with 1 MPI tasks x no OpenMP threads
run 100 pre no post no
Step CPU Atoms biomass 
  198720            0    10280  3.15082e-11 
  198730 0.0065867901    10280  3.15082e-11 
  198740  0.011524916    10280  3.15082e-11 
  198750  0.016910791    10280  3.15082e-11 
  198760  0.025827885    10280  3.15082e-11 
  198770  0.034486771    10280  3.15082e-11 
  198780   0.03943491    10280  3.15082e-11 
  198790  0.044324875    10280  3.15082e-11 
ssurf = 3.218814e-03 
  198800  0.050641775    10280  3.15082e-11 
  198810  0.060296774    10280  3.15082e-11 
  198820  0.067326784    10280  3.15082e-11 
Loop time of 0.067359 on 1 procs for 100 steps with 10280 atoms

101.0% CPU use with 1 MPI tasks x no OpenMP threads
run 100 pre no post no
Step CPU Atoms biomass 
  198820            0    10280  3.15082e-11 
  198830  0.008439064    10280  3.15082e-11 
  198840  0.019521952    10280  3.15082e-11 
  198850  0.024432898    10280  3.15082e-11 
  198860  0.030164003    10280  3.15082e-11 
  198870  0.038385868    10280  3.15082e-11 
  198880  0.046988964    10280  3.15082e-11 
  198890  0.051935911    10280  3.15082e-11 
ssurf = 3.218814e-03 
  198900  0.056889057    10280  3.15082e-11 
  198910  0.063329935    10280  3.15082e-11 
  198920  0.073701859    10280  3.15082e-11 
Loop time of 0.073792 on 1 procs for 100 steps with 10280 atoms

97.6% CPU use with 1 MPI tasks x no OpenMP threads
run 100 pre no post no
Step CPU Atoms biomass 
  198920            0    10280  3.15082e-11 
  198930 0.0099849701    10280  3.15082e-11 
  198940  0.016291857    10280  3.15082e-11 
  198950  0.021207809    10280  3.15082e-11 
  198960  0.026266813    10280  3.15082e-11 
  198970  0.032881021    10280  3.15082e-11 
  198980  0.043809891    10280  3.15082e-11 
  198990  0.050162792    10280  3.15082e-11 
ssurf = 3.218814e-03 
  199000  0.061056852    10280  3.15082e-11 
  199010  0.069344997    10280  3.15082e-11 
  199020  0.078378916    10280  3.15082e-11 
Loop time of 0.078414 on 1 procs for 100 steps with 10280 atoms

102.0% CPU use with 1 MPI tasks x no OpenMP threads
run 100 pre no post no
Step CPU Atoms biomass 
  199020            0    10280  3.15082e-11 
  199030 0.0050580502    10280  3.15082e-11 
  199040  0.010010958    10280  3.15082e-11 
  199050  0.015770912    10280  3.15082e-11 
  199060  0.024777889    10280  3.15082e-11 
  199070  0.032598019    10280  3.15082e-11 
  199080  0.037497997    10280  3.15082e-11 
  199090  0.042472839    10280  3.15082e-11 
ssurf = 3.218814e-03 
  199100  0.048949003    10280  3.15082e-11 
  199110  0.060181856    10280  3.15082e-11 
  199120  0.065237045    10280  3.15082e-11 
Loop time of 0.0652709 on 1 procs for 100 steps with 10280 atoms

98.1% CPU use with 1 MPI tasks x no OpenMP threads
run 100 pre no post no
Step CPU Atoms biomass 
  199120            0    10280  3.15082e-11 
  199130  0.010522127    10280  3.15082e-11 
  199140  0.015479088    10280  3.15082e-11 
  199150  0.020384073    10280  3.15082e-11 
  199160  0.026895046    10280  3.15082e-11 
  199170  0.036229134    10280  3.15082e-11 
  199180  0.043084145    10280  3.15082e-11 
  199190  0.048002005    10280  3.15082e-11 
ssurf = 3.218814e-03 
  199200  0.053084135    10280  3.15082e-11 
  199210  0.060862064    10280  3.15082e-11 
  199220  0.071000099    10280  3.15082e-11 
Loop time of 0.0710311 on 1 procs for 100 steps with 10280 atoms

101.4% CPU use with 1 MPI tasks x no OpenMP threads
run 100 pre no post no
Step CPU Atoms biomass 
  199220            0    10280  3.15082e-11 
  199230 0.0058338642    10280  3.15082e-11 
  199240   0.01094985    10280  3.15082e-11 
  199250  0.016537905    10280  3.15082e-11 
  199260  0.025287867    10280  3.15082e-11 
  199270  0.033819914    10280  3.15082e-11 
  199280  0.038811922    10280  3.15082e-11 
  199290  0.043820858    10280  3.15082e-11 
ssurf = 3.218814e-03 
  199300  0.050403833    10280  3.15082e-11 
  199310  0.059590816    10280  3.15082e-11 
  199320  0.066751003    10280  3.15082e-11 
Loop time of 0.0667949 on 1 procs for 100 steps with 10280 atoms

101.8% CPU use with 1 MPI tasks x no OpenMP threads
run 100 pre no post no
Step CPU Atoms biomass 
  199320            0    10280  3.15082e-11 
  199330 0.0072658062    10280  3.15082e-11 
  199340  0.012217999    10280  3.15082e-11 
  199350  0.017123938    10280  3.15082e-11 
  199360  0.023571968    10280  3.15082e-11 
  199370  0.034310818    10280  3.15082e-11 
  199380  0.039776802    10280  3.15082e-11 
  199390  0.044660807    10280  3.15082e-11 
ssurf = 3.218814e-03 
  199400  0.049729824    10280  3.15082e-11 
  199410  0.057847023    10280  3.15082e-11 
  199420  0.067498922    10280  3.15082e-11 
Loop time of 0.0675359 on 1 procs for 100 steps with 10280 atoms

100.7% CPU use with 1 MPI tasks x no OpenMP threads
run 100 pre no post no
Step CPU Atoms biomass 
  199420            0    10280  3.15082e-11 
  199430 0.0065610409    10280  3.15082e-11 
  199440  0.011621952    10280  3.15082e-11 
  199450  0.017071962    10280  3.15082e-11 
  199460  0.025278091    10280  3.15082e-11 
  199470  0.034182072    10280  3.15082e-11 
  199480  0.039104939    10280  3.15082e-11 
  199490  0.044039965    10280  3.15082e-11 
ssurf = 3.218814e-03 
  199500  0.050466061    10280  3.15082e-11 
  199510  0.059285879    10280  3.15082e-11 
  199520  0.066875935    10280  3.15082e-11 
Loop time of 0.0669069 on 1 procs for 100 steps with 10280 atoms

95.7% CPU use with 1 MPI tasks x no OpenMP threads
run 100 pre no post no
Step CPU Atoms biomass 
  199520            0    10280  3.15082e-11 
  199530 0.0051460266    10280  3.15082e-11 
  199540  0.010196924    10280  3.15082e-11 
  199550  0.016666889    10280  3.15082e-11 
  199560   0.02757287    10280  3.15082e-11 
  199570  0.033058882    10280  3.15082e-11 
  199580   0.03807807    10280  3.15082e-11 
  199590  0.043298006    10280  3.15082e-11 
ssurf = 3.218814e-03 
  199600  0.051524878    10280  3.15082e-11 
  199610  0.060646057    10280  3.15082e-11 
  199620  0.065579891    10280  3.15082e-11 
Loop time of 0.0656099 on 1 procs for 100 steps with 10280 atoms

97.5% CPU use with 1 MPI tasks x no OpenMP threads
run 100 pre no post no
Step CPU Atoms biomass 
  199620            0    10280  3.15082e-11 
  199630 0.0068728924    10280  3.15082e-11 
  199640  0.011759043    10280  3.15082e-11 
  199650  0.016749859    10280  3.15082e-11 
  199660  0.024142981    10280  3.15082e-11 
  199670  0.034330845    10280  3.15082e-11 
  199680  0.039309025    10280  3.15082e-11 
  199690  0.044184923    10280  3.15082e-11 
ssurf = 3.218814e-03 
  199700   0.05002284    10280  3.15082e-11 
  199710   0.05843401    10280  3.15082e-11 
  199720  0.066718817    10280  3.15082e-11 
Loop time of 0.066751 on 1 procs for 100 steps with 10280 atoms

101.9% CPU use with 1 MPI tasks x no OpenMP threads
run 100 pre no post no
Step CPU Atoms biomass 
  199720            0    10280  3.15082e-11 
  199730 0.0079739094    10280  3.15082e-11 
  199740  0.013039827    10280  3.15082e-11 
  199750  0.018177032    10280  3.15082e-11 
  199760  0.024646044    10280  3.15082e-11 
  199770  0.035975933    10280  3.15082e-11 
  199780  0.041194916    10280  3.15082e-11 
  199790  0.053006887    10280  3.15082e-11 
ssurf = 3.218814e-03 
  199800   0.06098485    10280  3.15082e-11 
  199810  0.070360899    10280  3.15082e-11 
  199820   0.07526803    10280  3.15082e-11 
Loop time of 0.075299 on 1 procs for 100 steps with 10280 atoms

100.9% CPU use with 1 MPI tasks x no OpenMP threads
run 100 pre no post no
Step CPU Atoms biomass 
  199820            0    10280  3.15082e-11 
  199830 0.0079190731    10280  3.15082e-11 
  199840  0.012966156    10280  3.15082e-11 
  199850  0.018000126    10280  3.15082e-11 
  199860  0.024406195    10280  3.15082e-11 
  199870   0.03334713    10280  3.15082e-11 
  199880  0.040615082    10280  3.15082e-11 
  199890  0.045538187    10280  3.15082e-11 
ssurf = 3.218814e-03 
  199900   0.05055809    10280  3.15082e-11 
  199910   0.05706501    10280  3.15082e-11 
  199920  0.067970991    10280  3.15082e-11 
Loop time of 0.068001 on 1 procs for 100 steps with 10280 atoms

100.0% CPU use with 1 MPI tasks x no OpenMP threads
run 100 pre no post no
Step CPU Atoms biomass 
  199920            0    10280  3.15082e-11 
  199930  0.011294842    10280  3.15082e-11 
  199940  0.016299009    10280  3.15082e-11 
  199950  0.021333933    10280  3.15082e-11 
  199960  0.026469946    10280  3.15082e-11 
  199970  0.034500837    10280  3.15082e-11 
  199980  0.043881893    10280  3.15082e-11 
  199990  0.048800945    10280  3.15082e-11 
ssurf = 3.218814e-03 
  200000  0.053735971    10280  3.15082e-11 
  200010  0.059976816    10280  3.15082e-11 
  200020  0.068848848    10280  3.15082e-11 
Loop time of 0.0688949 on 1 procs for 100 steps with 10280 atoms

98.7% CPU use with 1 MPI tasks x no OpenMP threads
Total wall time: 3:31:30
