  Granular Flow Simulation 

       3 atoms 
       1 atom types 
       2 nutrients

   0.0   8e-04  xlo xhi 
   0.0   8e-04  ylo yhi 
   0.0   10e-04  zlo zhi 

 Atoms

     1 1 9.66e-7 10 5e-5 0.3e-4 5e-7 9.66e-7 het
     2 1 9.66e-7 10 5e-5 0.5e-4 5e-7 9.66e-7 het
     3 1 9.66e-7 10 5e-5 0.7e-4 5e-7 9.66e-7 het

 Nutrients

     1 cod l xxxx
     2 o2 l 3.125e-4 3.125e-4 3.125e-4 3.125e-4 3.125e-4 3.125e-4 3.125e-4

 Diffusion Coeffs
     
     cod 1e-9
     o2 2e-9

 Ks
     
     het xx 6.25e-6

 Growth

     het 0.000069444

 Yield
    
     het xxxx
  
 Maintenance
 
     het xxxx

 Decay

     het 0.00000463

 Catabolism Coeffs
       
     het -1 0

 Anabolism Coeffs
         
     het 0 0
 
 Decay Coeffs
           
     het 0 0
 
 Nutrient Energy

    cod inf 16.4 inf inf inf 2
    o2 inf 0 inf inf inf 2

 Type Energy

    het inf -67 inf inf inf 2

