ITEM: TIMESTEP
0
ITEM: NUMBER OF ATOMS
3
ITEM: BOX BOUNDS ff ff ff
0.0000000000000000e+00 8.0000000000000004e-04
0.0000000000000000e+00 8.0000000000000004e-04
0.0000000000000000e+00 1.0000000000000000e-03
ITEM: ATOMS id type diameter x y z 
1 1 9.66e-07 5e-05 3e-05 5e-07 
2 1 9.66e-07 5e-05 5e-05 5e-07 
3 1 9.66e-07 5e-05 7e-05 5e-07 
