ITEM: TIMESTEP
0
ITEM: NUMBER OF ATOMS
5
ITEM: BOX BOUNDS ff ff ff
0 0.0001
0 0.0001
0 0.0001
ITEM: ATOMS id type diameter x y z vx vy vz fx fy fz 
2 2 1.2839e-06 5e-05 4.9e-05 2e-06 0 0 0 -7.678e-05 0 0 
5 5 1.4839e-06 5.1e-05 4.9e-05 2e-06 0 0 0 7.678e-05 -5.122e-05 0 
4 4 1.0539e-06 4.9e-05 5e-05 2e-06 0 0 0 0 0 0 
3 3 1.0283e-06 5.1e-05 5e-05 2e-06 0 0 0 0 5.122e-05 0 
1 1 1.0839e-06 5e-05 5.1e-05 2e-06 0 0 0 0 0 0 
ITEM: TIMESTEP
500
ITEM: NUMBER OF ATOMS
7
ITEM: BOX BOUNDS ff ff ff
0 0.0001
0 0.0001
0 0.0001
ITEM: ATOMS id type diameter x y z vx vy vz fx fy fz 
2 2 1.3171e-06 5.21338e-05 4.51239e-05 2e-06 5.40654e-10 -8.41245e-10 0 0 0 0 
5 5 1.4839e-06 5.46121e-05 4.6257e-05 2e-06 5.55675e-10 -8.314e-10 0 0 0 0 
4 4 1.05045e-06 4.64968e-05 5.3895e-05 2e-06 -5.40654e-10 8.41245e-10 0 0 0 0 
3 3 1.03337e-06 5.05031e-05 5.24049e-05 2e-06 -5.55675e-10 8.314e-10 0 0 0 0 
1 1 1.0122e-06 4.95891e-05 4.87751e-05 5.65677e-07 3.10448e-18 -1.13446e-17 -1e-09 0 0 -1.01883e-23 
6 4 9.07185e-07 5.04584e-05 5.54656e-05 4.86859e-06 1.29443e-10 8.27818e-10 5.45859e-10 0 0 0 
7 1 1.15086e-06 4.9347e-05 4.96599e-05 1.18689e-06 -2.1966e-10 8.02697e-10 5.54461e-10 0 0 0 
ITEM: TIMESTEP
1000
ITEM: NUMBER OF ATOMS
8
ITEM: BOX BOUNDS ff ff ff
0 0.0001
0 0.0001
0 0.0001
ITEM: ATOMS id type diameter x y z vx vy vz fx fy fz 
1 1 1.27772e-06 4.95891e-05 4.87751e-05 6.45677e-07 0 0 -1e-09 0 0 -6.90921e-23 
2 2 1.35115e-06 5.4837e-05 4.09177e-05 2e-06 5.40654e-10 -8.41245e-10 0 0 0 0 
5 5 1.4839e-06 5.73905e-05 4.21e-05 2e-06 5.55675e-10 -8.314e-10 0 0 0 0 
3 3 1.03846e-06 4.77247e-05 5.65619e-05 2e-06 -5.55675e-10 8.314e-10 0 0 0 0 
4 4 1.04701e-06 4.37935e-05 5.81012e-05 2e-06 -5.40654e-10 8.41245e-10 0 0 0 0 
7 1 1.1318e-06 4.84191e-05 5.33728e-05 3.4522e-06 -2.1966e-10 8.02697e-10 5.54461e-10 0 0 0 
8 1 1.17353e-06 4.80719e-05 5.39852e-05 4.48487e-06 -2.1966e-10 8.02697e-10 5.54461e-10 0 0 0 
6 4 9.04215e-07 5.11056e-05 5.96047e-05 7.59789e-06 1.29443e-10 8.27818e-10 5.45859e-10 0 0 0 
ITEM: TIMESTEP
1500
ITEM: NUMBER OF ATOMS
12
ITEM: BOX BOUNDS ff ff ff
0 0.0001
0 0.0001
0 0.0001
ITEM: ATOMS id type diameter x y z vx vy vz fx fy fz 
1 1 1.34821e-06 5.01226e-05 4.91353e-05 4.36287e-06 0 0 1e-09 0 0 0 
2 2 1.02904e-06 5.60379e-05 3.74251e-05 4.22499e-06 -1.85179e-10 -3.74939e-10 9.08367e-10 0 0 0 
5 5 1.4839e-06 6.01689e-05 3.7943e-05 2e-06 5.55675e-10 -8.314e-10 0 0 0 0 
3 3 1.04357e-06 4.49463e-05 6.07189e-05 2e-06 -5.55675e-10 8.314e-10 0 0 0 0 
4 4 1.04358e-06 4.10902e-05 6.23074e-05 2e-06 -5.40654e-10 8.41245e-10 0 0 0 0 
7 1 1.09542e-06 4.90202e-05 5.31718e-05 2.31626e-06 2.77798e-10 -4.90014e-10 -8.26265e-10 0 0 0 
8 1 1.11021e-06 4.68548e-05 5.69652e-05 7.56268e-06 -2.77798e-10 4.90014e-10 8.26265e-10 0 0 0 
6 4 9.01254e-07 5.17528e-05 6.37438e-05 1.03272e-05 1.29443e-10 8.27818e-10 5.45859e-10 0 0 0 
9 1 1.20395e-06 4.91127e-05 4.84535e-05 6.01362e-07 0 0 1e-09 0 0 1.22776e-07 
10 2 1.16308e-06 5.64646e-05 3.82891e-05 1.20275e-06 -3.33467e-10 -6.75184e-10 6.57971e-10 0 0 0 
11 1 1.23471e-06 4.67055e-05 5.6995e-05 8.78894e-06 -2.77798e-10 4.90014e-10 8.26265e-10 0 0 0 
12 1 1.17003e-06 4.88596e-05 5.31723e-05 1.09003e-06 2.77798e-10 -4.90014e-10 -8.26265e-10 0 0 0 
ITEM: TIMESTEP
2000
ITEM: NUMBER OF ATOMS
19
ITEM: BOX BOUNDS ff ff ff
0 0.0001
0 0.0001
0 0.0001
ITEM: ATOMS id type diameter x y z vx vy vz fx fy fz 
15 1 1.19336e-06 4.94643e-05 4.87042e-05 5.98377e-07 0 0 -1e-09 0 0 -4.50386e-23 
12 1 1.12146e-06 4.91906e-05 5.32591e-05 5.64281e-07 0 0 -1e-09 0 0 -3.41628e-23 
5 5 1.4839e-06 6.29472e-05 3.3786e-05 2e-06 5.55675e-10 -8.314e-10 0 0 0 0 
16 1 1.21898e-06 4.82166e-05 5.15886e-05 2.38382e-06 -3.63041e-10 -6.22689e-10 6.93152e-10 0 0 0 
3 3 1.04872e-06 4.2168e-05 6.48759e-05 2e-06 -5.55675e-10 8.314e-10 0 0 0 0 
4 4 1.04017e-06 3.8387e-05 6.65136e-05 2e-06 -5.40654e-10 8.41245e-10 0 0 0 0 
9 1 1.21884e-06 4.73331e-05 4.71847e-05 2.56548e-06 -6.46148e-10 -4.60656e-10 6.08514e-10 0 0 0 
10 2 1.19315e-06 5.47973e-05 3.49132e-05 4.49261e-06 -3.33467e-10 -6.75184e-10 6.57971e-10 0 0 0 
8 1 1.17301e-06 4.668e-05 5.79125e-05 4.37798e-06 1.2082e-10 -2.4071e-11 -9.92383e-10 0 0 0 
17 1 1.04417e-06 4.73008e-05 5.69926e-05 4.90318e-06 1.2082e-10 -2.4071e-11 -9.92383e-10 0 0 0 
1 1 1.33382e-06 5.01075e-05 4.77159e-05 5.39248e-06 -6.0122e-12 -5.65429e-10 -8.24775e-10 0 0 0 
18 1 1.13543e-06 4.9971e-05 5.26332e-05 5.34941e-06 1.83444e-10 -8.04765e-11 9.7973e-10 0 0 0 
7 1 1.05674e-06 5.00318e-05 5.23506e-05 6.54521e-06 1.83444e-10 -8.04765e-11 9.7973e-10 0 0 0 
2 2 1.05564e-06 5.5112e-05 3.55504e-05 8.76682e-06 -1.85179e-10 -3.74939e-10 9.08367e-10 0 0 0 
19 1 1.05083e-06 5.01401e-05 5.05452e-05 8.9499e-06 6.0122e-12 5.65429e-10 8.24775e-10 0 0 0 
13 1 1.11757e-06 5.01354e-05 5.05826e-05 1.01797e-05 6.0122e-12 5.65429e-10 8.24775e-10 0 0 0 
11 1 1.28333e-06 4.55905e-05 5.79842e-05 1.30207e-05 -4.92045e-10 4.97919e-10 -7.1412e-10 0 0 0 
6 4 8.98304e-07 5.24e-05 6.78828e-05 1.30565e-05 1.29443e-10 8.27818e-10 5.45859e-10 0 0 0 
14 1 1.18703e-06 4.6246e-05 5.7321e-05 1.3972e-05 4.92045e-10 -4.97919e-10 7.1412e-10 0 0 0 
ITEM: TIMESTEP
2500
ITEM: NUMBER OF ATOMS
30
ITEM: BOX BOUNDS ff ff ff
0 0.0001
0 0.0001
0 0.0001
ITEM: ATOMS id type diameter x y z vx vy vz fx fy fz 
15 1 1.26435e-06 4.88785e-05 4.84305e-05 6.37061e-07 0 0 -1e-09 0 0 -5.25235e-23 
12 1 1.09907e-06 4.90871e-05 5.37463e-05 5.58162e-07 0 0 -1e-09 0 0 -2.80037e-23 
5 5 1.4839e-06 6.57256e-05 2.9629e-05 2e-06 5.55675e-10 -8.314e-10 0 0 0 0 
16 1 1.29754e-06 4.63009e-05 4.84066e-05 5.20768e-06 -3.63041e-10 -6.22689e-10 6.93152e-10 0 0 0 
3 3 1.05388e-06 3.93896e-05 6.90329e-05 2e-06 -5.55675e-10 8.314e-10 0 0 0 0 
4 4 1.03676e-06 3.56837e-05 7.07199e-05 2e-06 -5.40654e-10 8.41245e-10 0 0 0 0 
9 1 1.24873e-06 4.44659e-05 4.46597e-05 5.14541e-06 -6.46148e-10 -4.60656e-10 6.08514e-10 0 0 0 
10 2 1.224e-06 5.31299e-05 3.15373e-05 7.78247e-06 -3.33467e-10 -6.75184e-10 6.57971e-10 0 0 0 
8 1 1.15622e-06 4.5278e-05 6.00274e-05 1.54241e-06 -5.05606e-10 7.49252e-10 -4.27766e-10 0 0 0 
17 1 1.31807e-06 4.89823e-05 5.48417e-05 3.91768e-06 5.05606e-10 -7.49252e-10 4.27766e-10 0 0 0 
1 1 1.06937e-06 4.75284e-05 4.60304e-05 2.14941e-06 -9.99781e-10 -1.53271e-11 -1.42744e-11 0 0 0 
18 1 1.09533e-06 4.99123e-05 5.26233e-05 5.54793e-06 -4.94122e-11 2.29681e-10 -9.72011e-10 0 0 0 
7 1 1.33393e-06 5.10728e-05 5.18908e-05 7.84405e-06 2.97564e-10 -5.84112e-11 -9.52913e-10 0 0 0 
2 2 1.08294e-06 5.41861e-05 3.36757e-05 1.33087e-05 -1.85179e-10 -3.74939e-10 9.08367e-10 0 0 0 
19 1 1.32648e-06 4.96046e-05 5.2179e-05 1.25459e-05 -2.97564e-10 5.84112e-11 9.52913e-10 0 0 0 
13 1 1.09189e-06 5.00107e-05 5.16971e-05 1.43874e-05 -3.8304e-12 3.04012e-11 9.9953e-10 0 0 0 
11 1 1.34606e-06 4.34278e-05 5.87257e-05 9.21919e-06 -1.01704e-10 -8.16313e-10 -5.68585e-10 0 0 0 
6 4 8.95363e-07 5.30473e-05 7.20219e-05 1.57858e-05 1.29443e-10 8.27818e-10 5.45859e-10 0 0 0 
14 1 1.26163e-06 4.93224e-05 5.48391e-05 1.77562e-05 4.92045e-10 -4.97919e-10 7.1412e-10 0 0 0 
20 1 1.25027e-06 5.24234e-05 4.59197e-05 2.75356e-06 9.99781e-10 1.53271e-11 1.42744e-11 0 0 0 
21 1 1.21922e-06 4.37418e-05 6.12463e-05 1.09748e-05 1.01704e-10 8.16313e-10 5.68585e-10 0 0 0 
22 1 1.13413e-06 4.64893e-05 4.85351e-05 6.41064e-06 -3.63041e-10 -6.22689e-10 6.93152e-10 0 0 0 
23 1 1.19227e-06 4.37553e-05 4.50932e-05 6.04977e-06 -6.46148e-10 -4.60656e-10 6.08514e-10 0 0 0 
24 1 1.11795e-06 4.99823e-05 4.89461e-05 2.83979e-06 0 0 1e-09 0 0 0 
25 1 1.10687e-06 4.81656e-05 5.48246e-05 1.73552e-05 4.92045e-10 -4.97919e-10 7.1412e-10 0 0 0 
26 1 1.19366e-06 4.60533e-05 5.94956e-05 5.96354e-07 -3.53321e-190 5.23582e-190 1e-09 -3.36666e-188 4.98902e-188 9.52864e-08 
27 1 1.17692e-06 5.07195e-05 5.34304e-05 5.09517e-06 -4.94122e-11 2.29681e-10 -9.72011e-10 0 0 0 
28 1 1.14708e-06 4.92986e-05 5.27506e-05 1.79561e-06 0 0 1e-09 0 0 0 
29 1 1.16856e-06 4.78413e-05 4.56465e-05 3.27195e-06 -9.99781e-10 -1.53271e-11 -1.42744e-11 0 0 0 
30 1 1.14617e-06 5.02818e-05 5.27071e-05 1.50324e-05 -3.8304e-12 3.04012e-11 9.9953e-10 0 0 0 
ITEM: TIMESTEP
3000
ITEM: NUMBER OF ATOMS
55
ITEM: BOX BOUNDS ff ff ff
0 0.0001
0 0.0001
0 0.0001
ITEM: ATOMS id type diameter x y z vx vy vz fx fy fz 
1 1 1.34988e-06 4.51539e-05 4.64755e-05 6.79907e-07 5.18456e-287 -1.53449e-285 -1e-09 0 0 -6.7148e-23 
36 1 1.27319e-06 4.88879e-05 4.84055e-05 6.28412e-07 0 0 1e-09 0 0 1.63629e-06 
46 1 1.16094e-06 4.7596e-05 5.22088e-05 5.82159e-07 -1.55509e-285 -3.77121e-286 -1e-09 0 0 -3.81054e-23 
12 1 1.10062e-06 4.92203e-05 5.35482e-05 5.59886e-07 -1.97887e-25 2.94251e-25 -1e-09 0 0 -2.7184e-23 
41 1 1.11678e-06 4.59272e-05 5.95676e-05 5.65867e-07 0 0 -1e-09 0 0 -2.98703e-23 
8 1 1.14345e-06 4.42572e-05 6.13808e-05 5.66113e-07 0 0 1e-09 0 0 1.12207e-06 
39 1 1.17515e-06 4.67076e-05 4.29616e-05 1.03046e-06 -2.35345e-10 -5.68564e-11 -9.70247e-10 0 0 0 
35 1 1.29376e-06 4.50849e-05 4.8519e-05 1.31752e-06 -3.20998e-11 9.50066e-10 3.10393e-10 0 0 0 
18 1 1.14857e-06 5.04768e-05 5.03323e-05 1.26473e-06 2.11708e-10 -6.30146e-10 -7.47058e-10 0 0 0 
38 1 1.17174e-06 5.70112e-05 4.59897e-05 1.8345e-06 -1.23727e-12 -3.82491e-13 -9.99999e-10 0 0 0 
28 1 1.13733e-06 4.92705e-05 5.26149e-05 1.51662e-06 8.50114e-10 2.06159e-10 4.84566e-10 0 0 0 
51 1 1.10168e-06 4.88881e-05 5.40422e-05 1.53584e-06 -2.91594e-10 4.3359e-10 8.52627e-10 0 0 0 
5 5 1.4839e-06 6.8504e-05 2.5472e-05 2e-06 5.55675e-10 -8.314e-10 0 0 0 0 
52 1 1.04097e-06 5.07937e-05 5.11513e-05 2.11876e-06 2.11708e-10 -6.30146e-10 -7.47058e-10 0 0 0 
3 3 1.05908e-06 3.66112e-05 7.31899e-05 2e-06 -5.55675e-10 8.314e-10 0 0 0 0 
4 4 1.03337e-06 3.29804e-05 7.49261e-05 2e-06 -5.40654e-10 8.41245e-10 0 0 0 0 
9 1 1.31881e-06 4.71793e-05 4.30756e-05 2.97492e-06 2.35345e-10 5.68564e-11 9.70247e-10 0 0 0 
27 1 1.11025e-06 5.18188e-05 5.44224e-05 2.53905e-06 -7.15973e-11 7.21641e-10 -6.88556e-10 0 0 0 
34 1 1.31773e-06 4.60344e-05 5.53954e-05 2.80461e-06 -9.08859e-10 3.37309e-10 -2.45354e-10 0 0 0 
43 1 1.24083e-06 5.17936e-05 5.55963e-05 2.88679e-06 -7.15973e-11 7.21641e-10 -6.88556e-10 0 0 0 
45 1 1.17301e-06 4.44654e-05 6.19038e-05 2.65966e-06 9.57689e-11 2.40602e-10 9.65888e-10 0 0 0 
16 1 1.30617e-06 4.67925e-05 4.83983e-05 3.12589e-06 6.0658e-10 2.58401e-10 7.51857e-10 0 0 0 
26 1 1.26579e-06 4.6799e-05 5.90698e-05 3.28367e-06 2.99208e-10 -1.70866e-10 9.38765e-10 0 0 0 
20 1 1.32426e-06 5.70137e-05 4.59905e-05 3.87844e-06 1.23727e-12 3.82491e-13 9.99999e-10 0 0 0 
15 1 1.26024e-06 4.87948e-05 4.86545e-05 4.62068e-06 -2.28429e-11 6.10824e-11 9.97871e-10 0 0 0 
32 1 1.34279e-06 5.30893e-05 5.4403e-05 4.74919e-06 4.14831e-10 8.81212e-10 -2.26672e-10 0 0 0 
29 1 1.23269e-06 4.70445e-05 4.458e-05 5.51758e-06 2.54984e-10 -3.12874e-10 9.14928e-10 0 0 0 
44 1 1.10152e-06 4.62629e-05 4.47529e-05 6.44389e-06 2.54984e-10 -3.12874e-10 9.14928e-10 0 0 0 
7 1 1.33007e-06 5.05732e-05 4.9058e-05 6.12407e-06 -4.14831e-10 -8.81212e-10 2.26672e-10 0 0 0 
31 1 1.13456e-06 4.16134e-05 5.809e-05 6.09688e-06 -5.68665e-10 7.63655e-10 -3.05697e-10 0 0 0 
24 1 1.04893e-06 4.99883e-05 4.90574e-05 7.27573e-06 0 0 1e-09 0 0 0 
53 1 1.05151e-06 4.16507e-05 5.8433e-05 7.27317e-06 -5.68665e-10 7.63655e-10 -3.05697e-10 0 0 0 
17 1 1.32339e-06 4.89236e-05 5.58797e-05 7.77999e-06 -2.11708e-10 6.30146e-10 7.47058e-10 0 0 0 
49 1 1.18317e-06 4.99756e-05 4.88206e-05 8.47603e-06 0 0 1e-09 0 0 0 
11 1 1.31666e-06 4.45944e-05 5.42909e-05 8.29944e-06 5.68665e-10 -7.63655e-10 3.05697e-10 0 0 0 
42 1 1.2289e-06 4.05008e-05 4.6941e-05 9.23037e-06 -5.78122e-10 3.52677e-10 7.35795e-10 0 0 0 
23 1 1.15807e-06 4.11865e-05 4.65242e-05 1.01588e-05 -5.78122e-10 3.52677e-10 7.35795e-10 0 0 0 
22 1 1.18532e-06 4.75692e-05 4.87721e-05 1.0801e-05 1.53906e-10 1.04912e-10 9.825e-10 0 0 0 
10 2 1.25565e-06 5.14626e-05 2.81614e-05 1.10723e-05 -3.33467e-10 -6.75184e-10 6.57971e-10 0 0 0 
48 1 1.0826e-06 4.68172e-05 4.90995e-05 1.17114e-05 1.53906e-10 1.04912e-10 9.825e-10 0 0 0 
40 1 1.25676e-06 4.37323e-05 6.53268e-05 1.34559e-05 1.01704e-10 8.16313e-10 5.68585e-10 0 0 0 
33 1 1.12845e-06 4.99376e-05 5.05e-05 1.38611e-05 4.40432e-10 -6.1592e-10 -6.53194e-10 0 0 0 
13 1 1.14437e-06 4.91736e-05 4.92094e-05 1.42139e-05 -2.20678e-10 -8.22006e-10 -5.24983e-10 0 0 0 
21 1 1.18414e-06 4.47385e-05 6.53288e-05 1.41587e-05 1.01704e-10 8.16313e-10 5.68585e-10 0 0 0 
54 1 1.05778e-06 4.93558e-05 5.13633e-05 1.45096e-05 4.40432e-10 -6.1592e-10 -6.53194e-10 0 0 0 
55 1 1.03841e-06 4.9497e-05 4.9383e-05 1.53828e-05 -2.20678e-10 -8.22006e-10 -5.24983e-10 0 0 0 
50 1 1.08232e-06 4.39755e-05 5.41729e-05 1.62458e-05 -9.44771e-10 -1.17952e-11 -3.2752e-10 0 0 0 
25 1 1.13441e-06 4.50011e-05 5.46701e-05 1.67001e-05 -9.44771e-10 -1.17952e-11 -3.2752e-10 0 0 0 
19 1 1.27529e-06 4.7617e-05 5.37708e-05 1.71921e-05 -4.40432e-10 6.1592e-10 6.53194e-10 0 0 0 
2 2 1.11094e-06 5.32602e-05 3.1801e-05 1.78505e-05 -1.85179e-10 -3.74939e-10 9.08367e-10 0 0 0 
47 1 1.19781e-06 5.15025e-05 5.53673e-05 1.83527e-05 2.20678e-10 8.22006e-10 5.24983e-10 0 0 0 
30 1 1.09421e-06 5.04146e-05 5.50969e-05 1.88472e-05 2.20678e-10 8.22006e-10 5.24983e-10 0 0 0 
37 1 1.30203e-06 5.36381e-05 5.51452e-05 1.85165e-05 3.97667e-10 5.00083e-10 -7.69271e-10 0 0 0 
6 4 8.92431e-07 5.36945e-05 7.6161e-05 1.85151e-05 1.29443e-10 8.27818e-10 5.45859e-10 0 0 0 
14 1 1.22358e-06 5.2665e-05 5.39215e-05 2.03989e-05 -3.97667e-10 -5.00083e-10 7.69271e-10 0 0 0 
ITEM: TIMESTEP
3500
ITEM: NUMBER OF ATOMS
109
ITEM: BOX BOUNDS ff ff ff
0 0.0001
0 0.0001
0 0.0001
ITEM: ATOMS id type diameter x y z vx vy vz fx fy fz 
1 1 1.2918e-06 4.46433e-05 4.6885e-05 6.54431e-07 -2.88609e-190 1.10034e-190 -1e-09 0 0 -5.30344e-23 
36 1 1.29555e-06 5.13796e-05 5.00091e-05 3.18185e-06 3.84573e-10 5.27263e-10 7.57692e-10 0 0 0 
46 1 1.11622e-06 4.67942e-05 5.11387e-05 2.25955e-06 -4.27321e-10 -5.70301e-10 7.01536e-10 0 0 0 
12 1 1.02445e-06 4.95432e-05 5.39854e-05 5.11316e-07 0 0 1e-09 0 0 1.81756e-07 
41 1 1.12648e-06 4.53991e-05 5.98182e-05 5.65812e-07 0 0 -1e-09 0 0 -3.30093e-23 
8 1 1.20887e-06 4.41954e-05 6.21403e-05 2.31906e-06 -3.87004e-11 4.75232e-10 8.79009e-10 0 0 0 
39 1 1.19677e-06 4.71725e-05 4.32226e-05 6.00705e-07 0 0 -1e-09 0 0 -4.22913e-23 
35 1 1.06701e-06 4.48962e-05 5.18251e-05 5.62685e-07 -3.56949e-10 1.60064e-10 -9.20308e-10 -1.13872e-05 5.10626e-06 -2.93591e-05 
18 1 1.1407e-06 5.06077e-05 4.89508e-05 1.66104e-06 -3.84573e-10 -5.27263e-10 -7.57692e-10 0 0 0 
38 1 1.24328e-06 5.72393e-05 4.63596e-05 2.98179e-06 1.10329e-10 1.78077e-10 9.77812e-10 0 0 0 
28 1 1.08659e-06 5.22741e-05 5.51745e-05 3.05146e-06 3.36644e-10 9.41602e-10 7.53133e-12 0 0 0 
51 1 1.04997e-06 4.7942e-05 5.62457e-05 6.07687e-06 -2.91594e-10 4.3359e-10 8.52627e-10 0 0 0 
5 5 1.4839e-06 7.12823e-05 2.1315e-05 2e-06 5.55675e-10 -8.314e-10 0 0 0 0 
52 1 1.31403e-06 5.14615e-05 5.16442e-05 3.26599e-06 1.25554e-10 9.70269e-10 2.06917e-10 0 0 0 
3 3 1.06429e-06 3.38328e-05 7.73469e-05 2e-06 -5.55675e-10 8.314e-10 0 0 0 0 
4 4 1.02998e-06 3.02772e-05 7.91323e-05 2e-06 -5.40654e-10 8.41245e-10 0 0 0 0 
9 1 1.10634e-06 4.76074e-05 3.97002e-05 4.37213e-06 3.78461e-11 -9.75204e-10 -2.18047e-10 0 0 0 
27 1 1.16967e-06 5.22921e-05 5.19949e-05 1.44333e-06 5.23559e-10 5.38481e-10 6.60246e-10 0 0 0 
34 1 1.14104e-06 4.49514e-05 5.58312e-05 2.36982e-06 9.49057e-10 -2.99026e-10 -9.93717e-11 0 0 0 
43 1 1.2581e-06 5.17386e-05 6.00044e-05 4.25712e-06 9.77678e-11 9.24451e-11 9.90906e-10 0 0 0 
45 1 1.24286e-06 4.49148e-05 6.30853e-05 8.13711e-06 9.57689e-11 2.40602e-10 9.65888e-10 0 0 0 
16 1 1.04696e-06 5.01645e-05 4.76981e-05 6.14207e-06 6.22318e-10 -7.69358e-10 -1.44253e-10 0 0 0 
26 1 1.24529e-06 4.72149e-05 5.83458e-05 7.58912e-06 -9.15568e-10 1.58482e-10 -3.69619e-10 0 0 0 
20 1 1.36494e-06 5.84054e-05 4.44265e-05 8.16823e-06 6.02915e-10 -6.80118e-10 4.17053e-10 0 0 0 
15 1 1.25676e-06 4.82784e-05 4.84596e-05 9.38969e-06 -8.61132e-10 -2.26192e-10 -4.5529e-10 0 0 0 
32 1 1.28281e-06 5.19157e-05 5.708e-05 3.31771e-06 -9.56522e-10 -7.48866e-13 -2.91659e-10 0 0 0 
29 1 1.15194e-06 4.75951e-05 4.52159e-05 8.46217e-06 -8.16987e-10 -1.55525e-10 -5.55287e-10 0 0 0 
44 1 1.03563e-06 4.38012e-05 4.47452e-05 1.08749e-05 -6.38419e-10 1.41196e-10 7.56627e-10 0 0 0 
7 1 1.05341e-06 5.07115e-05 4.58433e-05 9.04762e-06 6.03521e-10 6.36814e-11 7.948e-10 0 0 0 
31 1 1.09607e-06 4.01245e-05 5.92418e-05 3.50502e-06 -3.03831e-11 -2.79792e-10 -9.5958e-10 0 0 0 
24 1 1.32408e-06 5.00198e-05 4.96418e-05 6.29298e-06 1.04135e-11 1.93506e-10 -9.81044e-10 0 0 0 
53 1 1.32734e-06 4.03229e-05 6.10271e-05 8.94584e-06 3.03831e-11 2.79792e-10 9.5958e-10 0 0 0 
17 1 1.04345e-06 4.94018e-05 5.79672e-05 8.47199e-06 9.15568e-10 -1.58482e-10 3.69619e-10 0 0 0 
49 1 1.2086e-06 5.08466e-05 4.84948e-05 1.30204e-05 6.92571e-10 -5.37227e-11 7.19347e-10 0 0 0 
11 1 1.22484e-06 4.51404e-05 5.25811e-05 8.10739e-06 -6.73724e-10 4.41888e-10 -5.9231e-10 0 0 0 
42 1 1.30712e-06 3.81259e-05 4.81171e-05 6.08994e-06 5.58195e-10 -7.15937e-10 -4.19348e-10 0 0 0 
23 1 1.16464e-06 4.33001e-05 4.47502e-05 1.35579e-05 5.58808e-10 -3.39617e-10 7.56567e-10 0 0 0 
22 1 1.11804e-06 4.61713e-05 4.85271e-05 1.20366e-05 -9.97914e-10 -2.03194e-11 6.12796e-11 0 0 0 
10 2 1.28812e-06 4.97953e-05 2.47854e-05 1.43622e-05 -3.33467e-10 -6.75184e-10 6.57971e-10 0 0 0 
48 1 1.03966e-06 4.49959e-05 5.05524e-05 1.62668e-05 -6.13689e-10 2.67143e-10 7.42981e-10 0 0 0 
40 1 1.17464e-06 4.02247e-05 6.65297e-05 1.10414e-05 3.44804e-11 9.99403e-10 2.03911e-12 0 0 0 
33 1 1.07986e-06 5.22426e-05 4.83907e-05 1.28722e-05 6.63978e-10 -1.21464e-10 7.37821e-10 0 0 0 
13 1 1.209e-06 4.84517e-05 4.6908e-05 1.09221e-05 -2.63995e-10 -1.41661e-10 -9.54064e-10 0 0 0 
21 1 1.10171e-06 4.87301e-05 6.535e-05 1.64581e-05 8.19846e-10 1.62624e-12 5.72582e-10 0 0 0 
54 1 1.33524e-06 4.92526e-05 5.16095e-05 1.42221e-05 -4.74403e-10 7.03843e-10 5.28722e-10 0 0 0 
55 1 1.3108e-06 4.96102e-05 4.76917e-05 1.64703e-05 2.63995e-10 1.41661e-10 9.54064e-10 0 0 0 
50 1 1.14525e-06 3.89546e-05 5.28401e-05 1.43212e-05 -8.35904e-10 -4.05202e-10 -3.70238e-10 0 0 0 
25 1 1.18899e-06 4.5571e-05 5.54246e-05 1.65762e-05 8.35904e-10 4.05202e-10 3.70238e-10 0 0 0 
19 1 1.28851e-06 4.45397e-05 5.60534e-05 2.06333e-05 -8.47931e-10 -1.80764e-10 4.98334e-10 0 0 0 
2 2 1.13966e-06 5.23343e-05 2.99263e-05 2.23923e-05 -1.85179e-10 -3.74939e-10 9.08367e-10 0 0 0 
47 1 1.21267e-06 5.50023e-05 5.73402e-05 1.82916e-05 8.87896e-10 2.20765e-10 -4.03614e-10 0 0 0 
30 1 1.15907e-06 4.74932e-05 5.55535e-05 2.03988e-05 -8.87896e-10 -2.20765e-10 4.03614e-10 0 0 0 
37 1 1.09622e-06 5.6277e-05 5.6749e-05 1.72994e-05 7.71858e-10 -2.30639e-10 5.92486e-10 0 0 0 
6 4 8.8951e-07 5.43417e-05 8.03001e-05 2.12444e-05 1.29443e-10 8.27818e-10 5.45859e-10 0 0 0 
14 1 1.22837e-06 5.01179e-05 5.1298e-05 2.44706e-05 -3.97667e-10 -5.00083e-10 7.69271e-10 0 0 0 
56 1 1.0469e-06 4.58473e-05 4.67071e-05 1.37376e-06 5.5638e-11 8.30799e-10 5.53784e-10 0 0 0 
57 1 1.18126e-06 5.6996e-05 5.73105e-05 4.22903e-06 9.56522e-10 7.48866e-13 2.91659e-10 0 0 0 
58 1 1.26888e-06 4.92949e-05 4.64284e-05 6.36838e-06 8.06694e-10 2.93234e-10 5.13088e-10 0 0 0 
59 1 1.28626e-06 5.56523e-05 4.75322e-05 6.26383e-06 -6.02915e-10 6.80118e-10 -4.17053e-10 0 0 0 
60 1 1.23148e-06 4.75067e-05 5.7947e-05 1.23865e-05 -3.18786e-10 -1.96767e-11 9.47622e-10 0 0 0 
61 1 1.26077e-06 4.66374e-05 4.54624e-05 4.67812e-06 -8.06694e-10 -2.93234e-10 -5.13088e-10 0 0 0 
62 1 1.24046e-06 4.088e-05 5.71947e-05 2.17292e-06 -9.49057e-10 2.99026e-10 9.93717e-11 0 0 0 
63 1 1.12633e-06 4.82918e-05 5.1247e-05 1.06308e-05 6.73724e-10 -4.41888e-10 5.9231e-10 0 0 0 
64 1 1.2387e-06 4.77802e-05 5.08373e-05 6.13657e-06 -6.22318e-10 7.69358e-10 1.44253e-10 0 0 0 
65 1 1.22466e-06 5.36612e-05 5.74283e-05 1.45585e-05 -7.71858e-10 2.30639e-10 -5.92486e-10 0 0 0 
66 1 1.21393e-06 4.48668e-05 5.25557e-05 4.20237e-06 -5.45269e-11 2.28093e-10 9.72111e-10 0 0 0 
67 1 1.26673e-06 4.70388e-05 5.65862e-05 1.91645e-05 8.47931e-10 1.80764e-10 -4.98334e-10 0 0 0 
68 1 1.25501e-06 4.85219e-05 4.81712e-05 6.25738e-07 0 0 1e-09 0 0 3.5311e-07 
69 1 1.2903e-06 4.86135e-05 5.85559e-05 6.12604e-06 3.98645e-10 1.66734e-10 -9.01822e-10 0 0 0 
70 1 1.26845e-06 4.86888e-05 4.9394e-05 7.19512e-06 -1.12362e-11 3.19766e-10 -9.4743e-10 0 0 0 
71 1 1.33362e-06 4.01453e-05 6.42283e-05 1.10367e-05 -3.44804e-11 -9.99403e-10 -2.03911e-12 0 0 0 
72 1 1.2279e-06 5.15658e-05 5.9841e-05 2.50598e-06 -9.77678e-11 -9.24451e-11 -9.90906e-10 0 0 0 
73 1 1.30824e-06 4.88061e-05 4.54465e-05 9.28532e-06 8.16987e-10 1.55525e-10 5.55287e-10 0 0 0 
74 1 1.14462e-06 3.73767e-05 4.9078e-05 6.65278e-06 -5.58195e-10 7.15937e-10 4.19348e-10 0 0 0 
75 1 1.22341e-06 5.12331e-05 5.15437e-05 2.40209e-05 -3.97667e-10 -5.00083e-10 7.69271e-10 0 0 0 
76 1 1.18724e-06 5.49605e-05 5.73338e-05 1.7065e-05 8.87896e-10 2.20765e-10 -4.03614e-10 0 0 0 
77 1 1.2498e-06 4.78948e-05 4.86823e-05 1.12199e-05 -3.77618e-10 -1.39023e-11 9.25857e-10 0 0 0 
78 1 1.26045e-06 4.8776e-05 6.55316e-05 1.76652e-05 8.19846e-10 1.62624e-12 5.72582e-10 0 0 0 
79 1 1.16128e-06 5.01697e-05 4.89564e-05 1.03897e-05 8.61132e-10 2.26192e-10 4.5529e-10 0 0 0 
80 1 1.15733e-06 4.60867e-05 4.26678e-05 5.68922e-07 0 0 1e-09 0 0 1.94816e-06 
81 1 1.09877e-06 4.49703e-05 6.31259e-05 6.91621e-06 9.57689e-11 2.40602e-10 9.65888e-10 0 0 0 
82 1 1.09532e-06 5.69641e-05 4.59155e-05 5.55429e-07 0 0 -1e-09 0 0 -2.7176e-23 
83 1 1.20656e-06 4.78112e-05 5.25056e-05 6.07899e-07 3.35395e-58 1.75025e-58 -1e-09 0 0 -4.23426e-23 
84 1 1.15587e-06 4.32967e-05 4.57292e-05 1.42977e-05 5.58808e-10 -3.39617e-10 7.56567e-10 0 0 0 
85 1 1.16064e-06 5.05978e-05 5.00736e-05 5.76877e-07 1.09448e-317 -5.92194e-317 1e-09 7.53144e-315 -4.07506e-314 6.8813e-07 
86 1 1.07643e-06 4.7525e-05 4.67172e-05 1.01468e-05 -2.63995e-10 -1.41661e-10 -9.54064e-10 0 0 0 
87 1 1.07448e-06 4.4275e-05 6.11625e-05 5.36864e-07 -6.46911e-305 7.94392e-304 1e-09 -4.89131e-303 6.00641e-302 7.56103e-08 
88 1 1.1879e-06 5.31861e-05 5.44067e-05 3.33253e-06 3.36644e-10 9.41602e-10 7.53133e-12 0 0 0 
89 1 1.17464e-06 4.01399e-05 5.92969e-05 2.28076e-06 -3.03831e-11 -2.79792e-10 -9.5958e-10 0 0 0 
90 1 1.07879e-06 4.50178e-05 5.61079e-05 1.74287e-05 8.35904e-10 4.05202e-10 3.70238e-10 0 0 0 
91 1 1.17713e-06 5.29727e-05 4.82379e-05 1.38439e-05 6.63978e-10 -1.21464e-10 7.37821e-10 0 0 0 
92 1 1.11121e-06 4.6448e-05 5.93205e-05 5.56298e-07 0 0 -1e-09 0 0 -3.21086e-23 
93 1 1.18363e-06 4.91541e-05 5.78418e-05 9.90249e-06 6.89032e-10 -1.6635e-10 7.05381e-10 0 0 0 
94 1 1.18033e-06 4.57678e-05 4.55204e-05 5.96263e-07 -4.14238e-111 -6.1855e-110 -1e-09 0 0 -3.79028e-23 
95 1 1.03561e-06 5.66984e-05 5.68852e-05 5.33517e-06 9.56522e-10 7.48866e-13 2.91659e-10 0 0 0 
96 1 1.04845e-06 5.15591e-05 5.1241e-05 5.18922e-07 1.49533e-104 1.53795e-104 1e-09 1.58542e-101 1.63061e-101 1.06025e-06 
97 1 1.09825e-06 4.77923e-05 5.01271e-05 1.06799e-05 6.73724e-10 -4.41888e-10 5.9231e-10 0 0 0 
98 1 1.06502e-06 4.50499e-05 5.59561e-05 1.15463e-06 9.49057e-10 -2.99026e-10 -9.93717e-11 0 0 0 
99 1 1.15279e-06 4.6868e-05 5.61712e-05 5.49386e-06 -2.91594e-10 4.3359e-10 8.52627e-10 0 0 0 
100 1 1.15003e-06 5.06412e-05 4.69153e-05 8.45958e-06 6.03521e-10 6.36814e-11 7.948e-10 0 0 0 
101 1 1.16412e-06 4.42044e-05 4.52677e-05 9.84508e-06 -6.38419e-10 1.41196e-10 7.56627e-10 0 0 0 
102 1 1.17121e-06 4.88694e-05 5.30578e-05 5.88674e-07 -6.19327e-59 -3.23194e-59 -1e-09 0 0 -3.83594e-23 
103 1 1.02535e-06 4.76407e-05 5.54426e-05 2.16074e-05 -8.87896e-10 -2.20765e-10 4.03614e-10 0 0 0 
104 1 1.0788e-06 4.78474e-05 3.92452e-05 3.2582e-06 3.78461e-11 -9.75204e-10 -2.18047e-10 0 0 0 
105 1 1.0874e-06 5.69453e-05 5.63455e-05 1.63524e-05 7.71858e-10 -2.30639e-10 5.92486e-10 0 0 0 
106 1 1.1277e-06 5.03366e-05 4.78832e-05 4.94277e-06 6.22318e-10 -7.69358e-10 -1.44253e-10 0 0 0 
107 1 1.10578e-06 4.5227e-05 5.16767e-05 1.41571e-06 3.56949e-10 -1.60064e-10 9.20308e-10 1.13872e-05 -5.10626e-06 2.93591e-05 
108 1 1.12619e-06 4.50682e-05 4.97438e-05 1.53492e-05 -6.13689e-10 2.67143e-10 7.42981e-10 0 0 0 
109 1 1.01577e-06 4.00923e-05 5.31577e-05 1.46362e-05 -8.35904e-10 -4.05202e-10 -3.70238e-10 0 0 0 
ITEM: TIMESTEP
4000
ITEM: NUMBER OF ATOMS
198
ITEM: BOX BOUNDS ff ff ff
0 0.0001
0 0.0001
0 0.0001
ITEM: ATOMS id type diameter x y z vx vy vz fx fy fz 
104 1 1.36178e-06 4.83646e-05 3.60062e-05 6.72101e-07 2.09377e-140 -3.96933e-140 1e-09 3.6809e-137 -6.97819e-137 1.75803e-06 
80 1 1.22428e-06 4.59121e-05 4.26172e-05 6.18668e-07 0 0 -1e-09 0 0 -4.35331e-23 
39 1 1.19829e-06 4.74697e-05 4.33058e-05 5.99753e-07 0 0 -1e-09 0 0 -4.32942e-23 
157 1 1.17133e-06 4.59267e-05 4.48193e-05 5.76599e-07 -9.61277e-18 1.27407e-16 1e-09 -1.74273e-14 2.3098e-13 1.81293e-06 
94 1 1.1936e-06 4.58422e-05 4.60043e-05 5.87891e-07 -1.01881e-16 -1.8126e-17 1e-09 -1.8151e-13 -3.2293e-14 1.78159e-06 
177 1 1.17292e-06 5.13504e-05 4.64339e-05 5.7862e-07 -1.35801e-106 -4.44188e-106 1e-09 -2.12954e-103 -6.96547e-103 1.56814e-06 
82 1 1.11044e-06 5.69729e-05 4.61033e-05 5.22736e-07 -3.35249e-11 -7.17984e-10 6.95251e-10 -2.65587e-08 -5.68794e-07 5.50784e-07 
1 1 1.13606e-06 4.47769e-05 4.65042e-05 6.40602e-07 -9.02825e-10 4.27996e-10 4.15436e-11 0 0 0 
68 1 1.30653e-06 4.79254e-05 4.80087e-05 6.61836e-07 0 0 -1e-09 0 0 -5.52615e-23 
176 1 1.07434e-06 5.00648e-05 4.87224e-05 5.40285e-07 0 0 -1e-09 0 0 -2.69024e-23 
166 1 1.1151e-06 4.89381e-05 4.94412e-05 8.64567e-07 -9.55204e-10 -2.93966e-10 3.4186e-11 0 0 0 
85 1 1.20695e-06 5.11752e-05 4.95591e-05 8.45529e-07 -2.39634e-10 -9.65284e-10 1.03932e-10 0 0 0 
96 1 1.32347e-06 5.16249e-05 5.13705e-05 6.60501e-07 -2.71193e-211 -1.09241e-210 1e-09 -6.68794e-209 -2.69401e-208 2.46612e-07 
35 1 1.34691e-06 4.48792e-05 5.18327e-05 6.82441e-07 0 0 -1e-09 0 0 -6.22928e-23 
150 1 1.22563e-06 4.78141e-05 5.19847e-05 6.09778e-07 0 0 1e-09 0 0 6.07569e-07 
161 1 1.11715e-06 4.90151e-05 5.29824e-05 5.64033e-07 0 0 -1e-09 0 0 -3.04149e-23 
12 1 1.29318e-06 4.96324e-05 5.41181e-05 6.47371e-07 0 0 -1e-09 0 0 -5.8633e-23 
98 1 1.34439e-06 4.72252e-05 5.53038e-05 6.81258e-07 0 0 -1e-09 0 0 -6.1752e-23 
160 1 1.22204e-06 3.98279e-05 5.84826e-05 6.0885e-07 0 0 1e-09 0 0 4.33957e-07 
69 1 1.20472e-06 4.99509e-05 5.92798e-05 9.50048e-07 -1.23767e-10 4.55101e-11 -9.91267e-10 0 0 0 
141 1 1.274e-06 5.12564e-05 5.92008e-05 6.27385e-07 0 0 1e-09 0 0 1.92339e-06 
178 1 1.12476e-06 4.54226e-05 5.98529e-05 5.69951e-07 -1.66218e-164 -3.36011e-168 -1e-09 0 0 -3.02619e-23 
92 1 1.07178e-06 4.66133e-05 5.97866e-05 5.27625e-07 1.82804e-322 -8.39912e-323 1e-09 2.99261e-319 -1.41159e-319 1.6529e-06 
87 1 1.35634e-06 4.4275e-05 6.11625e-05 6.76864e-07 0 0 1e-09 0 0 2.60702e-07 
195 1 1.04303e-06 4.47423e-05 4.75451e-05 1.08244e-06 -9.86815e-11 9.19722e-10 3.79965e-10 0 0 0 
185 1 1.15198e-06 4.64103e-05 5.89192e-05 1.21838e-06 -3.43915e-10 8.55695e-10 -3.86662e-10 0 0 0 
194 1 1.08405e-06 5.69549e-05 4.57189e-05 1.51616e-06 -1.68494e-11 -3.60855e-10 9.3247e-10 -1.07433e-07 -2.30083e-06 5.94549e-06 
106 1 1.08319e-06 5.14788e-05 4.68539e-05 1.93736e-06 8.94985e-11 2.92738e-10 9.51995e-10 0 0 0 
18 1 1.20403e-06 5.03971e-05 4.74771e-05 1.71922e-06 6.64914e-10 -7.33679e-10 -1.40012e-10 0 0 0 
132 1 1.20408e-06 4.93108e-05 4.86695e-05 1.94479e-06 4.75798e-10 -8.40338e-10 -2.5971e-10 0 0 0 
24 1 1.07486e-06 5.06277e-05 5.10681e-05 1.71762e-06 5.42122e-10 8.35965e-10 8.52452e-11 0 0 0 
124 1 1.29995e-06 4.699e-05 5.74769e-05 1.87013e-06 3.43915e-10 -8.55695e-10 3.86662e-10 0 0 0 
57 1 1.25561e-06 5.9796e-05 5.84729e-05 1.58885e-06 2.43499e-10 3.48065e-10 -9.05295e-10 0 0 0 
62 1 1.20595e-06 3.64747e-05 5.85294e-05 1.78532e-06 9.67079e-11 -9.19923e-11 -9.91052e-10 0 0 0 
5 5 1.4839e-06 7.40607e-05 1.7158e-05 2e-06 5.55675e-10 -8.314e-10 0 0 0 0 
128 1 1.33886e-06 4.41787e-05 4.48099e-05 2.1866e-06 8.45929e-10 4.97444e-10 -1.92235e-10 0 0 0 
70 1 1.31065e-06 4.87015e-05 4.97457e-05 2.27739e-06 -4.75798e-10 8.40338e-10 2.5971e-10 0 0 0 
83 1 1.19159e-06 4.73185e-05 5.49194e-05 2.21246e-06 -1.46408e-10 8.66952e-10 4.76403e-10 0 0 0 
197 1 1.1262e-06 5.01502e-05 5.82123e-05 2.12415e-06 -7.44551e-10 6.26882e-10 -2.29484e-10 0 0 0 
28 1 1.0483e-06 5.04033e-05 5.93711e-05 2.43138e-06 -7.44551e-10 6.26882e-10 -2.29484e-10 0 0 0 
41 1 1.13245e-06 4.50439e-05 5.98529e-05 2.11106e-06 -2.39263e-10 -4.83672e-14 9.70955e-10 0 0 0 
89 1 1.12793e-06 4.10978e-05 6.02061e-05 2.25108e-06 4.65744e-10 6.3212e-10 6.19279e-10 0 0 0 
72 1 1.18311e-06 5.21426e-05 6.23153e-05 2.45912e-06 2.37253e-10 8.33829e-10 4.98438e-10 0 0 0 
3 3 1.06954e-06 3.10545e-05 8.15039e-05 2e-06 -5.55675e-10 8.314e-10 0 0 0 0 
4 4 1.02661e-06 2.75739e-05 8.33385e-05 2e-06 -5.40654e-10 8.41245e-10 0 0 0 0 
168 1 1.08659e-06 4.64308e-05 4.25808e-05 2.64021e-06 2.50972e-10 -1.76219e-11 9.67834e-10 0 0 0 
61 1 1.17711e-06 4.2096e-05 4.35852e-05 2.65989e-06 -8.45929e-10 -4.97444e-10 1.92235e-10 0 0 0 
151 1 1.1998e-06 4.75522e-05 4.39829e-05 2.58143e-06 6.29514e-10 6.13584e-10 4.76683e-10 0 0 0 
118 1 1.29863e-06 3.99453e-05 4.43908e-05 2.94412e-06 -9.46442e-11 -5.72093e-10 -8.1471e-10 0 0 0 
184 1 1.15928e-06 5.12314e-05 5.04956e-05 2.61723e-06 5.42122e-10 8.35965e-10 8.52452e-11 0 0 0 
102 1 1.22478e-06 4.86023e-05 5.32524e-05 2.97658e-06 -1.66724e-10 1.09055e-10 9.79954e-10 0 0 0 
153 1 1.25196e-06 5.3763e-05 5.31368e-05 2.67456e-06 -4.57373e-10 -7.84871e-10 -4.18076e-10 0 0 0 
32 1 1.2702e-06 4.94457e-05 5.63721e-05 2.58006e-06 8.55468e-10 -4.41563e-10 2.70548e-10 0 0 0 
156 1 1.10135e-06 5.96361e-05 5.81886e-05 2.7664e-06 2.43499e-10 3.48065e-10 -9.05295e-10 0 0 0 
123 1 1.33317e-06 5.30878e-05 5.01864e-05 3.05998e-06 1.58965e-10 -9.85428e-10 -6.05162e-11 0 0 0 
162 1 1.22687e-06 5.2879e-05 5.15254e-05 3.11265e-06 2.31243e-10 -8.75954e-10 -4.23357e-10 0 0 0 
56 1 1.32151e-06 4.57604e-05 5.04239e-05 3.5824e-06 -7.37921e-10 -1.19645e-10 -6.64197e-10 0 0 0 
27 1 1.11121e-06 5.25729e-05 5.26849e-05 3.67305e-06 -2.31243e-10 8.75954e-10 4.23357e-10 0 0 0 
115 1 1.29102e-06 5.30503e-05 5.67524e-05 3.57603e-06 5.44935e-10 8.1545e-10 -1.95158e-10 0 0 0 