ITEM: TIMESTEP
0
ITEM: NUMBER OF ATOMS
5
ITEM: BOX BOUNDS ff ff ff
0 0.0001
0 0.0001
0 0.0001
ITEM: ATOMS id type diameter x y z vx vy vz fx fy fz 
2 2 1.2839e-06 5e-05 4.9e-05 2e-06 0 0 0 -7.678e-05 0 0 
5 5 1.4839e-06 5.1e-05 4.9e-05 2e-06 0 0 0 7.678e-05 -5.122e-05 0 
4 4 1.0539e-06 4.9e-05 5e-05 2e-06 0 0 0 0 0 0 
3 3 1.0283e-06 5.1e-05 5e-05 2e-06 0 0 0 0 5.122e-05 0 
1 1 1.0839e-06 5e-05 5.1e-05 2e-06 0 0 0 0 0 0 
ITEM: TIMESTEP
500
ITEM: NUMBER OF ATOMS
6
ITEM: BOX BOUNDS ff ff ff
0 0.0001
0 0.0001
0 0.0001
ITEM: ATOMS id type diameter x y z vx vy vz fx fy fz 
2 2 1.3353e-06 4.97807e-05 4.90164e-05 2e-06 9.952e-10 -9.78637e-11 -1.40911e-16 9.9323e-11 -9.767e-12 -1.40632e-17 
5 5 1.4839e-06 5.1198e-05 4.89123e-05 2e-06 1.64591e-10 -9.86362e-10 2.30356e-16 2.69427e-07 -1.61463e-06 3.77081e-13 
4 4 1.05045e-06 4.90091e-05 5.00073e-05 2e-06 -9.83981e-10 -1.78271e-10 1.3856e-13 -9.77333e-11 -1.77067e-11 1.37624e-14 
3 3 1.06129e-06 5.09898e-05 5.01595e-05 2e-06 -1.64591e-10 9.86362e-10 -2.30361e-16 -2.69427e-07 1.61463e-06 -3.77089e-13 
1 1 1.20611e-06 4.9994e-05 5.0992e-05 1.99888e-06 6.54831e-10 7.55708e-10 -1.01158e-11 6.49746e-11 7.4984e-11 -1.00372e-12 
6 4 9.07185e-07 4.99104e-05 5.1947e-05 2.54915e-06 -8.02603e-11 8.62666e-10 4.99366e-10 -8.04192e-12 8.64373e-11 5.00354e-11 
ITEM: TIMESTEP
1000
ITEM: NUMBER OF ATOMS
7
ITEM: BOX BOUNDS ff ff ff
0 0.0001
0 0.0001
0 0.0001
ITEM: ATOMS id type diameter x y z vx vy vz fx fy fz 
2 2 1.38875e-06 4.97811e-05 4.90205e-05 2e-06 9.96056e-10 -8.87242e-11 8.07318e-18 9.9488e-11 -8.86194e-12 8.06364e-19 
5 5 1.4839e-06 5.12213e-05 4.88909e-05 2e-06 1.79201e-10 -9.83812e-10 -1.41137e-15 3.52555e-09 -1.93552e-08 -2.77669e-14 
4 4 1.04701e-06 4.90084e-05 5.0011e-05 1.99998e-06 -9.85082e-10 -1.72082e-10 1.19224e-12 -9.81856e-11 -1.71519e-11 1.18833e-13 
3 3 1.09533e-06 5.09901e-05 5.01595e-05 2e-06 -1.79286e-10 9.83797e-10 1.36975e-15 -3.52721e-09 1.93549e-08 2.6948e-14 
1 1 1.3421e-06 4.99938e-05 5.09897e-05 1.99982e-06 7.91819e-11 -8.68716e-10 -4.88941e-10 2.5659e-07 -2.81508e-06 -1.58442e-06 
6 4 9.04215e-07 4.99061e-05 5.19513e-05 2.54106e-06 -7.91819e-11 8.68715e-10 4.88941e-10 -2.56589e-07 2.81508e-06 1.58442e-06 
7 4 9.47794e-07 4.94979e-05 5.17899e-05 1.31525e-06 6.53025e-10 7.56796e-10 -2.8587e-11 6.54316e-11 7.58292e-11 -2.86435e-12 
ITEM: TIMESTEP
1500
ITEM: NUMBER OF ATOMS
8
ITEM: BOX BOUNDS ff ff ff
0 0.0001
0 0.0001
0 0.0001
ITEM: ATOMS id type diameter x y z vx vy vz fx fy fz 
7 4 9.44691e-07 4.94969e-05 5.17951e-05 1.3222e-06 -3.63861e-10 7.25783e-10 -5.83818e-10 -3.02462e-09 6.03311e-09 -4.85302e-09 
2 2 1.06852e-06 4.98479e-05 4.8685e-05 1.58957e-06 -1.04749e-10 6.25399e-10 7.73242e-10 -1.06701e-11 6.37058e-11 7.87657e-11 
5 5 1.4839e-06 5.12213e-05 4.88909e-05 2e-06 1.45655e-10 -9.89335e-10 2.76506e-13 1.45655e-11 -9.89335e-11 2.76506e-14 
4 4 1.04358e-06 4.89638e-05 5.00099e-05 1.94238e-06 -6.89544e-10 5.38095e-10 -4.84751e-10 -6.77916e-11 5.29021e-11 -4.76577e-11 
1 1 1.49342e-06 4.99404e-05 5.09104e-05 2.03389e-06 3.73063e-10 -7.21982e-10 5.82723e-10 3.08475e-09 -5.96987e-09 4.81837e-09 
8 2 1.21489e-06 4.97403e-05 4.93999e-05 2.49698e-06 9.28548e-11 -6.15332e-10 -7.8278e-10 9.28201e-12 -6.15102e-11 -7.82488e-11 
3 3 1.13047e-06 5.10378e-05 5.01879e-05 1.99935e-06 -8.32992e-10 5.52563e-10 2.82701e-11 -8.28614e-11 5.49659e-11 2.81215e-12 
6 4 9.01254e-07 4.98992e-05 5.19907e-05 2.55151e-06 4.08765e-11 -9.00365e-10 -4.33212e-10 4.07169e-12 -8.96849e-11 -4.31521e-11 
ITEM: TIMESTEP
2000
ITEM: NUMBER OF ATOMS
11
ITEM: BOX BOUNDS ff ff ff
0 0.0001
0 0.0001
0 0.0001
ITEM: ATOMS id type diameter x y z vx vy vz fx fy fz 
7 4 9.41598e-07 4.94972e-05 5.18029e-05 1.33175e-06 -3.66753e-10 7.3491e-10 -5.70438e-10 -3.63481e-11 7.28352e-11 -5.65347e-11 
2 2 1.11129e-06 4.9774e-05 4.86397e-05 1.59067e-06 -2.74086e-11 6.46391e-10 7.62514e-10 -2.78314e-12 6.56362e-11 7.74277e-11 
5 5 1.4839e-06 5.12209e-05 4.88909e-05 1.9998e-06 1.13707e-10 -9.93265e-10 -2.22679e-11 1.13704e-11 -9.93245e-11 -2.22675e-12 
4 4 1.04017e-06 4.90011e-05 4.99873e-05 1.86905e-06 -6.54866e-10 5.04716e-10 -5.62505e-10 -1.47527e-06 1.13702e-06 -1.2672e-06 
1 1 1.29468e-06 5.0087e-05 5.05616e-05 1.40285e-06 -8.08036e-10 2.85783e-10 -5.15175e-10 -2.26089e-07 7.99624e-08 -1.44146e-07 
8 2 1.26352e-06 4.9748e-05 4.94117e-05 2.51063e-06 6.54866e-10 -5.04716e-10 5.62505e-10 1.47527e-06 -1.13702e-06 1.2672e-06 
3 3 1.16674e-06 5.10803e-05 5.02103e-05 2.03616e-06 8.08036e-10 -2.85783e-10 5.15175e-10 2.26089e-07 -7.99623e-08 1.44146e-07 
6 4 8.98304e-07 4.994e-05 5.21626e-05 2.5038e-06 -2.42997e-10 -9.58082e-10 1.51764e-10 -2.42446e-11 -9.55912e-11 1.51421e-11 
9 1 1.34241e-06 4.96674e-05 5.10821e-05 2.67997e-06 2.36759e-10 9.58581e-10 -1.58325e-10 2.37056e-11 9.59785e-11 -1.58524e-11 
10 4 8.89906e-07 5.03021e-05 4.94906e-05 1.53115e-06 -2.08697e-10 9.72229e-10 -1.05907e-10 -2.10547e-11 9.80851e-11 -1.06846e-11 
11 4 9.26292e-07 5.01748e-05 5.09068e-05 3.68252e-06 4.43035e-10 -1.61968e-10 8.81752e-10 4.44558e-11 -1.62524e-11 8.84783e-11 
ITEM: TIMESTEP
2500
ITEM: NUMBER OF ATOMS
11
ITEM: BOX BOUNDS ff ff ff
0 0.0001
0 0.0001
0 0.0001
ITEM: ATOMS id type diameter x y z vx vy vz fx fy fz 
1 1 1.44065e-06 5.00546e-05 5.0598e-05 1.32788e-06 2.57509e-10 -9.63495e-10 7.32524e-11 2.57401e-11 -9.63088e-11 7.32214e-12 
7 4 9.38515e-07 4.94968e-05 5.18111e-05 1.34278e-06 -3.64737e-10 7.47992e-10 -5.54504e-10 -3.63389e-11 7.45229e-11 -5.52455e-11 
2 2 1.15578e-06 4.97417e-05 4.8646e-05 1.56749e-06 -1.79301e-10 -7.47197e-10 -6.39959e-10 -6.15504e-08 -2.56497e-07 -2.19684e-07 
5 5 1.4839e-06 5.12209e-05 4.88909e-05 1.99978e-06 3.15693e-10 -9.40406e-10 1.26392e-10 8.73329e-07 -2.60152e-06 3.49649e-07 
4 4 1.03676e-06 4.90164e-05 4.99717e-05 1.80518e-06 6.42994e-10 -4.83961e-10 5.93582e-10 6.60284e-11 -4.96974e-11 6.09543e-11 
10 4 8.86993e-07 5.03481e-05 4.94577e-05 1.44202e-06 -6.77716e-10 5.55276e-10 -4.82047e-10 -6.4172e-07 5.25783e-07 -4.56444e-07 
3 3 1.20416e-06 5.11116e-05 5.02183e-05 2.05874e-06 -8.1924e-11 9.95657e-10 4.42221e-11 -1.76837e-07 2.14917e-06 9.54555e-08 
8 2 1.3141e-06 4.97698e-05 4.9412e-05 2.53393e-06 2.27566e-11 6.20952e-10 7.83518e-10 6.71168e-09 1.83139e-07 2.31086e-07 
9 1 1.49377e-06 4.95915e-05 5.10342e-05 2.65646e-06 -4.90894e-10 1.07695e-10 -8.64537e-10 -1.38257e-07 3.03314e-08 -2.43491e-07 
6 4 8.95363e-07 4.99423e-05 5.21809e-05 2.49035e-06 -2.90632e-10 -9.47619e-10 1.32482e-10 -2.89094e-11 -9.42606e-11 1.31781e-11 
11 4 9.23259e-07 5.0184e-05 5.09042e-05 3.70005e-06 4.90894e-10 -1.07695e-10 8.64537e-10 1.38257e-07 -3.03316e-08 2.43492e-07 
ITEM: TIMESTEP
3000
ITEM: NUMBER OF ATOMS
17
ITEM: BOX BOUNDS ff ff ff
0 0.0001
0 0.0001
0 0.0001
ITEM: ATOMS id type diameter x y z vx vy vz fx fy fz 
1 1 1.34002e-06 5.07483e-05 5.06059e-05 1.24144e-06 9.59494e-10 2.45505e-10 1.382e-10 9.68358e-11 2.47773e-11 1.39476e-11 
7 4 9.35442e-07 4.93749e-05 5.19885e-05 1.18788e-06 -5.06445e-10 4.80862e-10 -7.15741e-10 -5.0721e-11 4.81588e-11 -7.16821e-11 
2 2 1.20204e-06 4.9872e-05 4.84269e-05 1.57115e-06 5.36311e-10 -8.29376e-10 1.56542e-10 5.3615e-11 -8.29127e-11 1.56495e-11 
5 5 1.4839e-06 5.12305e-05 4.8733e-05 1.98477e-06 -2.93519e-11 -9.73129e-10 -2.28383e-10 -2.93462e-12 -9.7294e-11 -2.28339e-11 
4 4 1.03337e-06 4.87749e-05 4.99916e-05 1.90278e-06 -6.69328e-10 -5.43252e-10 -5.06831e-10 -6.31243e-07 -5.12341e-07 -4.77992e-07 
10 4 8.84089e-07 5.0345e-05 4.94601e-05 1.44929e-06 -7.45062e-10 4.88878e-10 -4.53741e-10 -7.45466e-11 4.89143e-11 -4.53987e-11 
3 3 1.24279e-06 5.12757e-05 5.00633e-05 2.30684e-06 -4.04565e-10 4.14555e-10 -8.15151e-10 -4.04262e-11 4.14245e-11 -8.14542e-11 
8 2 1.36671e-06 4.97796e-05 4.94408e-05 2.58914e-06 -4.01441e-10 -1.1508e-10 -9.08626e-10 -4.033e-11 -1.15612e-11 -9.12833e-11 
9 1 1.23401e-06 4.92513e-05 5.07635e-05 3.38348e-06 -1.47376e-10 2.41808e-10 9.59067e-10 -1.47423e-11 2.41884e-11 9.59369e-11 
6 4 8.92431e-07 4.99778e-05 5.23949e-05 2.63791e-06 -1.04726e-11 -8.44551e-10 -5.35373e-10 -1.04325e-12 -8.41319e-11 -5.33324e-11 
11 4 9.20236e-07 5.0267e-05 5.09171e-05 3.75094e-06 -9.31216e-10 -1.40254e-10 -3.36401e-10 -9.28842e-11 -1.39897e-11 -3.35543e-11 
12 1 1.19664e-06 4.95294e-05 5.03011e-05 1.06275e-06 -2.20887e-10 -9.22019e-10 3.17945e-10 -2.21224e-11 -9.23424e-11 3.1843e-11 
13 1 1.39476e-06 4.99657e-05 5.1418e-05 2.01868e-06 7.79682e-12 8.42614e-10 5.38462e-10 7.85729e-13 8.49149e-11 5.42638e-11 
14 4 1.0322e-06 4.98782e-05 5.13434e-05 6.12412e-07 -4.96221e-10 6.65785e-10 5.57221e-10 -4.96819e-11 6.66587e-11 5.57892e-11 
15 4 8.57979e-07 4.94047e-05 5.05028e-05 2.37968e-06 6.69328e-10 5.43252e-10 5.06831e-10 6.31242e-07 5.1234e-07 4.77991e-07 
16 4 9.24733e-07 4.92949e-05 4.93063e-05 1.40809e-06 2.18664e-10 9.24291e-10 -3.12845e-10 2.19293e-11 9.26947e-11 -3.13744e-11 
17 4 9.57659e-07 5.06908e-05 5.175e-05 1.03342e-06 4.31823e-11 -9.80688e-10 1.9075e-10 4.29898e-12 -9.76318e-11 1.899e-11 
ITEM: TIMESTEP
3500
ITEM: NUMBER OF ATOMS
19
ITEM: BOX BOUNDS ff ff ff
0 0.0001
0 0.0001
0 0.0001
ITEM: ATOMS id type diameter x y z vx vy vz fx fy fz 
14 4 1.02882e-06 4.98948e-05 5.13417e-05 5.11707e-07 -1.16247e-10 -2.23362e-11 9.92969e-10 -6.3256e-08 -1.21543e-08 5.40326e-07 
16 4 9.21706e-07 4.92009e-05 4.92492e-05 1.35862e-06 -6.21035e-10 7.58831e-10 -1.96192e-10 -4.15071e-07 5.07167e-07 -1.31126e-07 
10 4 8.81194e-07 5.03899e-05 4.94601e-05 1.37249e-06 -6.49295e-10 1.6068e-10 7.4337e-10 -6.51892e-11 1.61323e-11 7.46343e-11 
12 1 1.33156e-06 4.94912e-05 5.02742e-05 9.4206e-07 -2.15774e-10 -8.02628e-10 -5.56084e-10 -1.89043e-08 -7.03196e-08 -4.87195e-08 
1 1 1.49111e-06 5.08703e-05 5.05562e-05 1.0994e-06 -2.96359e-10 3.49443e-10 -8.88854e-10 -1.14547e-07 1.35065e-07 -3.43555e-07 
19 1 1.27103e-06 4.97719e-05 5.13183e-05 1.66546e-06 2.15957e-10 8.02109e-10 5.56762e-10 1.89127e-08 7.02458e-08 4.87592e-08 
7 4 9.3238e-07 4.92541e-05 5.21298e-05 1.12247e-06 -4.69011e-10 7.29884e-10 -4.97291e-10 -4.70313e-11 7.3191e-11 -4.98671e-11 
17 4 9.54524e-07 5.07737e-05 5.17884e-05 9.96965e-07 7.4766e-11 -9.93819e-10 8.20644e-11 7.43636e-12 -9.8847e-11 8.16227e-12 
2 2 1.25016e-06 4.98732e-05 4.84277e-05 1.57101e-06 6.21035e-10 -7.58831e-10 1.96192e-10 4.15071e-07 -5.07167e-07 1.31126e-07 
5 5 1.4839e-06 5.12297e-05 4.87332e-05 1.98405e-06 -3.32345e-11 -9.69606e-10 -2.42402e-10 -3.32282e-12 -9.69421e-11 -2.42356e-11 
4 4 1.02998e-06 4.87767e-05 4.99782e-05 1.91504e-06 -6.88566e-10 -5.54348e-10 -4.67521e-10 -7.62263e-07 -6.1368e-07 -5.1756e-07 
8 2 1.06529e-06 4.97479e-05 4.96259e-05 2.11137e-06 4.34299e-11 1.42432e-10 -9.88851e-10 4.96525e-08 1.62839e-07 -1.13053e-06 
3 3 1.28266e-06 5.12808e-05 5.00722e-05 2.33042e-06 2.96359e-10 -3.49442e-10 8.88854e-10 1.14547e-07 -1.35065e-07 3.43556e-07 
15 4 8.5517e-07 4.94219e-05 5.04977e-05 2.35312e-06 6.88566e-10 5.54348e-10 4.67521e-10 7.62263e-07 6.13679e-07 5.1756e-07 
13 1 1.18998e-06 5.01602e-05 5.13993e-05 2.83512e-06 -1.04074e-11 -5.5663e-11 -9.98395e-10 -1.47172e-08 -7.87136e-08 -1.41184e-06 
6 4 8.8951e-07 4.99748e-05 5.23951e-05 2.62306e-06 -1.79133e-10 9.62246e-10 -2.04923e-10 -1.75348e-07 9.41914e-07 -2.00593e-07 
18 2 1.18475e-06 4.96993e-05 4.94665e-05 3.2182e-06 -4.34299e-11 -1.42432e-10 9.88851e-10 -4.96525e-08 -1.62839e-07 1.13053e-06 
9 1 1.37315e-06 4.91922e-05 5.07537e-05 3.4274e-06 -9.48614e-10 -1.36943e-10 -2.85268e-10 -2.07479e-06 -2.99517e-07 -6.23932e-07 
11 4 9.17224e-07 5.02682e-05 5.0909e-05 3.75097e-06 7.00666e-10 -1.74371e-10 6.91854e-10 2.26478e-06 -5.63624e-07 2.23629e-06 
ITEM: TIMESTEP
4000
ITEM: NUMBER OF ATOMS
28
ITEM: BOX BOUNDS ff ff ff
0 0.0001
0 0.0001
0 0.0001
ITEM: ATOMS id type diameter x y z vx vy vz fx fy fz 
14 4 1.02545e-06 4.96857e-05 5.16584e-05 5.12427e-07 -6.57296e-10 5.10166e-10 5.547e-10 -7.04897e-08 5.47112e-08 5.94871e-08 
16 4 9.18688e-07 4.90022e-05 4.91131e-05 1.48163e-06 4.23273e-11 7.82685e-10 -6.20977e-10 4.23561e-12 7.83218e-11 -6.21399e-11 
10 4 8.78309e-07 5.04117e-05 4.94295e-05 1.31806e-06 -5.0997e-10 1.55979e-10 8.45932e-10 -5.1274e-11 1.56827e-11 8.50527e-11 
12 1 1.4817e-06 4.90528e-05 5.00457e-05 7.2721e-07 -5.75969e-10 -5.70593e-10 5.85392e-10 -3.75723e-06 -3.72215e-06 3.81869e-06 
1 1 1.30041e-06 5.11207e-05 4.99845e-05 6.54059e-07 7.49485e-10 -3.34811e-10 -5.71116e-10 7.60924e-07 -3.39921e-07 -5.79833e-07 
19 1 1.41434e-06 4.94126e-05 5.11702e-05 1.67748e-06 1.91214e-10 -8.8605e-10 4.22318e-10 2.38001e-07 -1.10285e-06 5.25651e-07 
7 4 9.29327e-07 4.91898e-05 5.2203e-05 1.18523e-06 -1.91196e-10 8.86058e-10 -4.22309e-10 -2.37979e-07 1.10286e-06 -5.25642e-07 
17 4 9.51399e-07 5.08898e-05 5.20645e-05 1.17635e-06 1.47892e-10 -8.5072e-10 5.04385e-10 1.47404e-11 -8.47912e-11 5.0272e-11 
2 2 1.30021e-06 4.9874e-05 4.84287e-05 1.57079e-06 7.81117e-10 -6.18315e-10 8.68504e-11 7.81046e-11 -6.18259e-11 8.68425e-12 
5 5 1.4839e-06 5.12276e-05 4.87146e-05 1.97692e-06 8.89864e-11 9.22871e-10 3.74686e-10 8.89976e-12 9.22987e-11 3.74733e-11 
4 4 1.02661e-06 4.89199e-05 5.00266e-05 2.12876e-06 7.46019e-10 4.74233e-10 4.67502e-10 7.46524e-11 4.74554e-11 4.67818e-11 
8 2 1.10793e-06 4.99029e-05 4.95905e-05 2.17207e-06 1.96818e-10 1.67682e-10 -9.65995e-10 6.49145e-08 5.53047e-08 -3.18604e-07 
3 3 1.32381e-06 5.13544e-05 5.00245e-05 2.5093e-06 2.14058e-10 -7.96994e-10 5.64783e-10 6.85389e-08 -2.55188e-07 1.80837e-07 
15 4 8.5237e-07 4.96242e-05 5.04842e-05 2.57051e-06 -6.0026e-11 7.20834e-10 -6.90504e-10 -5.95177e-12 7.1473e-11 -6.84656e-11 
13 1 1.32415e-06 5.02517e-05 5.13597e-05 2.77913e-06 1.85955e-11 -5.28683e-10 -8.48615e-10 3.08175e-08 -8.76162e-07 -1.40637e-06 
6 4 8.86597e-07 5.01248e-05 5.24503e-05 2.78707e-06 -1.15613e-10 9.93268e-10 7.23543e-12 -1.72629e-07 1.48311e-06 1.08037e-08 
18 2 1.23217e-06 4.96731e-05 4.93945e-05 3.30075e-06 -1.9672e-10 -1.67774e-10 9.65999e-10 -6.48838e-08 -5.53369e-08 3.18614e-07 
9 1 1.25812e-06 4.8828e-05 5.11041e-05 2.90854e-06 -7.56706e-10 5.13296e-10 4.04875e-10 -7.63004e-11 5.17568e-11 4.08245e-11 
11 4 9.14221e-07 5.03548e-05 5.09183e-05 3.79404e-06 9.27797e-11 -3.97105e-10 9.13071e-10 1.4181e-07 -6.06959e-07 1.39559e-06 
20 1 1.33305e-06 5.10704e-05 5.1082e-05 1.75993e-06 -1.73869e-10 8.24402e-10 -5.38638e-10 -5.61295e-08 2.66139e-07 -1.73887e-07 
21 1 1.16371e-06 4.94549e-05 5.04142e-05 3.92027e-06 1.79175e-10 -8.39879e-10 -5.12347e-10 1.793e-11 -8.40466e-11 -5.12705e-11 
22 4 1.11564e-06 4.80348e-05 4.97123e-05 1.46486e-06 7.86891e-10 2.53004e-10 -5.62843e-10 7.85348e-11 2.52509e-11 -5.6174e-11 
23 4 9.15142e-07 4.99729e-05 5.0724e-05 4.56565e-07 7.81483e-10 5.92211e-10 -1.96394e-10 3.5394e-06 2.68217e-06 -8.89487e-07 
24 4 1.00124e-06 5.07225e-05 5.13355e-05 5.33788e-07 -7.70353e-10 -6.32727e-10 -7.88217e-11 -7.74362e-11 -6.3602e-11 -7.92319e-12 
25 4 9.84896e-07 4.94601e-05 5.2324e-05 2.11699e-06 7.69383e-12 -9.37365e-10 -3.48264e-10 7.69318e-13 -9.37286e-11 -3.48234e-11 
26 4 9.581e-07 4.82504e-05 5.17133e-05 2.1226e-06 -9.54456e-10 -1.20154e-10 -2.73088e-10 -9.47697e-11 -1.19303e-11 -2.71154e-11 
27 4 1.00587e-06 5.02603e-05 5.03689e-05 1.30974e-06 -7.60332e-10 3.23474e-10 5.63258e-10 -7.73348e-07 3.29012e-07 5.729e-07 
28 4 8.96455e-07 4.95686e-05 4.96478e-05 4.61637e-06 -9.42346e-10 -1.26973e-10 -3.09616e-10 -9.4237e-11 -1.26976e-11 -3.09624e-11 
ITEM: TIMESTEP
4500
ITEM: NUMBER OF ATOMS
30
ITEM: BOX BOUNDS ff ff ff
0 0.0001
0 0.0001
0 0.0001
ITEM: ATOMS id type diameter x y z vx vy vz fx fy fz 
23 4 9.12146e-07 5.03428e-05 5.08438e-05 4.54945e-07 -7.62296e-10 -5.46806e-10 3.46277e-10 -4.68597e-07 -3.36131e-07 2.12862e-07 
1 1 1.44703e-06 5.11771e-05 4.99695e-05 7.29332e-07 6.9901e-10 5.07593e-10 -5.0372e-10 2.33928e-06 1.69869e-06 -1.68573e-06 
29 1 1.29465e-06 4.94014e-05 5.02935e-05 6.37626e-07 7.65675e-10 2.7798e-10 5.8006e-10 1.29986e-06 4.71917e-07 9.84746e-07 
24 4 9.97958e-07 5.10392e-05 5.14936e-05 5.05605e-07 4.94117e-10 -4.05544e-10 -7.69014e-10 2.84575e-07 -2.33563e-07 -4.42894e-07 
14 4 1.02209e-06 4.96712e-05 5.16788e-05 5.1793e-07 -1.75452e-10 2.4374e-10 -9.53838e-10 -1.83311e-08 2.54659e-08 -9.96566e-08 
16 4 9.1568e-07 4.90163e-05 4.87423e-05 1.65763e-06 4.31956e-10 -8.75285e-10 2.17461e-10 1.02295e-06 -2.07283e-06 5.14987e-07 
10 4 8.75434e-07 5.03771e-05 4.93885e-05 1.30582e-06 -6.99012e-10 -5.07607e-10 5.03704e-10 -2.3393e-06 -1.69875e-06 1.68569e-06 
22 4 1.11199e-06 4.73574e-05 4.96305e-05 1.61967e-06 -9.83329e-10 -6.73728e-11 1.68891e-10 -3.22088e-06 -2.20678e-07 5.53198e-07 
12 1 1.3223e-06 4.85381e-05 4.97114e-05 1.41687e-06 5.83996e-10 8.09701e-10 -5.77271e-11 1.13936e-06 1.5797e-06 -1.12624e-07 
27 4 1.00257e-06 5.02468e-05 5.03644e-05 1.42581e-06 -7.41113e-10 -6.09429e-11 -6.68608e-10 -7.40527e-11 -6.08947e-12 -6.6808e-11 
19 1 1.19501e-06 4.98656e-05 5.14087e-05 1.57481e-06 8.87259e-10 4.44949e-10 -1.21619e-10 2.99844e-07 1.50368e-07 -4.11005e-08 
7 4 9.26285e-07 4.91267e-05 5.23043e-05 1.1923e-06 -4.55035e-10 8.9024e-10 -2.03904e-11 -4.54321e-11 8.88843e-11 -2.03584e-12 
17 4 9.48284e-07 5.08687e-05 5.21221e-05 1.22458e-06 -3.97944e-10 9.15721e-10 -5.5641e-11 -7.64956e-07 1.76026e-06 -1.06957e-07 
2 2 1.35226e-06 5.00091e-05 4.81791e-05 1.52354e-06 -8.71914e-10 -3.71473e-10 -3.1902e-10 -5.73253e-07 -2.4423e-07 -2.09744e-07 
5 5 1.4839e-06 5.12427e-05 4.87047e-05 1.97489e-06 8.71914e-10 3.71473e-10 3.1902e-10 5.73253e-07 2.4423e-07 2.09744e-07 
20 1 1.48335e-06 5.13605e-05 5.11026e-05 1.64576e-06 4.07167e-10 -8.44177e-10 3.48683e-10 6.56899e-07 -1.36195e-06 5.62544e-07 
8 2 1.15228e-06 4.98913e-05 4.95487e-05 2.19932e-06 3.82206e-10 -7.22934e-10 -5.75573e-10 6.35345e-07 -1.20174e-06 -9.56783e-07 
4 4 1.02325e-06 4.88784e-05 4.97198e-05 2.5503e-06 -9.33131e-10 1.57645e-10 3.23133e-10 -4.22251e-07 7.13359e-08 1.46221e-07 
30 1 1.29893e-06 4.88934e-05 5.08015e-05 2.06095e-06 -8.91323e-11 -9.08507e-10 -4.08252e-10 -5.11062e-08 -5.20915e-07 -2.34081e-07 
26 4 9.54964e-07 4.82534e-05 5.17264e-05 2.10759e-06 -5.68526e-10 8.21621e-10 4.14336e-11 -1.41339e-07 2.0426e-07 1.03006e-08 
25 4 9.81671e-07 4.945e-05 5.23209e-05 2.12443e-06 4.79545e-11 -9.31783e-10 -3.59836e-10 4.80418e-12 -9.33479e-11 -3.60491e-11 
15 4 8.49579e-07 4.97408e-05 5.03471e-05 2.77176e-06 -1.5141e-10 8.03336e-10 5.75957e-10 -2.13062e-07 1.13044e-06 8.10477e-07 
3 3 1.36628e-06 5.1363e-05 4.9999e-05 2.56677e-06 -2.67418e-11 7.57569e-10 -6.52207e-10 -2.66198e-12 7.54112e-11 -6.49231e-11 
9 1 1.39997e-06 4.85937e-05 5.1275e-05 3.28635e-06 -6.57864e-10 7.11678e-10 2.46434e-10 -4.10703e-07 4.44299e-07 1.53848e-07 
13 1 1.47344e-06 5.04382e-05 5.13139e-05 2.78704e-06 -4.39621e-10 7.55795e-11 -8.94998e-10 -4.32324e-11 7.43251e-12 -8.80143e-11 
6 4 8.83695e-07 5.01242e-05 5.24502e-05 2.78655e-06 -2.67195e-10 9.63625e-10 5.84703e-12 -2.6891e-11 9.69809e-11 5.88455e-13 
18 2 1.2815e-06 4.9668e-05 4.92571e-05 3.36505e-06 -1.44225e-10 9.10602e-10 3.87303e-10 -1.44097e-11 9.09792e-11 3.86958e-11 
21 1 1.29492e-06 4.94767e-05 5.04416e-05 3.865e-06 6.56549e-10 -6.19559e-10 4.30221e-10 3.21583e-07 -3.03465e-07 2.10726e-07 
11 4 9.11228e-07 5.04758e-05 5.0925e-05 3.91747e-06 -8.94753e-10 -4.44543e-10 -4.24118e-11 -8.95535e-11 -4.44932e-11 -4.24489e-12 
28 4 8.9352e-07 4.95604e-05 4.96369e-05 4.61799e-06 -6.98791e-11 7.26865e-10 -6.83216e-10 -6.96606e-12 7.24593e-11 -6.81081e-11 
ITEM: TIMESTEP
5000
ITEM: NUMBER OF ATOMS
48
ITEM: BOX BOUNDS ff ff ff
0 0.0001
0 0.0001
0 0.0001
ITEM: ATOMS id type diameter x y z vx vy vz fx fy fz 
23 4 9.0916e-07 5.03443e-05 5.10049e-05 4.55882e-07 -7.83673e-10 5.93684e-10 -1.82743e-10 -6.24523e-07 4.73117e-07 -1.45631e-07 
1 1 1.34773e-06 5.12255e-05 5.03373e-05 6.61357e-07 -1.04892e-10 -4.07695e-10 9.07073e-10 -2.79856e-07 -1.08775e-06 2.42011e-06 
29 1 1.44063e-06 4.85021e-05 5.00624e-05 8.32667e-07 1.60665e-10 3.13564e-10 9.35876e-10 1.57824e-11 3.08019e-11 9.19324e-11 
24 4 9.9469e-07 5.10777e-05 5.16481e-05 4.9854e-07 -3.13363e-10 9.24981e-10 -2.14973e-10 -3.14961e-11 9.29698e-11 -2.1607e-11 
14 4 1.01874e-06 4.96369e-05 5.16725e-05 5.07019e-07 5.55938e-10 6.77233e-11 8.2846e-10 3.15796e-07 3.84696e-08 4.70599e-07 
16 4 9.12682e-07 4.89592e-05 4.85819e-05 1.56336e-06 -7.01462e-10 6.03242e-10 3.79541e-10 -6.99046e-11 6.01164e-11 3.78234e-11 
10 4 8.72568e-07 5.05559e-05 4.9058e-05 1.18676e-06 8.85313e-10 4.43659e-10 -1.39237e-10 8.92408e-07 4.47214e-07 -1.40353e-07 
22 4 1.10835e-06 4.69432e-05 4.9655e-05 1.63562e-06 -9.147e-10 2.72528e-10 -2.98415e-10 -2.82248e-06 8.40939e-07 -9.20817e-07 
12 1 1.47139e-06 4.81089e-05 4.93077e-05 2.01593e-06 9.14701e-10 -2.72532e-10 2.9841e-10 2.82248e-06 -8.40948e-07 9.20801e-07 
27 4 9.9929e-07 5.04733e-05 4.99441e-05 1.46943e-06 7.14769e-10 2.60664e-10 -6.48968e-10 2.05001e-06 7.47603e-07 -1.86129e-06 
19 1 1.32974e-06 5.0031e-05 5.20272e-05 1.56551e-06 6.77727e-10 -3.28392e-10 -6.57909e-10 1.08346e-06 -5.24991e-07 -1.05178e-06 
7 4 9.23252e-07 4.90046e-05 5.24008e-05 1.16635e-06 8.53829e-10 -4.02456e-10 3.30159e-10 8.5394e-11 -4.02509e-11 3.30202e-11 
17 4 9.4518e-07 5.11521e-05 5.21795e-05 1.3751e-06 -9.77059e-10 -1.36089e-10 1.63813e-10 -9.75891e-11 -1.35926e-11 1.63617e-11 
2 2 1.40639e-06 5.00216e-05 4.81175e-05 1.52209e-06 -7.56687e-10 -6.51035e-10 -5.98199e-11 -1.98497e-06 -1.70782e-06 -1.56922e-07 
5 5 1.4839e-06 5.12564e-05 4.86225e-05 2.05751e-06 8.58998e-10 3.51258e-10 3.7248e-10 1.32179e-06 5.40499e-07 5.73154e-07 
20 1 1.26143e-06 5.16011e-05 5.13414e-05 2.63979e-06 -8.86684e-10 4.4921e-10 1.09552e-10 -5.62512e-07 2.84978e-07 6.94997e-08 
8 2 1.19841e-06 4.95485e-05 4.95237e-05 1.84903e-06 -8.52789e-10 -3.87608e-10 3.50017e-10 -2.44549e-06 -1.11152e-06 1.00372e-06 
4 4 1.0199e-06 4.87102e-05 4.99515e-05 2.9138e-06 2.3468e-10 -5.63093e-10 -7.92371e-10 2.24497e-07 -5.38661e-07 -7.57992e-07 
30 1 1.44538e-06 4.8884e-05 5.08002e-05 2.02271e-06 -6.92245e-10 -5.4054e-10 -4.78135e-10 -2.57232e-07 -2.0086e-07 -1.7767e-07 
26 4 9.51837e-07 4.82219e-05 5.1802e-05 2.12058e-06 5.53481e-10 -8.28497e-10 -8.51519e-11 5.52456e-11 -8.26963e-11 -8.49942e-12 
25 4 9.78457e-07 4.92413e-05 5.24526e-05 2.27943e-06 -6.88858e-10 3.71029e-10 6.22746e-10 -1.06087e-06 5.714e-07 9.59055e-07 
15 4 8.46798e-07 4.95567e-05 5.03319e-05 2.8555e-06 9.10328e-10 4.09104e-10 -6.2745e-11 6.40873e-07 2.8801e-07 -4.41726e-08 
3 3 1.15256e-06 5.14787e-05 4.9955e-05 3.22186e-06 7.32988e-10 -3.95287e-10 5.53604e-10 7.33015e-11 -3.95302e-11 5.53625e-11 
9 1 1.30697e-06 4.78461e-05 5.12667e-05 3.27041e-06 -9.353e-10 -3.18381e-10 -1.54427e-10 -1.04987e-06 -3.57381e-07 -1.73344e-07 
13 1 1.36235e-06 5.05955e-05 5.05046e-05 2.49355e-06 1.03994e-10 4.77526e-10 8.72442e-10 1.45062e-07 6.66106e-07 1.21698e-06 
6 4 8.80801e-07 5.00794e-05 5.25508e-05 2.73219e-06 5.04314e-10 -6.04404e-10 6.16736e-10 5.03634e-11 -6.03589e-11 6.15904e-11 
18 2 1.3328e-06 4.95147e-05 4.91403e-05 3.62267e-06 8.50669e-10 4.38223e-10 2.90384e-10 8.48179e-11 4.3694e-11 2.89534e-11 
21 1 1.44092e-06 4.92247e-05 5.04688e-05 3.9427e-06 -7.83501e-10 -4.2362e-10 4.54612e-10 -8.54963e-07 -4.62258e-07 4.96077e-07 
11 4 9.08244e-07 5.05849e-05 5.09077e-05 4.18135e-06 5.09932e-10 -5.72334e-11 8.58309e-10 5.08003e-07 -5.70169e-08 8.55063e-07 
28 4 8.90595e-07 4.95737e-05 4.95917e-05 4.6542e-06 -2.92195e-10 7.38071e-10 -6.08172e-10 -2.914e-11 7.36061e-11 -6.06516e-11 
31 1 1.1997e-06 5.14738e-05 4.90853e-05 6.89457e-07 -7.61033e-10 5.51066e-10 3.4228e-10 -7.63829e-11 5.5309e-11 3.43538e-11 
32 1 1.35537e-06 5.18996e-05 5.12935e-05 1.34395e-06 -4.9242e-10 -7.13965e-10 -4.97772e-10 -4.89571e-11 -7.09834e-11 -4.94892e-11 
33 3 1.08373e-06 5.1519e-05 4.9896e-05 1.95413e-06 -7.52978e-10 4.98448e-10 4.29621e-10 -7.51766e-11 4.97645e-11 4.28929e-11 
34 1 1.15679e-06 4.8993e-05 5.16571e-05 3.45978e-06 9.353e-10 3.18381e-10 1.54427e-10 1.04987e-06 3.57381e-07 1.73344e-07 
35 1 1.23398e-06 5.06182e-05 5.19049e-05 3.40028e-06 -9.70583e-11 3.96491e-10 -9.12893e-10 -9.64884e-12 3.94163e-11 -9.07533e-11 
36 4 9.80499e-07 5.02327e-05 4.95789e-05 4.95635e-07 -3.49905e-10 5.63802e-10 -7.48127e-10 -1.90678e-07 3.07239e-07 -4.07685e-07 
37 4 9.83327e-07 4.96296e-05 5.03679e-05 4.9616e-07 7.419e-10 6.69396e-10 -3.86472e-11 7.47025e-11 6.74021e-11 -3.89142e-12 
38 4 1.04912e-06 4.91102e-05 4.87563e-05 2.56298e-06 -7.83509e-10 4.48403e-10 -4.30173e-10 -7.82797e-11 4.47996e-11 -4.29783e-11 
39 4 1.03148e-06 4.9965e-05 5.08243e-05 1.34375e-06 3.81869e-10 1.79688e-10 -9.06581e-10 3.83357e-11 1.80388e-11 -9.10113e-11 
40 4 9.13579e-07 5.25625e-05 5.08542e-05 2.52097e-06 8.8662e-10 -4.49331e-10 -1.09578e-10 5.62521e-07 -2.8508e-07 -6.95225e-08 
41 4 1.11861e-06 4.97702e-05 5.14922e-05 2.63464e-06 6.01837e-10 3.96008e-10 6.9352e-10 2.34619e-07 1.54379e-07 2.70361e-07 
42 4 9.84133e-07 4.79957e-05 5.01584e-05 3.57609e-06 -7.17402e-10 2.07773e-10 6.64955e-10 -8.65394e-07 2.50634e-07 8.02128e-07 
43 4 9.33384e-07 5.02854e-05 4.94309e-05 2.78817e-06 -2.5908e-10 -9.28731e-10 2.6521e-10 -2.59391e-11 -9.29845e-11 2.65528e-11 
44 4 1.07093e-06 5.05545e-05 4.96694e-05 3.98246e-06 -8.56972e-10 -4.19984e-10 -2.98684e-10 -8.59959e-11 -4.21447e-11 -2.99725e-11 
45 4 8.50123e-07 5.24492e-05 4.88407e-05 8.93218e-07 9.50744e-10 -2.41936e-10 1.93785e-10 9.51667e-11 -2.4217e-11 1.93973e-11 
46 4 1.00916e-06 5.07679e-05 5.26184e-05 5.31963e-07 2.96201e-10 -9.54548e-10 -3.32124e-11 2.97369e-11 -9.58314e-11 -3.33435e-12 
47 4 8.82867e-07 5.01307e-05 5.09586e-05 3.41696e-06 2.33114e-10 3.4882e-10 -9.07735e-10 3.46971e-07 5.1919e-07 -1.35109e-06 
48 4 9.35442e-07 5.08548e-05 5.20981e-05 2.3421e-06 -7.45377e-11 -3.05083e-10 9.49404e-10 -7.47463e-12 -3.05937e-11 9.52062e-11 
ITEM: TIMESTEP
5500
ITEM: NUMBER OF ATOMS
53
ITEM: BOX BOUNDS ff ff ff
0 0.0001
0 0.0001
0 0.0001
ITEM: ATOMS id type diameter x y z vx vy vz fx fy fz 
36 4 9.77289e-07 5.02491e-05 4.96293e-05 4.85324e-07 2.02339e-11 -4.25483e-11 9.98889e-10 1.34555e-08 -2.82945e-08 6.64259e-07 
37 4 9.80107e-07 4.95942e-05 5.03683e-05 5.12633e-07 7.43472e-10 6.65836e-10 -6.25466e-11 7.44638e-11 6.66879e-11 -6.26446e-12 
23 4 9.06183e-07 5.02993e-05 5.10191e-05 4.50957e-07 7.77792e-10 -6.00063e-10 1.86986e-10 1.4331e-06 -1.10563e-06 3.44526e-07 
24 4 9.91434e-07 5.10562e-05 5.16382e-05 5.15524e-07 -3.14193e-10 9.49333e-10 7.0378e-12 -3.16186e-11 9.55357e-11 7.08245e-13 
45 4 8.47339e-07 5.25054e-05 4.88323e-05 9.12664e-07 9.66824e-10 -1.05752e-10 2.32523e-10 2.13606e-06 -2.33645e-07 5.13726e-07 
31 1 1.33496e-06 5.14612e-05 4.89465e-05 6.61514e-07 -9.6847e-10 -4.48122e-11 2.45066e-10 -2.56456e-06 -1.18665e-07 6.48947e-07 
29 1 1.35177e-06 4.81684e-05 5.00695e-05 6.71897e-07 2.68972e-10 -7.09822e-11 9.60529e-10 2.23483e-07 -5.89775e-08 7.98082e-07 
1 1 1.49969e-06 5.12633e-05 5.03449e-05 7.41477e-07 -7.1388e-12 6.4021e-10 -7.68167e-10 -1.91535e-08 1.71769e-06 -2.061e-06 
14 4 1.01541e-06 4.95722e-05 5.16343e-05 5.11892e-07 -7.90625e-10 9.55952e-11 -6.04792e-10 -1.60797e-06 1.94421e-07 -1.23002e-06 
46 4 1.00586e-06 5.0752e-05 5.26134e-05 5.31994e-07 2.9323e-10 -9.55698e-10 -2.5641e-11 2.94152e-11 -9.58704e-11 -2.57216e-12 
2 2 1.22766e-06 4.95316e-05 4.75716e-05 1.39171e-06 5.03733e-10 -8.06535e-10 -3.09442e-10 1.02773e-06 -1.64552e-06 -6.31332e-07 
12 1 1.32886e-06 4.80441e-05 4.8927e-05 1.38297e-06 4.75315e-10 8.34255e-10 2.79454e-10 4.63634e-11 8.13752e-11 2.72586e-11 
10 4 8.69711e-07 5.0476e-05 4.90215e-05 1.16095e-06 8.89614e-10 -6.80758e-11 -4.51611e-10 8.85752e-11 -6.77803e-12 -4.4965e-11 
27 4 9.96019e-07 5.06217e-05 4.98393e-05 1.67081e-06 -9.04285e-10 -2.96044e-10 3.07615e-10 -3.19142e-06 -1.0448e-06 1.08564e-06 
49 1 1.18153e-06 4.86642e-05 4.99398e-05 1.83049e-06 -3.86402e-10 -1.4136e-10 -9.11433e-10 -1.70684e-06 -6.24426e-07 -4.02604e-06 
39 4 1.0281e-06 5.02333e-05 5.0761e-05 1.38527e-06 -1.40164e-10 1.23079e-10 9.82449e-10 -1.38206e-11 1.2136e-11 9.68725e-11 
32 1 1.50819e-06 5.21257e-05 5.14007e-05 1.38732e-06 -5.87949e-10 -7.04363e-10 -3.97729e-10 -5.79692e-11 -6.94472e-11 -3.92144e-11 
7 4 9.20229e-07 4.8961e-05 5.24014e-05 1.16363e-06 -9.22397e-10 2.25761e-10 -3.13393e-10 -1.61352e-06 3.94916e-07 -5.48208e-07 
17 4 9.42085e-07 5.12547e-05 5.22687e-05 1.34665e-06 -9.8112e-10 -1.07308e-10 1.60899e-10 -9.80604e-11 -1.07252e-11 1.60814e-11 
51 2 1.08551e-06 5.05825e-05 4.80836e-05 1.43185e-06 -6.70374e-10 -4.50779e-10 -5.89404e-10 -8.10124e-08 -5.44752e-08 -7.12275e-08 
16 4 9.09694e-07 4.89984e-05 4.84253e-05 1.71924e-06 -9.52856e-10 2.18293e-10 2.10748e-10 -1.97843e-06 4.53244e-07 4.37578e-07 
22 4 1.10472e-06 4.6944e-05 4.96538e-05 1.63146e-06 -6.20365e-10 9.83899e-11 -7.78117e-10 -1.16149e-06 1.84212e-07 -1.45684e-06 
8 2 1.24638e-06 4.96604e-05 4.92555e-05 1.85416e-06 8.92852e-10 4.04689e-10 -1.9759e-10 2.41188e-06 1.0932e-06 -5.33754e-07 
33 3 1.1185e-06 5.16362e-05 4.99279e-05 1.91165e-06 7.13217e-10 -1.51764e-10 6.84317e-10 2.79329e-06 -5.94379e-07 2.6801e-06 
52 1 1.18809e-06 4.79743e-05 5.09214e-05 1.86805e-06 -9.91556e-10 -1.11141e-10 -6.68091e-11 -1.79054e-06 -2.00696e-07 -1.20643e-07 
19 1 1.47967e-06 5.00597e-05 5.21325e-05 1.53695e-06 8.95441e-10 1.96417e-11 4.44747e-10 2.75273e-06 6.03819e-08 1.36723e-06 
5 5 1.4839e-06 5.14433e-05 4.86624e-05 2.1887e-06 6.70374e-10 4.50779e-10 5.89404e-10 8.10122e-08 5.4475e-08 7.12274e-08 
30 1 1.3542e-06 4.92257e-05 5.10617e-05 1.95237e-06 8.46648e-10 5.24293e-10 9.11329e-11 2.44931e-06 1.51675e-06 2.63643e-07 
26 4 9.48721e-07 4.82428e-05 5.19187e-05 2.14808e-06 2.3472e-10 9.36498e-10 2.60534e-10 2.36225e-11 9.42501e-11 2.62204e-11 
25 4 9.75254e-07 4.91815e-05 5.2469e-05 2.32018e-06 -7.17543e-10 2.74994e-10 6.3993e-10 -5.07874e-07 1.94639e-07 4.5294e-07 
48 4 9.32379e-07 5.08724e-05 5.22917e-05 2.42575e-06 -6.6616e-10 -1.28314e-10 -7.34688e-10 -6.68233e-11 -1.28713e-11 -7.36975e-11 
38 4 1.04569e-06 4.90073e-05 4.87512e-05 2.64161e-06 -5.72614e-10 -4.42159e-10 6.90369e-10 -6.20028e-07 -4.78772e-07 7.47534e-07 
43 4 9.30328e-07 5.02871e-05 4.94306e-05 2.80974e-06 -5.96365e-10 -2.4538e-11 -8.02339e-10 -5.97651e-11 -2.45909e-12 -8.0407e-11 
50 1 1.26878e-06 4.76744e-05 4.9538e-05 2.54761e-06 6.20365e-10 -9.83899e-11 7.78117e-10 1.16149e-06 -1.84212e-07 1.45684e-06 