ITEM: TIMESTEP
0
ITEM: NUMBER OF ATOMS
5
ITEM: BOX BOUNDS ff ff ff
0 0.0001
0 0.0001
0 0.0001
ITEM: ATOMS id type diameter x y z vx vy vz fx fy fz 
2 2 1.2839e-06 5e-05 4.9e-05 2e-06 0 0 0 -7.678e-05 0 0 
5 5 1.4839e-06 5.1e-05 4.9e-05 2e-06 0 0 0 7.678e-05 -5.122e-05 0 
4 4 1.0539e-06 4.9e-05 5e-05 2e-06 0 0 0 0 0 0 
3 3 1.0283e-06 5.1e-05 5e-05 2e-06 0 0 0 0 5.122e-05 0 
1 1 1.0839e-06 5e-05 5.1e-05 2e-06 0 0 0 0 0 0 
ITEM: TIMESTEP
500
ITEM: NUMBER OF ATOMS
6
ITEM: BOX BOUNDS ff ff ff
0 0.0001
0 0.0001
0 0.0001
ITEM: ATOMS id type diameter x y z vx vy vz fx fy fz 
2 2 1.3353e-06 4.97807e-05 4.90164e-05 2e-06 9.952e-10 -9.78637e-11 -1.40911e-16 9.9323e-11 -9.767e-12 -1.40632e-17 
5 5 1.4839e-06 5.1198e-05 4.89123e-05 2e-06 1.64591e-10 -9.86362e-10 2.30356e-16 2.69427e-07 -1.61463e-06 3.77081e-13 
4 4 1.05045e-06 4.90091e-05 5.00073e-05 2e-06 -9.83981e-10 -1.78271e-10 1.3856e-13 -9.77333e-11 -1.77067e-11 1.37624e-14 
3 3 1.06129e-06 5.09898e-05 5.01595e-05 2e-06 -1.64591e-10 9.86362e-10 -2.30361e-16 -2.69427e-07 1.61463e-06 -3.77089e-13 
1 1 1.20611e-06 4.9994e-05 5.0992e-05 1.99888e-06 6.54831e-10 7.55708e-10 -1.01158e-11 6.49746e-11 7.4984e-11 -1.00372e-12 
6 4 9.07185e-07 4.99104e-05 5.1947e-05 2.54915e-06 -8.02603e-11 8.62666e-10 4.99366e-10 -8.04192e-12 8.64373e-11 5.00354e-11 
ITEM: TIMESTEP
1000
ITEM: NUMBER OF ATOMS
7
ITEM: BOX BOUNDS ff ff ff
0 0.0001
0 0.0001
0 0.0001
ITEM: ATOMS id type diameter x y z vx vy vz fx fy fz 
2 2 1.38875e-06 4.97811e-05 4.90205e-05 2e-06 9.96056e-10 -8.87242e-11 8.07318e-18 9.9488e-11 -8.86194e-12 8.06365e-19 
5 5 1.4839e-06 5.12213e-05 4.88909e-05 2e-06 1.79201e-10 -9.83812e-10 -1.41137e-15 3.52579e-09 -1.93566e-08 -2.77689e-14 
4 4 1.04701e-06 4.90084e-05 5.0011e-05 1.99998e-06 -9.85082e-10 -1.72082e-10 1.19224e-12 -9.81856e-11 -1.71519e-11 1.18833e-13 
3 3 1.09533e-06 5.09901e-05 5.01595e-05 2e-06 -1.79286e-10 9.83797e-10 1.36976e-15 -3.52746e-09 1.93562e-08 2.695e-14 
1 1 1.3421e-06 4.99938e-05 5.09897e-05 1.99982e-06 7.91819e-11 -8.68716e-10 -4.88941e-10 2.5659e-07 -2.81508e-06 -1.58442e-06 
6 4 9.04215e-07 4.99061e-05 5.19513e-05 2.54106e-06 -7.91818e-11 8.68715e-10 4.88941e-10 -2.56589e-07 2.81508e-06 1.58442e-06 
7 4 9.47794e-07 4.94979e-05 5.17899e-05 1.31525e-06 6.53025e-10 7.56796e-10 -2.8587e-11 6.54316e-11 7.58292e-11 -2.86435e-12 
ITEM: TIMESTEP
1500
ITEM: NUMBER OF ATOMS
8
ITEM: BOX BOUNDS ff ff ff
0 0.0001
0 0.0001
0 0.0001
ITEM: ATOMS id type diameter x y z vx vy vz fx fy fz 
7 4 9.44691e-07 4.94969e-05 5.17951e-05 1.3222e-06 -3.63863e-10 7.25782e-10 -5.83819e-10 -2.93748e-09 5.85926e-09 -4.71319e-09 
2 2 1.06852e-06 4.98479e-05 4.8685e-05 1.58957e-06 -1.04749e-10 6.25399e-10 7.73242e-10 -1.06701e-11 6.37058e-11 7.87657e-11 
5 5 1.4839e-06 5.12213e-05 4.88909e-05 2e-06 1.45655e-10 -9.89335e-10 2.76557e-13 1.45655e-11 -9.89335e-11 2.76557e-14 
4 4 1.04358e-06 4.89638e-05 5.00099e-05 1.94238e-06 -6.89544e-10 5.38095e-10 -4.84751e-10 -6.77916e-11 5.29021e-11 -4.76577e-11 
1 1 1.49342e-06 4.99404e-05 5.09104e-05 2.03389e-06 3.73339e-10 -7.21867e-10 5.82689e-10 2.99761e-09 -5.79601e-09 4.67853e-09 
8 2 1.21489e-06 4.97403e-05 4.93999e-05 2.49698e-06 9.28548e-11 -6.15332e-10 -7.8278e-10 9.28201e-12 -6.15102e-11 -7.82488e-11 
3 3 1.13047e-06 5.10378e-05 5.01879e-05 1.99935e-06 -8.32992e-10 5.52563e-10 2.82713e-11 -8.28614e-11 5.49659e-11 2.81227e-12 
6 4 9.01254e-07 4.98992e-05 5.19907e-05 2.55151e-06 4.08767e-11 -9.00366e-10 -4.3321e-10 4.07171e-12 -8.9685e-11 -4.31519e-11 
ITEM: TIMESTEP
2000
ITEM: NUMBER OF ATOMS
11
ITEM: BOX BOUNDS ff ff ff
0 0.0001
0 0.0001
0 0.0001
ITEM: ATOMS id type diameter x y z vx vy vz fx fy fz 
7 4 9.41598e-07 4.94972e-05 5.18029e-05 1.33175e-06 -3.66755e-10 7.34909e-10 -5.70438e-10 -3.63481e-11 7.28349e-11 -5.65345e-11 
2 2 1.11129e-06 4.9774e-05 4.86397e-05 1.59067e-06 -2.74082e-11 6.4639e-10 7.62515e-10 -2.7831e-12 6.56361e-11 7.74278e-11 
5 5 1.4839e-06 5.12209e-05 4.88909e-05 1.9998e-06 1.13707e-10 -9.93265e-10 -2.22679e-11 1.13704e-11 -9.93245e-11 -2.22674e-12 
4 4 1.04017e-06 4.90011e-05 4.99873e-05 1.86905e-06 -6.54866e-10 5.04716e-10 -5.62505e-10 -1.4753e-06 1.13703e-06 -1.26722e-06 
1 1 1.29468e-06 5.0087e-05 5.05616e-05 1.40286e-06 -8.08035e-10 2.85784e-10 -5.15176e-10 -2.26485e-07 8.01026e-08 -1.44399e-07 
8 2 1.26352e-06 4.9748e-05 4.94117e-05 2.51063e-06 6.54866e-10 -5.04716e-10 5.62505e-10 1.4753e-06 -1.13704e-06 1.26723e-06 
3 3 1.16674e-06 5.10803e-05 5.02103e-05 2.03616e-06 8.08035e-10 -2.85784e-10 5.15176e-10 2.26485e-07 -8.01026e-08 1.44399e-07 
6 4 8.98304e-07 4.994e-05 5.21626e-05 2.5038e-06 -2.43057e-10 -9.58084e-10 1.51653e-10 -2.42509e-11 -9.55925e-11 1.51311e-11 
9 1 1.34241e-06 4.96672e-05 5.10816e-05 2.67992e-06 2.36818e-10 9.58586e-10 -1.5821e-10 2.37118e-11 9.598e-11 -1.58411e-11 
10 4 8.89906e-07 5.03021e-05 4.94906e-05 1.53116e-06 -2.08696e-10 9.72229e-10 -1.05908e-10 -2.10547e-11 9.80851e-11 -1.06847e-11 
11 4 9.26292e-07 5.01748e-05 5.09068e-05 3.68252e-06 4.43158e-10 -1.61491e-10 8.81777e-10 4.44681e-11 -1.62046e-11 8.84807e-11 
ITEM: TIMESTEP
2500
ITEM: NUMBER OF ATOMS
11
ITEM: BOX BOUNDS ff ff ff
0 0.0001
0 0.0001
0 0.0001
ITEM: ATOMS id type diameter x y z vx vy vz fx fy fz 
1 1 1.44065e-06 5.00478e-05 5.05896e-05 1.33487e-06 3.04947e-10 -3.03754e-10 -9.0263e-10 3.77362e-07 -3.75886e-07 -1.11698e-06 
7 4 9.38515e-07 4.94968e-05 5.18111e-05 1.34278e-06 -3.64023e-10 7.50986e-10 -5.50915e-10 -3.62656e-11 7.48167e-11 -5.48847e-11 
2 2 1.15578e-06 4.97406e-05 4.86474e-05 1.57159e-06 -3.05608e-10 -8.18464e-10 -4.86539e-10 -5.29737e-07 -1.41872e-06 -8.4336e-07 
5 5 1.4839e-06 5.12209e-05 4.88909e-05 1.99979e-06 7.38856e-10 -4.74773e-10 4.78207e-10 8.87639e-07 -5.70378e-07 5.74504e-07 
4 4 1.03676e-06 4.90164e-05 4.99713e-05 1.80502e-06 6.41367e-10 -4.83663e-10 5.95583e-10 6.58604e-11 -4.96662e-11 6.11589e-11 
10 4 8.86993e-07 5.03495e-05 4.94508e-05 1.43578e-06 -2.64927e-10 8.42242e-10 -4.69513e-10 -3.87156e-07 1.23083e-06 -6.86133e-07 
3 3 1.20416e-06 5.11013e-05 5.02302e-05 2.05271e-06 7.98293e-10 -2.66025e-10 5.40333e-10 8.01765e-11 -2.67182e-11 5.42683e-11 
8 2 1.3141e-06 4.97701e-05 4.94113e-05 2.53368e-06 2.39965e-11 6.21645e-10 7.82931e-10 2.9271e-08 7.58283e-07 9.5502e-07 
9 1 1.49377e-06 4.96022e-05 5.10334e-05 2.65364e-06 -7.98055e-10 4.71697e-10 3.74981e-10 -7.91617e-07 4.67892e-07 3.71956e-07 
6 4 8.95363e-07 4.99422e-05 5.21809e-05 2.49037e-06 -2.82628e-10 -9.5021e-10 1.31238e-10 -2.81105e-11 -9.45092e-11 1.30531e-11 
11 4 9.23259e-07 5.0184e-05 5.09042e-05 3.70004e-06 4.83138e-10 -1.07298e-10 8.68945e-10 4.14253e-07 -9.19994e-08 7.45051e-07 
ITEM: TIMESTEP
3000
ITEM: NUMBER OF ATOMS
17
ITEM: BOX BOUNDS ff ff ff
0 0.0001
0 0.0001
0 0.0001
ITEM: ATOMS id type diameter x y z vx vy vz fx fy fz 
1 1 1.34002e-06 5.07119e-05 5.06214e-05 1.2533e-06 -3.17774e-10 -1.1943e-10 9.40615e-10 -3.15221e-11 -1.1847e-11 9.33056e-11 
7 4 9.35442e-07 4.93768e-05 5.19832e-05 1.1871e-06 -4.9756e-10 4.57582e-10 -7.36921e-10 -2.9671e-07 2.7287e-07 -4.39447e-07 
2 2 1.20204e-06 4.98717e-05 4.8429e-05 1.57979e-06 -5.63626e-10 8.11284e-10 -1.55381e-10 -5.63839e-11 8.11591e-11 -1.5544e-11 
5 5 1.4839e-06 5.12307e-05 4.87136e-05 1.98111e-06 1.70058e-11 9.78346e-10 2.06274e-10 1.70097e-12 9.78567e-11 2.06321e-11 
4 4 1.03337e-06 4.87776e-05 4.99957e-05 1.90624e-06 -4.95771e-10 7.05644e-10 5.06239e-10 -2.77297e-07 3.94685e-07 2.83152e-07 
10 4 8.84089e-07 5.0346e-05 4.94535e-05 1.44345e-06 -7.54057e-10 4.62103e-10 -4.66753e-10 -7.54843e-11 4.62584e-11 -4.6724e-11 
3 3 1.24279e-06 5.12615e-05 5.00528e-05 2.28002e-06 -4.29429e-10 4.38962e-10 -7.89242e-10 -4.28995e-11 4.38519e-11 -7.88445e-11 
8 2 1.36671e-06 4.97801e-05 4.94404e-05 2.58866e-06 -4.03397e-10 -1.37343e-10 -9.04659e-10 -4.05246e-11 -1.37973e-11 -9.08806e-11 
9 1 1.23401e-06 4.92773e-05 5.07643e-05 3.37129e-06 -9.24139e-10 -1.42623e-10 -3.54436e-10 -1.13186e-06 -1.74681e-07 -4.34106e-07 
6 4 8.92431e-07 4.99786e-05 5.24127e-05 2.64728e-06 2.07474e-11 8.46642e-10 5.31758e-10 3.37532e-08 1.37737e-06 8.65097e-07 
11 4 9.20236e-07 5.02671e-05 5.0917e-05 3.75089e-06 9.24139e-10 1.42623e-10 3.54436e-10 1.13186e-06 1.74681e-07 4.34106e-07 
12 1 1.19664e-06 4.94979e-05 5.02819e-05 1.0644e-06 9.5127e-10 2.67201e-10 1.53911e-10 9.49473e-11 2.66696e-11 1.5362e-11 
13 1 1.39476e-06 4.9955e-05 5.14514e-05 2.04349e-06 1.52473e-10 -9.56979e-10 -2.46868e-10 2.62923e-07 -1.6502e-06 -4.25696e-07 
14 4 1.0322e-06 4.98891e-05 5.13426e-05 6.15441e-07 -5.13165e-10 6.27726e-10 5.85339e-10 -5.14083e-11 6.28848e-11 5.86386e-11 
15 4 8.57979e-07 4.94323e-05 5.0497e-05 2.37063e-06 4.65159e-10 8.31954e-10 -3.02456e-10 4.62019e-11 8.26338e-11 -3.00415e-11 
16 4 9.24733e-07 4.92616e-05 4.93068e-05 1.41203e-06 4.95771e-10 -7.05645e-10 -5.06238e-10 2.77297e-07 -3.94685e-07 -2.83152e-07 
17 4 9.57659e-07 5.07011e-05 5.17556e-05 1.04703e-06 -2.74335e-12 9.82339e-10 -1.87089e-10 -2.75507e-13 9.86536e-11 -1.87888e-11 
ITEM: TIMESTEP
3500
ITEM: NUMBER OF ATOMS
19
ITEM: BOX BOUNDS ff ff ff
0 0.0001
0 0.0001
0 0.0001
ITEM: ATOMS id type diameter x y z vx vy vz fx fy fz 
14 4 1.02882e-06 4.98796e-05 5.13307e-05 5.11668e-07 -6.66979e-11 -7.24634e-12 9.97747e-10 -3.66423e-08 -3.98096e-09 5.48138e-07 
16 4 9.21706e-07 4.92181e-05 4.92813e-05 1.35646e-06 -5.48852e-10 -3.44368e-10 -7.6169e-10 -2.30054e-07 -1.44344e-07 -3.19266e-07 
10 4 8.81194e-07 5.03772e-05 4.94535e-05 1.3811e-06 6.34146e-10 -1.74452e-10 -7.53277e-10 4.41956e-07 -1.21581e-07 -5.24982e-07 
12 1 1.33156e-06 4.94516e-05 5.03019e-05 9.32465e-07 2.62008e-10 7.86844e-10 5.58775e-10 2.57137e-11 7.72216e-11 5.48387e-11 
1 1 1.49111e-06 5.08389e-05 5.05602e-05 1.1341e-06 -3.23589e-10 3.58544e-10 -8.75635e-10 -3.23884e-07 3.5887e-07 -8.76431e-07 
19 1 1.27103e-06 4.9807e-05 5.1327e-05 1.66938e-06 -1.03041e-10 -4.36525e-10 -8.93772e-10 -2.74221e-07 -1.16172e-06 -2.37858e-06 
7 4 9.3238e-07 4.92769e-05 5.21122e-05 1.11993e-06 -4.84026e-10 7.16961e-10 -5.01682e-10 -6.2736e-07 9.29274e-07 -6.50245e-07 
17 4 9.54524e-07 5.07689e-05 5.1812e-05 1.0064e-06 -8.24079e-10 -4.13223e-10 3.87479e-10 -8.27644e-11 -4.1501e-11 3.89155e-11 
2 2 1.25016e-06 4.98727e-05 4.84299e-05 1.57965e-06 -5.95623e-10 7.77054e-10 -2.0352e-10 -5.95801e-11 7.77285e-11 -2.0358e-11 
5 5 1.4839e-06 5.12296e-05 4.87139e-05 1.97984e-06 3.93358e-11 9.64985e-10 2.59338e-10 3.9344e-12 9.65188e-11 2.59392e-11 
4 4 1.02998e-06 4.87783e-05 4.99831e-05 1.92124e-06 -7.60692e-10 -5.00782e-10 -4.12995e-10 -7.6149e-11 -5.01308e-11 -4.13428e-11 
8 2 1.06529e-06 4.97622e-05 4.96227e-05 2.1116e-06 -2.32857e-10 2.92201e-10 9.27576e-10 -2.1192e-07 2.65929e-07 8.44177e-07 
3 3 1.28266e-06 5.1286e-05 5.00648e-05 2.34413e-06 3.23589e-10 -3.58544e-10 8.75635e-10 3.23884e-07 -3.58871e-07 8.76432e-07 
15 4 8.5517e-07 4.944e-05 5.05105e-05 2.3521e-06 3.29741e-10 -9.11719e-10 -2.4503e-10 3.31663e-11 -9.17033e-11 -2.46458e-11 
13 1 1.18998e-06 5.01526e-05 5.14161e-05 2.83042e-06 3.09484e-10 -4.5372e-10 8.35678e-10 1.27192e-06 -1.8647e-06 3.43447e-06 
6 4 8.8951e-07 4.99768e-05 5.24114e-05 2.63788e-06 -1.70851e-10 9.67362e-10 -1.87138e-10 -3.70401e-07 2.09722e-06 -4.05712e-07 
18 2 1.18475e-06 4.96984e-05 4.94639e-05 3.23772e-06 5.54921e-11 1.48046e-10 -9.87422e-10 5.5534e-12 1.48158e-11 -9.88167e-11 
9 1 1.37315e-06 4.91863e-05 5.07484e-05 3.41114e-06 -2.25579e-10 2.22646e-10 9.48442e-10 -2.28077e-11 2.25112e-11 9.58945e-11 
11 4 9.17224e-07 5.02793e-05 5.09059e-05 3.76261e-06 -1.15111e-10 4.75175e-10 -8.72329e-10 -1.1453e-11 4.72776e-11 -8.67925e-11 
ITEM: TIMESTEP
4000
ITEM: NUMBER OF ATOMS
28
ITEM: BOX BOUNDS ff ff ff
0 0.0001
0 0.0001
0 0.0001
ITEM: ATOMS id type diameter x y z vx vy vz fx fy fz 
14 4 1.02545e-06 4.96723e-05 5.16823e-05 5.09149e-07 -2.91335e-11 -5.42041e-12 9.99561e-10 -2.08435e-08 -3.87802e-09 7.15134e-07 
16 4 9.18688e-07 4.90159e-05 4.9153e-05 1.45984e-06 7.6555e-10 -6.33539e-10 1.12077e-10 7.65504e-11 -6.33501e-11 1.1207e-11 
10 4 8.78309e-07 5.03974e-05 4.94304e-05 1.32023e-06 1.42926e-10 -9.87459e-10 -6.70581e-11 1.3352e-07 -9.22472e-07 -6.26448e-08 
12 1 1.4817e-06 4.89853e-05 5.01241e-05 7.5479e-07 7.81155e-10 2.81218e-10 -5.57417e-10 4.35371e-09 1.56735e-09 -3.10672e-09 
1 1 1.30041e-06 5.10689e-05 4.99982e-05 6.54753e-07 7.04461e-10 -3.13001e-10 -6.36997e-10 1.37328e-06 -6.10168e-07 -1.24177e-06 
19 1 1.41434e-06 4.9452e-05 5.12206e-05 1.67653e-06 6.09759e-10 1.1618e-10 7.84026e-10 6.05739e-11 1.15414e-11 7.78856e-11 
7 4 9.29327e-07 4.91766e-05 5.2248e-05 1.17847e-06 -2.36567e-10 8.70891e-10 -4.30796e-10 -2.368e-11 8.71749e-11 -4.3122e-11 
17 4 9.51399e-07 5.08155e-05 5.20043e-05 1.15902e-06 2.44808e-10 -8.12827e-10 5.28565e-10 2.44492e-11 -8.1178e-11 5.27884e-11 
2 2 1.30021e-06 4.98751e-05 4.84321e-05 1.57845e-06 -7.61631e-10 6.39409e-10 -1.05237e-10 -7.61778e-11 6.39533e-11 -1.05257e-11 
5 5 1.4839e-06 5.12287e-05 4.87143e-05 1.97887e-06 -9.04539e-11 -9.2428e-10 -3.70842e-10 -2.49828e-08 -2.5528e-07 -1.02424e-07 
4 4 1.02661e-06 4.89227e-05 5.00223e-05 2.15258e-06 -9.44144e-10 3.28734e-10 -2.29575e-11 -9.36963e-11 3.26234e-11 -2.27829e-12 
8 2 1.10793e-06 4.99315e-05 4.9657e-05 2.16787e-06 -2.20326e-10 -2.13788e-10 9.5171e-10 -2.19225e-11 -2.1272e-11 9.46952e-11 
3 3 1.32381e-06 5.13555e-05 5.00106e-05 2.49897e-06 2.00667e-10 -7.68662e-10 6.07364e-10 7.04976e-07 -2.70043e-06 2.13376e-06 
15 4 8.5237e-07 4.96308e-05 5.05081e-05 2.55188e-06 5.94401e-10 7.79678e-10 1.96951e-10 5.94381e-11 7.79653e-11 1.96945e-11 
13 1 1.32415e-06 5.02819e-05 5.13717e-05 2.76739e-06 -6.46971e-10 -2.61958e-10 -7.16106e-10 -6.39305e-11 -2.58854e-11 -7.0762e-11 
6 4 8.86597e-07 5.01282e-05 5.24677e-05 2.80045e-06 -1.32847e-10 9.90465e-10 3.64923e-11 -1.33251e-11 9.93475e-11 3.66032e-12 
18 2 1.23217e-06 4.96716e-05 4.94057e-05 3.29689e-06 1.71853e-10 -8.40883e-10 -5.13208e-10 1.57939e-07 -7.728e-07 -4.71656e-07 
9 1 1.25812e-06 4.88233e-05 5.10989e-05 2.89517e-06 -7.68457e-10 5.5259e-10 3.22675e-10 -7.74164e-11 5.56694e-11 3.25071e-11 
11 4 9.14221e-07 5.03676e-05 5.092e-05 3.79664e-06 -8.54291e-11 3.96787e-10 -9.13926e-10 -8.55872e-12 3.97522e-11 -9.15618e-11 
20 1 1.33305e-06 5.11115e-05 5.10714e-05 1.76986e-06 -1.86289e-10 8.09696e-10 -5.56496e-10 -6.80007e-07 2.95562e-06 -2.03137e-06 
21 1 1.16371e-06 4.94665e-05 5.04092e-05 3.90933e-06 -1.71853e-10 8.40883e-10 5.13208e-10 -1.57939e-07 7.72801e-07 4.71656e-07 
22 4 1.11564e-06 4.79733e-05 4.97647e-05 1.48498e-06 -7.79265e-10 -2.76827e-10 5.62238e-10 -4.34877e-09 -1.54486e-09 3.13763e-09 
23 4 9.15142e-07 4.99715e-05 5.07406e-05 4.55285e-07 -8.13802e-10 -5.24875e-10 2.49465e-10 -1.30548e-06 -8.41993e-07 4.00186e-07 
24 4 1.00124e-06 5.07671e-05 5.12626e-05 5.09664e-07 8.34732e-10 5.47694e-10 5.70509e-11 8.3624e-07 5.48683e-07 5.7154e-08 
25 4 9.84896e-07 4.94519e-05 5.23535e-05 2.14171e-06 9.3417e-11 -9.07662e-10 -4.09174e-10 9.33882e-12 -9.07382e-11 -4.09048e-11 
26 4 9.58101e-07 4.82641e-05 5.17164e-05 2.13022e-06 -2.33615e-10 2.19482e-10 9.47234e-10 -2.322e-11 2.18153e-11 9.41498e-11 
27 4 1.00587e-06 5.02634e-05 5.03561e-05 1.38309e-06 -5.99337e-10 6.09595e-10 5.18835e-10 -1.50678e-06 1.53257e-06 1.30439e-06 
28 4 8.96455e-07 4.95614e-05 4.96431e-05 4.60299e-06 -2.24309e-10 2.15623e-10 9.50364e-10 -2.24155e-11 2.15475e-11 9.49713e-11 
ITEM: TIMESTEP
4500
ITEM: NUMBER OF ATOMS
30
ITEM: BOX BOUNDS ff ff ff
0 0.0001
0 0.0001
0 0.0001
ITEM: ATOMS id type diameter x y z vx vy vz fx fy fz 
23 4 9.12146e-07 5.03806e-05 5.07194e-05 4.59765e-07 9.49821e-10 2.71257e-10 -1.55753e-10 6.24605e-07 1.78379e-07 -1.02424e-07 
1 1 1.44703e-06 5.12383e-05 4.99463e-05 7.28382e-07 7.31842e-10 4.73113e-10 -4.90482e-10 5.72286e-07 3.69965e-07 -3.83547e-07 
29 1 1.29465e-06 4.93357e-05 5.04209e-05 6.31111e-07 -5.61832e-10 -4.02345e-10 7.22816e-10 -1.96005e-06 -1.40365e-06 2.52167e-06 
24 4 9.97958e-07 5.10692e-05 5.13937e-05 4.9634e-07 3.01759e-10 -2.18071e-10 9.28109e-10 1.71642e-07 -1.2404e-07 5.27913e-07 
14 4 1.02209e-06 4.96508e-05 5.17106e-05 5.08336e-07 2.6308e-10 -1.33203e-10 9.55534e-10 1.49202e-07 -7.55443e-08 5.41918e-07 
16 4 9.1568e-07 4.9009e-05 4.87588e-05 1.60993e-06 3.82869e-10 -9.15769e-10 1.21564e-10 8.30442e-07 -1.9863e-06 2.63671e-07 
10 4 8.75434e-07 5.03913e-05 4.93988e-05 1.29603e-06 -7.31842e-10 -4.73113e-10 4.90482e-10 -5.72287e-07 -3.69965e-07 3.83547e-07 
22 4 1.11199e-06 4.73965e-05 4.9686e-05 1.61919e-06 -9.90089e-10 -7.30364e-11 1.19959e-10 -3.36167e-06 -2.47982e-07 4.07298e-07 
12 1 1.3223e-06 4.85847e-05 4.97736e-05 1.47522e-06 6.08714e-10 6.62316e-10 -4.36813e-10 1.47961e-06 1.6099e-06 -1.06177e-06 
27 4 1.00257e-06 5.02493e-05 5.03569e-05 1.39897e-06 -7.38274e-10 3.18062e-10 5.94801e-10 -7.46747e-11 3.21713e-11 6.01627e-11 
19 1 1.19501e-06 4.99396e-05 5.15598e-05 1.57589e-06 2.96029e-11 4.37263e-10 -8.98846e-10 6.97886e-08 1.03084e-06 -2.11902e-06 
17 4 9.48284e-07 5.08083e-05 5.20573e-05 1.16595e-06 -8.12197e-10 -4.54028e-10 3.66327e-10 -8.12072e-11 -4.53958e-11 3.66271e-11 
7 4 9.26285e-07 4.91065e-05 5.23443e-05 1.18511e-06 5.49753e-10 -8.34815e-10 2.92619e-11 5.50448e-11 -8.3587e-11 2.92989e-12 
2 2 1.35226e-06 4.99924e-05 4.81916e-05 1.55305e-06 8.91179e-10 3.46834e-10 2.92415e-10 8.91633e-11 3.47011e-11 2.92565e-11 
5 5 1.4839e-06 5.12688e-05 4.86872e-05 1.97226e-06 -8.91576e-10 -3.43662e-10 -2.94939e-10 -8.91878e-11 -3.43779e-11 -2.95039e-11 
20 1 1.48335e-06 5.14467e-05 5.11209e-05 1.6638e-06 2.38484e-10 6.30878e-10 -7.38321e-10 2.02126e-07 5.34697e-07 -6.2576e-07 
8 2 1.15228e-06 4.98542e-05 4.95856e-05 2.15732e-06 2.59346e-10 1.6977e-10 -9.50746e-10 5.30552e-07 3.47302e-07 -1.94497e-06 
4 4 1.02325e-06 4.88804e-05 4.97665e-05 2.60359e-06 4.43552e-11 3.03097e-11 9.98556e-10 5.92461e-08 4.04853e-08 1.33379e-06 
30 1 1.29893e-06 4.91139e-05 5.07973e-05 2.10175e-06 -6.65428e-10 -6.14499e-10 4.23788e-10 -8.09893e-07 -7.47908e-07 5.15792e-07 
26 4 9.54964e-07 4.82805e-05 5.17338e-05 2.13023e-06 -2.24826e-10 2.22926e-10 9.48555e-10 -2.23404e-11 2.21516e-11 9.42554e-11 
25 4 9.81671e-07 4.94387e-05 5.23458e-05 2.14891e-06 4.5496e-10 -7.16681e-10 -5.28564e-10 4.54546e-11 -7.1603e-11 -5.28083e-11 
3 3 1.36628e-06 5.13646e-05 4.99972e-05 2.53001e-06 -5.77536e-11 -7.90683e-10 6.09496e-10 -4.18593e-08 -5.7308e-07 4.41758e-07 
15 4 8.49579e-07 4.97946e-05 5.03455e-05 2.814e-06 -6.39626e-10 4.07741e-10 -6.51633e-10 -6.4201e-11 4.09261e-11 -6.54061e-11 
9 1 1.39997e-06 4.8546e-05 5.12383e-05 3.24837e-06 7.4997e-10 -6.31272e-10 -1.97588e-10 7.40586e-11 -6.23373e-11 -1.95116e-11 
13 1 1.47344e-06 5.04881e-05 5.13501e-05 2.76401e-06 3.73947e-10 -4.41107e-10 8.15836e-10 8.09643e-07 -9.55052e-07 1.76639e-06 
6 4 8.83695e-07 5.01265e-05 5.24674e-05 2.79684e-06 -3.0778e-10 9.51047e-10 2.79452e-11 -2.29932e-07 7.10495e-07 2.08769e-08 
18 2 1.2815e-06 4.96806e-05 4.93327e-05 3.32517e-06 -1.24128e-10 -3.27208e-10 9.36764e-10 -2.28066e-07 -6.01196e-07 1.72116e-06 
21 1 1.29492e-06 4.94434e-05 5.04593e-05 3.90039e-06 -3.95307e-10 7.12524e-10 -5.79691e-10 -8.40225e-07 1.51447e-06 -1.23213e-06 
11 4 9.11228e-07 5.04457e-05 5.09122e-05 3.89336e-06 9.11262e-10 4.11776e-10 -6.54014e-12 5.70038e-07 2.57586e-07 -4.09118e-09 
28 4 8.9352e-07 4.95619e-05 4.96409e-05 4.60111e-06 1.09335e-10 -7.55033e-10 6.46507e-10 2.26815e-07 -1.56632e-06 1.34118e-06 
ITEM: TIMESTEP
5000
ITEM: NUMBER OF ATOMS
48
ITEM: BOX BOUNDS ff ff ff
0 0.0001
0 0.0001
0 0.0001
ITEM: ATOMS id type diameter x y z vx vy vz fx fy fz 
23 4 9.0916e-07 5.0484e-05 5.07894e-05 4.64213e-07 -4.85682e-10 1.44888e-10 -8.62044e-10 -4.1317e-07 1.23257e-07 -7.33341e-07 
1 1 1.34773e-06 5.14648e-05 5.02804e-05 6.71366e-07 -7.53843e-12 -9.89383e-10 -1.45137e-10 -1.6825e-08 -2.20821e-06 -3.23931e-07 
29 1 1.44063e-06 4.84497e-05 5.01727e-05 1.19068e-06 8.10399e-10 5.6209e-10 1.65251e-10 8.03371e-11 5.57215e-11 1.63818e-11 
24 4 9.9469e-07 5.11259e-05 5.15098e-05 5.02277e-07 -7.52427e-10 1.29801e-10 -6.45759e-10 -9.31322e-07 1.60662e-07 -7.99292e-07 
14 4 1.01874e-06 4.9646e-05 5.17064e-05 5.07205e-07 3.6399e-10 -5.52801e-10 7.49615e-10 2.10505e-07 -3.197e-07 4.33523e-07 
16 4 9.12682e-07 4.89377e-05 4.8578e-05 1.58272e-06 -8.23937e-10 3.6058e-10 4.37161e-10 -8.21101e-11 3.59339e-11 4.35656e-11 
10 4 8.72568e-07 5.05437e-05 4.90895e-05 1.28618e-06 -4.71365e-10 -8.46372e-10 2.47932e-10 -4.71151e-11 -8.45987e-11 2.4782e-11 
22 4 1.10835e-06 4.69852e-05 4.97204e-05 1.60865e-06 -7.37143e-10 5.54633e-10 -3.8601e-10 -8.45352e-09 6.3605e-09 -4.42674e-09 
12 1 1.47139e-06 4.7936e-05 4.9005e-05 2.10653e-06 7.39127e-10 -5.51788e-10 3.86292e-10 8.46989e-09 -6.32311e-09 4.42664e-09 
27 4 9.9929e-07 5.02504e-05 5.0138e-05 1.2976e-06 4.57789e-12 -9.75365e-12 9.99942e-10 2.93514e-09 -6.2536e-09 6.41118e-07 
19 1 1.32975e-06 4.98745e-05 5.22753e-05 1.53901e-06 9.42524e-10 -2.98488e-10 -1.50179e-10 1.86236e-06 -5.89792e-07 -2.96744e-07 
17 4 9.4518e-07 5.09521e-05 5.19628e-05 1.34555e-06 -7.85154e-10 3.2394e-10 5.27821e-10 -7.85141e-11 3.23935e-11 5.27812e-11 
7 4 9.23252e-07 4.88793e-05 5.25075e-05 1.08118e-06 -8.88741e-10 2.07382e-10 -4.08819e-10 -1.17868e-06 2.75037e-07 -5.42189e-07 
2 2 1.40639e-06 5.00017e-05 4.81074e-05 1.56251e-06 4.67527e-10 8.52218e-10 -2.34824e-10 4.68165e-11 8.53383e-11 -2.35145e-11 
5 5 1.4839e-06 5.12863e-05 4.86036e-05 2.07809e-06 1.92457e-10 3.10269e-10 -9.30964e-10 1.92538e-11 3.10399e-11 -9.31356e-11 
20 1 1.26143e-06 5.15338e-05 5.10986e-05 2.43541e-06 -5.1602e-10 -1.55182e-10 8.42402e-10 -1.41718e-06 -4.26189e-07 2.31355e-06 
8 2 1.19841e-06 4.95301e-05 4.95211e-05 1.85449e-06 -3.96612e-10 -6.48932e-10 6.49297e-10 -3.96846e-11 -6.49315e-11 6.4968e-11 
4 4 1.0199e-06 4.87296e-05 5.00046e-05 2.73669e-06 -9.27588e-10 -1.34913e-10 -3.48394e-10 -9.21505e-11 -1.34028e-11 -3.46109e-11 
30 1 1.44538e-06 4.91706e-05 5.10078e-05 2.12436e-06 -4.7601e-10 -5.02559e-10 -7.21699e-10 -1.6489e-06 -1.74086e-06 -2.49996e-06 
26 4 9.51837e-07 4.82545e-05 5.17934e-05 2.13629e-06 7.61272e-10 -6.48253e-10 -1.52666e-11 7.61075e-11 -6.48086e-11 -1.52627e-12 
25 4 9.78457e-07 4.91779e-05 5.2596e-05 2.39384e-06 -6.06621e-10 2.79264e-10 7.44326e-10 -6.83743e-07 3.14768e-07 8.38955e-07 
3 3 1.15256e-06 5.14739e-05 4.99606e-05 3.19189e-06 7.71105e-10 -2.58037e-10 5.82077e-10 7.71636e-11 -2.58215e-11 5.82478e-11 
15 4 8.46798e-07 4.95932e-05 5.01293e-05 3.06975e-06 -8.88354e-10 1.71933e-10 4.25754e-10 -9.53637e-07 1.84568e-07 4.57041e-07 
9 1 1.30697e-06 4.78008e-05 5.12307e-05 3.2334e-06 7.63719e-10 -6.13498e-10 -2.00884e-10 7.61815e-11 -6.11969e-11 -2.00383e-11 
13 1 1.36235e-06 5.04922e-05 5.0282e-05 2.45692e-06 6.3831e-10 -3.2618e-10 -6.97257e-10 2.06671e-06 -1.0561e-06 -2.25757e-06 
6 4 8.80801e-07 5.00857e-05 5.25521e-05 2.75707e-06 -7.9655e-10 -1.4466e-10 -5.87011e-10 -7.99221e-11 -1.45146e-11 -5.8898e-11 
18 2 1.3328e-06 4.95746e-05 4.91837e-05 3.60721e-06 -1.70682e-11 -8.69246e-10 4.94085e-10 -6.82933e-09 -3.47802e-07 1.97693e-07 
21 1 1.44092e-06 4.93377e-05 5.0578e-05 4.10496e-06 1.31565e-10 -7.63912e-10 6.31767e-10 2.90231e-08 -1.68519e-07 1.39368e-07 
11 4 9.08244e-07 5.05077e-05 5.09109e-05 4.01771e-06 -5.0441e-10 2.6943e-11 -8.63044e-10 -5.06779e-11 2.70696e-12 -8.67097e-11 
28 4 8.90595e-07 4.95809e-05 4.95616e-05 4.66039e-06 -2.02848e-10 8.587e-10 -4.70624e-10 -2.02317e-11 8.56452e-11 -4.69392e-11 
31 1 1.1997e-06 5.15401e-05 4.90127e-05 8.20812e-07 3.91677e-10 8.65348e-10 3.1267e-10 3.8952e-11 8.60582e-11 3.10948e-11 
32 1 1.35537e-06 5.20053e-05 5.13581e-05 1.25706e-06 7.7929e-10 6.04978e-10 -1.6343e-10 2.77531e-06 2.15453e-06 -5.82029e-07 
33 3 1.08373e-06 5.15241e-05 4.9866e-05 1.92499e-06 -8.40427e-10 3.35235e-10 4.25794e-10 -8.39852e-11 3.35006e-11 4.25502e-11 
34 1 1.15679e-06 4.9167e-05 5.15693e-05 3.28499e-06 -1.53566e-11 5.1624e-10 8.56306e-10 -3.55141e-08 1.19387e-06 1.98031e-06 
35 1 1.23398e-06 5.06832e-05 5.19603e-05 3.41888e-06 -3.07482e-10 -3.83682e-10 -8.70772e-10 -3.0712e-11 -3.8323e-11 -8.69747e-11 
36 4 9.80499e-07 5.03544e-05 4.95732e-05 4.9607e-07 1.05492e-10 -5.72802e-10 -8.12878e-10 8.12348e-08 -4.41091e-07 -6.25964e-07 
37 4 9.83327e-07 4.94142e-05 5.04443e-05 4.99902e-07 -7.82781e-10 -2.19852e-10 5.82168e-10 -7.7609e-11 -2.17973e-11 5.77192e-11 
38 4 1.04912e-06 4.90918e-05 4.87764e-05 2.59583e-06 -4.37526e-10 5.66659e-10 -6.9819e-10 -4.39372e-11 5.69049e-11 -7.01135e-11 
39 4 1.03148e-06 5.00632e-05 5.11331e-05 1.26393e-06 -3.98353e-10 7.11953e-10 5.78305e-10 -3.90102e-07 6.97208e-07 5.66328e-07 
40 4 9.13579e-07 5.25942e-05 5.08905e-05 2.53346e-06 9.77283e-10 -1.91713e-10 9.0361e-11 4.73977e-07 -9.29796e-08 4.38247e-08 
41 4 1.11861e-06 5.03138e-05 5.15019e-05 2.38702e-06 6.26628e-10 7.67902e-10 1.32904e-10 1.49252e-06 1.82901e-06 3.16553e-07 
42 4 9.84134e-07 4.79451e-05 5.01208e-05 3.53643e-06 7.60734e-10 -6.07246e-10 -2.29207e-10 7.67119e-11 -6.12343e-11 -2.31131e-11 
43 4 9.33384e-07 5.03281e-05 4.91926e-05 2.75844e-06 -1.43677e-10 -9.53768e-10 2.63975e-10 -1.61809e-07 -1.07414e-06 2.9729e-07 
44 4 1.07093e-06 5.05737e-05 4.97222e-05 4.04869e-06 -8.25111e-10 -4.32359e-10 -3.63671e-10 -8.33462e-11 -4.36735e-11 -3.67352e-11 
45 4 8.50123e-07 5.25468e-05 4.88014e-05 8.89426e-07 -9.75069e-10 2.13166e-10 -6.16565e-11 -9.74698e-11 2.13085e-11 -6.1633e-12 
46 4 1.00916e-06 5.09403e-05 5.25046e-05 5.02818e-07 6.79202e-10 -3.80381e-10 6.2769e-10 3.81805e-07 -2.13826e-07 3.52848e-07 
47 4 8.82867e-07 5.00506e-05 5.09487e-05 3.23072e-06 -3.96886e-10 5.99096e-10 6.95389e-10 -7.8161e-07 1.17983e-06 1.36947e-06 
48 4 9.35442e-07 5.10633e-05 5.22035e-05 2.25196e-06 -5.86055e-10 -6.26633e-10 -5.13683e-10 -5.87185e-11 -6.2784e-11 -5.14673e-11 
ITEM: TIMESTEP
5500
ITEM: NUMBER OF ATOMS
53
ITEM: BOX BOUNDS ff ff ff
0 0.0001
0 0.0001
0 0.0001
ITEM: ATOMS id type diameter x y z vx vy vz fx fy fz 
36 4 9.77289e-07 5.03302e-05 4.95743e-05 4.86795e-07 -1.1556e-10 7.47416e-10 6.54229e-10 -6.53454e-08 4.22638e-07 3.69944e-07 
23 4 9.06183e-07 5.04555e-05 5.07608e-05 4.63038e-07 8.69166e-10 -4.33836e-10 2.37354e-10 8.60781e-11 -4.29651e-11 2.35064e-11 
24 4 9.91434e-07 5.10952e-05 5.14969e-05 4.99103e-07 -2.01332e-10 9.79453e-10 -1.1745e-11 -2.02648e-11 9.85851e-11 -1.18217e-12 
45 4 8.47339e-07 5.25464e-05 4.8802e-05 8.9468e-07 9.96068e-10 -2.33288e-11 8.54659e-11 9.9908e-11 -2.33993e-12 8.57244e-12 
31 1 1.33496e-06 5.1456e-05 4.88198e-05 7.97336e-07 -5.51256e-10 7.6525e-10 3.32428e-10 -5.44403e-11 7.55737e-11 3.28295e-11 
29 1 1.35177e-06 4.83189e-05 5.01071e-05 6.65702e-07 5.83419e-10 1.87558e-10 -7.90218e-10 5.07233e-07 1.63066e-07 -6.87027e-07 
37 4 9.80107e-07 4.94292e-05 5.0446e-05 5.27876e-07 -9.49599e-10 -2.90295e-10 1.18286e-10 -9.37516e-11 -2.86601e-11 1.1678e-11 
1 1 1.49969e-06 5.1515e-05 5.02471e-05 7.5123e-07 -4.13286e-10 -8.23113e-10 -3.89461e-10 -8.45933e-07 -1.68478e-06 -7.97167e-07 
14 4 1.01541e-06 4.96548e-05 5.17045e-05 5.07822e-07 -3.84502e-10 -7.38028e-10 5.54502e-10 -3.83503e-11 -7.36112e-11 5.53062e-11 
46 4 1.00586e-06 5.0932e-05 5.25044e-05 5.13312e-07 1.63047e-10 -9.86608e-10 4.55486e-12 1.63761e-11 -9.90927e-11 4.5748e-13 
2 2 1.22766e-06 4.95002e-05 4.76169e-05 1.46973e-06 2.64504e-10 -9.64155e-10 2.10544e-11 5.98904e-07 -2.18309e-06 4.76724e-08 
10 4 8.69711e-07 5.0582e-05 4.92523e-05 1.34001e-06 7.88268e-10 -3.82326e-10 -4.82141e-10 7.83105e-11 -3.79822e-11 -4.78982e-11 
27 4 9.96019e-07 5.01571e-05 5.01527e-05 1.29233e-06 -2.55397e-10 -7.46446e-10 -6.14483e-10 -6.02807e-07 -1.76182e-06 -1.45035e-06 
39 4 1.0281e-06 5.00922e-05 5.11533e-05 1.27341e-06 2.97136e-10 7.72384e-10 -5.61367e-10 9.01103e-07 2.34236e-06 -1.70242e-06 
32 1 1.50819e-06 5.2119e-05 5.15057e-05 1.28289e-06 4.04327e-10 8.42524e-10 3.55913e-10 8.20943e-07 1.71066e-06 7.22643e-07 
17 4 9.42085e-07 5.09741e-05 5.19442e-05 1.36588e-06 -8.054e-10 5.83924e-10 1.01804e-10 -8.04489e-11 5.83264e-11 1.01689e-11 
7 4 9.20229e-07 4.88724e-05 5.24886e-05 1.10171e-06 -9.35203e-10 -1.51202e-10 -3.20208e-10 -1.1606e-06 -1.87644e-07 -3.97383e-07 
51 2 1.08551e-06 5.04454e-05 4.82944e-05 1.50743e-06 -8.01492e-10 -2.60532e-10 -5.3827e-10 -8.02354e-11 -2.60812e-11 -5.38849e-11 
12 1 1.32886e-06 4.81209e-05 4.87896e-05 1.55176e-06 -9.86088e-10 1.37423e-10 9.35207e-11 -8.11152e-07 1.13043e-07 7.69298e-08 
16 4 9.09694e-07 4.92206e-05 4.86363e-05 1.44746e-06 1.01786e-10 9.9301e-10 -5.97496e-11 2.12185e-07 2.07006e-06 -1.24555e-07 
22 4 1.10472e-06 4.69868e-05 4.97195e-05 1.60453e-06 -7.27371e-10 5.38953e-10 -4.24807e-10 -7.28342e-11 5.39672e-11 -4.25375e-11 
8 2 1.24638e-06 4.93106e-05 4.9647e-05 1.83593e-06 -1.44035e-10 -9.36461e-10 -3.19837e-10 -3.36322e-07 -2.18664e-06 -7.46822e-07 
33 3 1.1185e-06 5.19102e-05 4.9838e-05 1.92982e-06 3.01999e-10 -3.12611e-10 9.00595e-10 2.50206e-08 -2.58999e-08 7.46143e-08 
49 1 1.18153e-06 4.81376e-05 5.00263e-05 1.90273e-06 -2.3057e-10 -4.92888e-10 8.38987e-10 -8.85467e-07 -1.89286e-06 3.222e-06 
52 1 1.18809e-06 4.84464e-05 5.11155e-05 1.58644e-06 2.97383e-11 8.63325e-10 -5.03772e-10 5.62032e-08 1.63162e-06 -9.52091e-07 
19 1 1.47967e-06 4.99888e-05 5.26691e-05 1.48396e-06 9.75652e-10 1.39006e-10 -1.6965e-10 1.80025e-06 2.56491e-07 -3.13033e-07 
5 5 1.4839e-06 5.14786e-05 4.86216e-05 2.2055e-06 3.26979e-10 9.21816e-10 -2.08185e-10 3.26921e-11 9.21652e-11 -2.08148e-11 
13 1 1.51596e-06 5.07019e-05 5.01014e-05 2.41366e-06 7.07381e-10 -1.24246e-10 6.95827e-10 1.5369e-06 -2.69944e-07 1.51179e-06 
30 1 1.3542e-06 4.94962e-05 5.08537e-05 2.24807e-06 -2.69882e-10 5.85452e-10 7.64467e-10 -9.25599e-07 2.00789e-06 2.62184e-06 
20 1 1.40365e-06 5.15575e-05 5.12704e-05 2.66184e-06 -9.32413e-10 3.40769e-10 1.20343e-10 -8.54886e-07 3.12435e-07 1.10337e-07 
26 4 9.48721e-07 4.82075e-05 5.19613e-05 2.1917e-06 -2.23899e-10 7.92564e-10 5.67196e-10 -5.79095e-08 2.0499e-07 1.467e-07 
41 4 1.11494e-06 5.04269e-05 5.1735e-05 2.30054e-06 8.87012e-10 -3.6539e-10 2.82313e-10 8.78992e-11 -3.62086e-11 2.79761e-11 
48 4 9.32379e-07 5.12463e-05 5.23845e-05 2.21158e-06 7.6726e-10 6.33469e-10 -1.00145e-10 7.63404e-11 6.30286e-11 -9.96415e-12 
25 4 9.75254e-07 4.91727e-05 5.25812e-05 2.39021e-06 -6.67417e-10 -7.18375e-11 7.41211e-10 -6.39711e-07 -6.88553e-08 7.10441e-07 