LAMMPS (5 Nov 2016)
# NUFEB simulation
units si
atom_style      bio
atom_modify     map array sort 100 5.0e-7
boundary        pp pp ff
newton          off
processors  4 1 1


comm_modify     vel yes
read_data_bio atom.in
  orthogonal box = (0 0 0) to (0.00025 5e-05 0.0003)
  4 by 1 by 1 MPI processor grid
  reading atoms ...
  0 atoms
  7 nutrients

group AOB type 1
0 atoms in group AOB
group NOB type 2
0 atoms in group NOB
group DEAD type 3
0 atoms in group DEAD

##############Define initial particle distribution##############

lattice sc 1e-5 origin 0.5 0.5 0.4
Lattice spacing in x,y,z = 1e-05 1e-05 1e-05
region reg block 0 25 0 5 0 1
create_atoms 1 region reg
Created 125 atoms

lattice sc 1e-5 origin 0.1 0.5 0.4
Lattice spacing in x,y,z = 1e-05 1e-05 1e-05
region reg2 block 0 25 0 5 0 1
create_atoms 2 region reg2
Created 125 atoms

set type 1 diameter 1e-6
  125 settings made for diameter
set type 1 density 290
  125 settings made for density
set type 1 mass 1.52e-15
  125 settings made for mass
set type 2 diameter 1e-6
  125 settings made for diameter
set type 2 density 290
  125 settings made for density
set type 2 mass 1.52e-15
  125 settings made for mass

lattice sc 1e-5 origin 0 0 0
Lattice spacing in x,y,z = 1e-05 1e-05 1e-05
region reg3 block 0 25 0 5 25 30

neighbor        5e-7 bin
neigh_modify    delay 0 one 5000

##############Define DEM Variables&Commands##############

pair_style  gran/hooke/history 1.e-4 NULL 1.e-5 NULL 0.0 1
pair_coeff  * *

timestep 360

fix 1 all nve/limit 1e-7
fix fv all viscous 1e-5

fix zw all wall/gran hooke/history 2000 NULL 500 NULL 1.5 0 zplane  0.0  3e-04

variable kanc equal 0
fix zwa all walladh v_kanc zplane  0.0   3e-04

variable ke equal 5e+9
#fix j1 all epsadh 1 v_ke 1

##############Ibm Variable Definitions##############

#Defining EPS density and ratio variables
variable EPSdens equal 30
variable EPSratio equal 1.25

#variables used in fix division
variable divDia equal 1e-6

#Defining diffusion variables
variable diffT equal 1e-4
variable tol equal 1e-6
variable etaHET equal 0.0
variable layer equal 4e-5

#variables used in fix death
variable deadDia equal 5.85e-7

##############Ibm functions##############

fix k1 all kinetics 1 25 5 30 v_diffT v_layer demflag 0 niter -1 ph 7.5 devery 1
#fix ki3 all kinetics/ph
fix ki2 all kinetics/thermo
fix ki1 all kinetics/growth/energy v_EPSdens
fix g1 all kinetics/diffusion v_tol pp pp nd mol
fix d1 all divide 1 v_EPSdens v_divDia 31231 demflag 0
fix d2 all death 1 v_deadDia demflag 0

##############Ibm compute##############

compute myNtypes all ntypes
compute myMass all biomass
compute myAvgs all avg_con
compute myPh all avg_ph

##############Simulation outputs##############

thermo_style    custom step cpu atoms biomass c_myNtypes[*]
dump du0 all bio 5010 biomass ntypes bulk avg_con avg_ph
#dump du2 all grid 50100 grid_%_*.vti con hyd
#dump du3 all custom/vtk 50100 snapshot%_*.vtu id type diameter x y z
#dump du4 all bio/hdf5 50100 dump_*.h5 id type radius x y z con cat ana hyd
thermo 501
thermo_modify   lost ignore

##############Define Bio-loop and DEM-subloop##############

run 50 pre no post no every 1 "fix_modify k1 demflag 1" "fix_modify d2 demflag 1" "fix_modify d1 demflag 1" "delete_atoms region reg3" "timestep 0.1" "run 500 pre no post no" "timestep 360" "fix_modify k1 demflag 0" "fix_modify d2 demflag 0" "fix_modify d1 demflag 0"
Neighbor list info ...
  2 neighbor list requests
  update every 1 steps, delay 0 steps, check yes
  max neighbors/atom: 5000, page size: 100000
  master list distance cutoff = 1.5e-06
  ghost atom cutoff = 1.5e-06
  binsize = 7.5e-07 -> bins = 334 67 400
Memory usage per processor = 16.9048 Mbytes
Step CPU Atoms biomass c_myNtypes[1] c_myNtypes[2] c_myNtypes[3] c_myNtypes[4] 
       0            0      250      3.8e-13            0          125          125            0 
number of iterations: 37772 
       1    16.984302      500 3.8057357e-13            0          250          250            0 
Loop time of 16.9843 on 4 procs for 1 steps with 500 atoms

100.0% CPU use with 4 MPI tasks x no OpenMP threads
fix_modify k1 demflag 1
fix_modify d2 demflag 1
fix_modify d1 demflag 1
delete_atoms region reg3
Deleted 0 atoms, new total = 500
timestep 0.1
run 500 pre no post no
Step CPU Atoms biomass c_myNtypes[1] c_myNtypes[2] c_myNtypes[3] c_myNtypes[4] 
       1            0      500 3.8057357e-13            0          250          250            0 
     501 0.0037889481      500 3.8057357e-13            0          250          250            0 
Loop time of 0.00380069 on 4 procs for 500 steps with 500 atoms

100.0% CPU use with 4 MPI tasks x no OpenMP threads
timestep 360
fix_modify k1 demflag 0
fix_modify d2 demflag 0
fix_modify d1 demflag 0
Step CPU Atoms biomass c_myNtypes[1] c_myNtypes[2] c_myNtypes[3] c_myNtypes[4] 
     501            0      500 3.8057357e-13            0          250          250            0 
number of iterations: 2700 
     502    1.1577249      500 3.8114886e-13            0          250          250            0 
Loop time of 1.15774 on 4 procs for 1 steps with 500 atoms

99.9% CPU use with 4 MPI tasks x no OpenMP threads
fix_modify k1 demflag 1
fix_modify d2 demflag 1
fix_modify d1 demflag 1
delete_atoms region reg3
Deleted 0 atoms, new total = 500
timestep 0.1
run 500 pre no post no
Step CPU Atoms biomass c_myNtypes[1] c_myNtypes[2] c_myNtypes[3] c_myNtypes[4] 
     502            0      500 3.8114886e-13            0          250          250            0 
    1002 0.0036921501      500 3.8114886e-13            0          250          250            0 
Loop time of 0.00370353 on 4 procs for 500 steps with 500 atoms

99.9% CPU use with 4 MPI tasks x no OpenMP threads
timestep 360
fix_modify k1 demflag 0
fix_modify d2 demflag 0
fix_modify d1 demflag 0
Step CPU Atoms biomass c_myNtypes[1] c_myNtypes[2] c_myNtypes[3] c_myNtypes[4] 
    1002            0      500 3.8114886e-13            0          250          250            0 
number of iterations: 5030 
    1003    2.1718969      500 3.8172586e-13            0          250          250            0 
Loop time of 2.17191 on 4 procs for 1 steps with 500 atoms

100.0% CPU use with 4 MPI tasks x no OpenMP threads
fix_modify k1 demflag 1
fix_modify d2 demflag 1
fix_modify d1 demflag 1
delete_atoms region reg3
Deleted 0 atoms, new total = 500
timestep 0.1
run 500 pre no post no
Step CPU Atoms biomass c_myNtypes[1] c_myNtypes[2] c_myNtypes[3] c_myNtypes[4] 
    1003            0      500 3.8172586e-13            0          250          250            0 
    1503 0.0036849976      500 3.8172586e-13            0          250          250            0 
Loop time of 0.0036962 on 4 procs for 500 steps with 500 atoms

100.0% CPU use with 4 MPI tasks x no OpenMP threads
timestep 360
fix_modify k1 demflag 0
fix_modify d2 demflag 0
fix_modify d1 demflag 0
Step CPU Atoms biomass c_myNtypes[1] c_myNtypes[2] c_myNtypes[3] c_myNtypes[4] 
    1503            0      500 3.8172586e-13            0          250          250            0 
number of iterations: 2803 
    1504    1.2009201      500 3.8230458e-13            0          250          250            0 
Loop time of 1.20094 on 4 procs for 1 steps with 500 atoms

100.0% CPU use with 4 MPI tasks x no OpenMP threads
fix_modify k1 demflag 1
fix_modify d2 demflag 1
fix_modify d1 demflag 1
delete_atoms region reg3
Deleted 0 atoms, new total = 500
timestep 0.1
run 500 pre no post no
Step CPU Atoms biomass c_myNtypes[1] c_myNtypes[2] c_myNtypes[3] c_myNtypes[4] 
    1504            0      500 3.8230458e-13            0          250          250            0 
    2004 0.0040171146      500 3.8230458e-13            0          250          250            0 
Loop time of 0.00402957 on 4 procs for 500 steps with 500 atoms

100.0% CPU use with 4 MPI tasks x no OpenMP threads
timestep 360
fix_modify k1 demflag 0
fix_modify d2 demflag 0
fix_modify d1 demflag 0
Step CPU Atoms biomass c_myNtypes[1] c_myNtypes[2] c_myNtypes[3] c_myNtypes[4] 
    2004            0      500 3.8230458e-13            0          250          250            0 
number of iterations: 5125 
    2005    2.1810679      500 3.8288503e-13            0          250          250            0 
Loop time of 2.18108 on 4 procs for 1 steps with 500 atoms

100.0% CPU use with 4 MPI tasks x no OpenMP threads
fix_modify k1 demflag 1
fix_modify d2 demflag 1
fix_modify d1 demflag 1
delete_atoms region reg3
Deleted 0 atoms, new total = 500
timestep 0.1
run 500 pre no post no
Step CPU Atoms biomass c_myNtypes[1] c_myNtypes[2] c_myNtypes[3] c_myNtypes[4] 
    2005            0      500 3.8288503e-13            0          250          250            0 
    2505 0.0038108826      500 3.8288503e-13            0          250          250            0 
Loop time of 0.00382304 on 4 procs for 500 steps with 500 atoms

100.0% CPU use with 4 MPI tasks x no OpenMP threads
timestep 360
fix_modify k1 demflag 0
fix_modify d2 demflag 0
fix_modify d1 demflag 0
Step CPU Atoms biomass c_myNtypes[1] c_myNtypes[2] c_myNtypes[3] c_myNtypes[4] 
    2505            0      500 3.8288503e-13            0          250          250            0 
number of iterations: 2808 
    2506    1.1875842      500 3.8346722e-13            0          250          250            0 
Loop time of 1.1876 on 4 procs for 1 steps with 500 atoms

100.0% CPU use with 4 MPI tasks x no OpenMP threads
fix_modify k1 demflag 1
fix_modify d2 demflag 1
fix_modify d1 demflag 1
delete_atoms region reg3
Deleted 0 atoms, new total = 500
timestep 0.1
run 500 pre no post no
Step CPU Atoms biomass c_myNtypes[1] c_myNtypes[2] c_myNtypes[3] c_myNtypes[4] 
    2506            0      500 3.8346722e-13            0          250          250            0 
    3006 0.0038330555      500 3.8346722e-13            0          250          250            0 
Loop time of 0.00384545 on 4 procs for 500 steps with 500 atoms

100.0% CPU use with 4 MPI tasks x no OpenMP threads
timestep 360
fix_modify k1 demflag 0
fix_modify d2 demflag 0
fix_modify d1 demflag 0
Step CPU Atoms biomass c_myNtypes[1] c_myNtypes[2] c_myNtypes[3] c_myNtypes[4] 
    3006            0      500 3.8346722e-13            0          250          250            0 
number of iterations: 5128 
    3007    2.1785989      500 3.8405114e-13            0          250          250            0 
Loop time of 2.17861 on 4 procs for 1 steps with 500 atoms

100.0% CPU use with 4 MPI tasks x no OpenMP threads
fix_modify k1 demflag 1
fix_modify d2 demflag 1
fix_modify d1 demflag 1
delete_atoms region reg3
Deleted 0 atoms, new total = 500
timestep 0.1
run 500 pre no post no
Step CPU Atoms biomass c_myNtypes[1] c_myNtypes[2] c_myNtypes[3] c_myNtypes[4] 
    3007            0      500 3.8405114e-13            0          250          250            0 
    3507 0.0037388802      500 3.8405114e-13            0          250          250            0 
Loop time of 0.00375074 on 4 procs for 500 steps with 500 atoms

100.0% CPU use with 4 MPI tasks x no OpenMP threads
timestep 360
fix_modify k1 demflag 0
fix_modify d2 demflag 0
fix_modify d1 demflag 0
Step CPU Atoms biomass c_myNtypes[1] c_myNtypes[2] c_myNtypes[3] c_myNtypes[4] 
    3507            0      500 3.8405114e-13            0          250          250            0 
number of iterations: 2808 
    3508    1.1811829      500 3.846368e-13            0          250          250            0 
Loop time of 1.1812 on 4 procs for 1 steps with 500 atoms

100.0% CPU use with 4 MPI tasks x no OpenMP threads
fix_modify k1 demflag 1
fix_modify d2 demflag 1
fix_modify d1 demflag 1
delete_atoms region reg3
Deleted 0 atoms, new total = 500
timestep 0.1
run 500 pre no post no
Step CPU Atoms biomass c_myNtypes[1] c_myNtypes[2] c_myNtypes[3] c_myNtypes[4] 
    3508            0      500 3.846368e-13            0          250          250            0 
    4008 0.0039079189      500 3.846368e-13            0          250          250            0 
Loop time of 0.0039205 on 4 procs for 500 steps with 500 atoms

100.0% CPU use with 4 MPI tasks x no OpenMP threads
timestep 360
fix_modify k1 demflag 0
fix_modify d2 demflag 0
fix_modify d1 demflag 0
Step CPU Atoms biomass c_myNtypes[1] c_myNtypes[2] c_myNtypes[3] c_myNtypes[4] 
    4008            0      500 3.846368e-13            0          250          250            0 
number of iterations: 5129 
    4009     2.184602      500 3.8522422e-13            0          250          250            0 
Loop time of 2.18462 on 4 procs for 1 steps with 500 atoms

99.9% CPU use with 4 MPI tasks x no OpenMP threads
fix_modify k1 demflag 1
fix_modify d2 demflag 1
fix_modify d1 demflag 1
delete_atoms region reg3
Deleted 0 atoms, new total = 500
timestep 0.1
run 500 pre no post no
Step CPU Atoms biomass c_myNtypes[1] c_myNtypes[2] c_myNtypes[3] c_myNtypes[4] 
    4009            0      500 3.8522422e-13            0          250          250            0 
    4509 0.0036931038      500 3.8522422e-13            0          250          250            0 
Loop time of 0.00370431 on 4 procs for 500 steps with 500 atoms

100.0% CPU use with 4 MPI tasks x no OpenMP threads
timestep 360
fix_modify k1 demflag 0
fix_modify d2 demflag 0
fix_modify d1 demflag 0
Step CPU Atoms biomass c_myNtypes[1] c_myNtypes[2] c_myNtypes[3] c_myNtypes[4] 
    4509            0      500 3.8522422e-13            0          250          250            0 
number of iterations: 2807 
    4510    1.1888959      500 3.8581338e-13            0          250          250            0 
Loop time of 1.18891 on 4 procs for 1 steps with 500 atoms

100.0% CPU use with 4 MPI tasks x no OpenMP threads
fix_modify k1 demflag 1
fix_modify d2 demflag 1
fix_modify d1 demflag 1
delete_atoms region reg3
Deleted 0 atoms, new total = 500
timestep 0.1
run 500 pre no post no
Step CPU Atoms biomass c_myNtypes[1] c_myNtypes[2] c_myNtypes[3] c_myNtypes[4] 
    4510            0      500 3.8581338e-13            0          250          250            0 
    5010 0.0037491322      500 3.8581338e-13            0          250          250            0 
Loop time of 0.00376034 on 4 procs for 500 steps with 500 atoms

100.0% CPU use with 4 MPI tasks x no OpenMP threads
timestep 360
fix_modify k1 demflag 0
fix_modify d2 demflag 0
fix_modify d1 demflag 0
Step CPU Atoms biomass c_myNtypes[1] c_myNtypes[2] c_myNtypes[3] c_myNtypes[4] 
    5010            0      500 3.8581338e-13            0          250          250            0 
number of iterations: 5128 
    5011     2.206368      500 3.8640431e-13            0          250          250            0 
Loop time of 2.20639 on 4 procs for 1 steps with 500 atoms

100.0% CPU use with 4 MPI tasks x no OpenMP threads
fix_modify k1 demflag 1
fix_modify d2 demflag 1
fix_modify d1 demflag 1
delete_atoms region reg3
Deleted 0 atoms, new total = 500
timestep 0.1
run 500 pre no post no
Step CPU Atoms biomass c_myNtypes[1] c_myNtypes[2] c_myNtypes[3] c_myNtypes[4] 
    5011            0      500 3.8640431e-13            0          250          250            0 
    5511 0.0037140846      500 3.8640431e-13            0          250          250            0 
Loop time of 0.00372481 on 4 procs for 500 steps with 500 atoms

100.0% CPU use with 4 MPI tasks x no OpenMP threads
timestep 360
fix_modify k1 demflag 0
fix_modify d2 demflag 0
fix_modify d1 demflag 0
Step CPU Atoms biomass c_myNtypes[1] c_myNtypes[2] c_myNtypes[3] c_myNtypes[4] 
    5511            0      500 3.8640431e-13            0          250          250            0 
number of iterations: 2808 
    5512      1.18645      500  3.86997e-13            0          250          250            0 
Loop time of 1.18647 on 4 procs for 1 steps with 500 atoms

100.0% CPU use with 4 MPI tasks x no OpenMP threads
fix_modify k1 demflag 1
fix_modify d2 demflag 1
fix_modify d1 demflag 1
delete_atoms region reg3
Deleted 0 atoms, new total = 500
timestep 0.1
run 500 pre no post no
Step CPU Atoms biomass c_myNtypes[1] c_myNtypes[2] c_myNtypes[3] c_myNtypes[4] 
    5512            0      500  3.86997e-13            0          250          250            0 
    6012 0.0059580803      500  3.86997e-13            0          250          250            0 
Loop time of 0.00597143 on 4 procs for 500 steps with 500 atoms

100.0% CPU use with 4 MPI tasks x no OpenMP threads
timestep 360
fix_modify k1 demflag 0
fix_modify d2 demflag 0
fix_modify d1 demflag 0
Step CPU Atoms biomass c_myNtypes[1] c_myNtypes[2] c_myNtypes[3] c_myNtypes[4] 
    6012            0      500  3.86997e-13            0          250          250            0 
number of iterations: 5128 
    6013    2.1690309      500 3.8759146e-13            0          250          250            0 
Loop time of 2.16905 on 4 procs for 1 steps with 500 atoms

100.0% CPU use with 4 MPI tasks x no OpenMP threads
fix_modify k1 demflag 1
fix_modify d2 demflag 1
fix_modify d1 demflag 1
delete_atoms region reg3
Deleted 0 atoms, new total = 500
timestep 0.1
run 500 pre no post no
Step CPU Atoms biomass c_myNtypes[1] c_myNtypes[2] c_myNtypes[3] c_myNtypes[4] 
    6013            0      500 3.8759146e-13            0          250          250            0 
    6513 0.0060088634      500 3.8759146e-13            0          250          250            0 
Loop time of 0.0060215 on 4 procs for 500 steps with 500 atoms

100.0% CPU use with 4 MPI tasks x no OpenMP threads
timestep 360
fix_modify k1 demflag 0
fix_modify d2 demflag 0
fix_modify d1 demflag 0
Step CPU Atoms biomass c_myNtypes[1] c_myNtypes[2] c_myNtypes[3] c_myNtypes[4] 
    6513            0      500 3.8759146e-13            0          250          250            0 
number of iterations: 2808 
    6514     1.192018      500 3.8818769e-13            0          250          250            0 
Loop time of 1.19204 on 4 procs for 1 steps with 500 atoms

100.0% CPU use with 4 MPI tasks x no OpenMP threads
fix_modify k1 demflag 1
fix_modify d2 demflag 1
fix_modify d1 demflag 1
delete_atoms region reg3
Deleted 0 atoms, new total = 500
timestep 0.1
run 500 pre no post no
Step CPU Atoms biomass c_myNtypes[1] c_myNtypes[2] c_myNtypes[3] c_myNtypes[4] 
    6514            0      500 3.8818769e-13            0          250          250            0 
    7014 0.0036740303      500 3.8818769e-13            0          250          250            0 
Loop time of 0.00368452 on 4 procs for 500 steps with 500 atoms

100.0% CPU use with 4 MPI tasks x no OpenMP threads
timestep 360
fix_modify k1 demflag 0
fix_modify d2 demflag 0
fix_modify d1 demflag 0
Step CPU Atoms biomass c_myNtypes[1] c_myNtypes[2] c_myNtypes[3] c_myNtypes[4] 
    7014            0      500 3.8818769e-13            0          250          250            0 
number of iterations: 5128 
    7015    2.1842721      500 3.887857e-13            0          250          250            0 
Loop time of 2.18429 on 4 procs for 1 steps with 500 atoms

100.0% CPU use with 4 MPI tasks x no OpenMP threads
fix_modify k1 demflag 1
fix_modify d2 demflag 1
fix_modify d1 demflag 1
delete_atoms region reg3
Deleted 0 atoms, new total = 500
timestep 0.1
run 500 pre no post no
Step CPU Atoms biomass c_myNtypes[1] c_myNtypes[2] c_myNtypes[3] c_myNtypes[4] 
    7015            0      500 3.887857e-13            0          250          250            0 
    7515 0.0036790371      500 3.887857e-13            0          250          250            0 
Loop time of 0.00368977 on 4 procs for 500 steps with 500 atoms

100.0% CPU use with 4 MPI tasks x no OpenMP threads
timestep 360
fix_modify k1 demflag 0
fix_modify d2 demflag 0
fix_modify d1 demflag 0
Step CPU Atoms biomass c_myNtypes[1] c_myNtypes[2] c_myNtypes[3] c_myNtypes[4] 
    7515            0      500 3.887857e-13            0          250          250            0 
number of iterations: 2807 
    7516    1.1793189      500 3.893855e-13            0          250          250            0 
Loop time of 1.17934 on 4 procs for 1 steps with 500 atoms

100.0% CPU use with 4 MPI tasks x no OpenMP threads
fix_modify k1 demflag 1
fix_modify d2 demflag 1
fix_modify d1 demflag 1
delete_atoms region reg3
Deleted 0 atoms, new total = 500
timestep 0.1
run 500 pre no post no
Step CPU Atoms biomass c_myNtypes[1] c_myNtypes[2] c_myNtypes[3] c_myNtypes[4] 
    7516            0      500 3.893855e-13            0          250          250            0 
    8016  0.003660202      500 3.893855e-13            0          250          250            0 
Loop time of 0.00367093 on 4 procs for 500 steps with 500 atoms

100.0% CPU use with 4 MPI tasks x no OpenMP threads
timestep 360
fix_modify k1 demflag 0
fix_modify d2 demflag 0
fix_modify d1 demflag 0
Step CPU Atoms biomass c_myNtypes[1] c_myNtypes[2] c_myNtypes[3] c_myNtypes[4] 
    8016            0      500 3.893855e-13            0          250          250            0 
number of iterations: 5127 
    8017      2.22542      500 3.8998709e-13            0          250          250            0 
Loop time of 2.22544 on 4 procs for 1 steps with 500 atoms

99.8% CPU use with 4 MPI tasks x no OpenMP threads
fix_modify k1 demflag 1
fix_modify d2 demflag 1
fix_modify d1 demflag 1
delete_atoms region reg3
Deleted 0 atoms, new total = 500
timestep 0.1
run 500 pre no post no
Step CPU Atoms biomass c_myNtypes[1] c_myNtypes[2] c_myNtypes[3] c_myNtypes[4] 
    8017            0      500 3.8998709e-13            0          250          250            0 
    8517 0.0045859814      500 3.8998709e-13            0          250          250            0 
Loop time of 0.00460029 on 4 procs for 500 steps with 500 atoms

100.0% CPU use with 4 MPI tasks x no OpenMP threads
timestep 360
fix_modify k1 demflag 0
fix_modify d2 demflag 0
fix_modify d1 demflag 0
Step CPU Atoms biomass c_myNtypes[1] c_myNtypes[2] c_myNtypes[3] c_myNtypes[4] 
    8517            0      500 3.8998709e-13            0          250          250            0 
number of iterations: 2808 
    8518    1.1894321      500 3.9059048e-13            0          250          250            0 
Loop time of 1.18945 on 4 procs for 1 steps with 500 atoms

100.0% CPU use with 4 MPI tasks x no OpenMP threads
fix_modify k1 demflag 1
fix_modify d2 demflag 1
fix_modify d1 demflag 1
delete_atoms region reg3
Deleted 0 atoms, new total = 500
timestep 0.1
run 500 pre no post no
Step CPU Atoms biomass c_myNtypes[1] c_myNtypes[2] c_myNtypes[3] c_myNtypes[4] 
    8518            0      500 3.9059048e-13            0          250          250            0 
    9018 0.0036888123      500 3.9059048e-13            0          250          250            0 
Loop time of 0.00369835 on 4 procs for 500 steps with 500 atoms

100.0% CPU use with 4 MPI tasks x no OpenMP threads
timestep 360
fix_modify k1 demflag 0
fix_modify d2 demflag 0
fix_modify d1 demflag 0
Step CPU Atoms biomass c_myNtypes[1] c_myNtypes[2] c_myNtypes[3] c_myNtypes[4] 
    9018            0      500 3.9059048e-13            0          250          250            0 
number of iterations: 5127 
    9019    2.1804368      500 3.9119566e-13            0          250          250            0 
Loop time of 2.18045 on 4 procs for 1 steps with 500 atoms

100.0% CPU use with 4 MPI tasks x no OpenMP threads
fix_modify k1 demflag 1
fix_modify d2 demflag 1
fix_modify d1 demflag 1
delete_atoms region reg3
Deleted 0 atoms, new total = 500
timestep 0.1
run 500 pre no post no
Step CPU Atoms biomass c_myNtypes[1] c_myNtypes[2] c_myNtypes[3] c_myNtypes[4] 
    9019            0      500 3.9119566e-13            0          250          250            0 
    9519 0.0041441917      500 3.9119566e-13            0          250          250            0 
Loop time of 0.00415748 on 4 procs for 500 steps with 500 atoms

100.0% CPU use with 4 MPI tasks x no OpenMP threads
timestep 360
fix_modify k1 demflag 0
fix_modify d2 demflag 0
fix_modify d1 demflag 0
Step CPU Atoms biomass c_myNtypes[1] c_myNtypes[2] c_myNtypes[3] c_myNtypes[4] 
    9519            0      500 3.9119566e-13            0          250          250            0 
number of iterations: 2808 
    9520    1.1850779      500 3.9180265e-13            0          250          250            0 
Loop time of 1.18509 on 4 procs for 1 steps with 500 atoms

99.8% CPU use with 4 MPI tasks x no OpenMP threads
fix_modify k1 demflag 1
fix_modify d2 demflag 1
fix_modify d1 demflag 1
delete_atoms region reg3
Deleted 0 atoms, new total = 500
timestep 0.1
run 500 pre no post no
Step CPU Atoms biomass c_myNtypes[1] c_myNtypes[2] c_myNtypes[3] c_myNtypes[4] 
    9520            0      500 3.9180265e-13            0          250          250            0 
   10020 0.0038018227      500 3.9180265e-13            0          250          250            0 
Loop time of 0.00381261 on 4 procs for 500 steps with 500 atoms

100.0% CPU use with 4 MPI tasks x no OpenMP threads
timestep 360
fix_modify k1 demflag 0
fix_modify d2 demflag 0
fix_modify d1 demflag 0
Step CPU Atoms biomass c_myNtypes[1] c_myNtypes[2] c_myNtypes[3] c_myNtypes[4] 
   10020            0      500 3.9180265e-13            0          250          250            0 
number of iterations: 5127 
   10021    2.1648581      500 3.9241146e-13            0          250          250            0 
Loop time of 2.16488 on 4 procs for 1 steps with 500 atoms

99.9% CPU use with 4 MPI tasks x no OpenMP threads
fix_modify k1 demflag 1
fix_modify d2 demflag 1
fix_modify d1 demflag 1
delete_atoms region reg3
Deleted 0 atoms, new total = 500
timestep 0.1
run 500 pre no post no
Step CPU Atoms biomass c_myNtypes[1] c_myNtypes[2] c_myNtypes[3] c_myNtypes[4] 
   10021            0      500 3.9241146e-13            0          250          250            0 
   10521 0.0039582253      500 3.9241146e-13            0          250          250            0 
Loop time of 0.00397086 on 4 procs for 500 steps with 500 atoms

100.0% CPU use with 4 MPI tasks x no OpenMP threads
timestep 360
fix_modify k1 demflag 0
fix_modify d2 demflag 0
fix_modify d1 demflag 0
Step CPU Atoms biomass c_myNtypes[1] c_myNtypes[2] c_myNtypes[3] c_myNtypes[4] 
   10521            0      500 3.9241146e-13            0          250          250            0 
number of iterations: 2807 
   10522     1.182281      500 3.9302208e-13            0          250          250            0 
Loop time of 1.1823 on 4 procs for 1 steps with 500 atoms

100.0% CPU use with 4 MPI tasks x no OpenMP threads
fix_modify k1 demflag 1
fix_modify d2 demflag 1
fix_modify d1 demflag 1
delete_atoms region reg3
Deleted 0 atoms, new total = 500
timestep 0.1
run 500 pre no post no
Step CPU Atoms biomass c_myNtypes[1] c_myNtypes[2] c_myNtypes[3] c_myNtypes[4] 
   10522            0      500 3.9302208e-13            0          250          250            0 
   11022 0.0038211346      500 3.9302208e-13            0          250          250            0 
Loop time of 0.00383258 on 4 procs for 500 steps with 500 atoms

100.0% CPU use with 4 MPI tasks x no OpenMP threads
timestep 360
fix_modify k1 demflag 0
fix_modify d2 demflag 0
fix_modify d1 demflag 0
Step CPU Atoms biomass c_myNtypes[1] c_myNtypes[2] c_myNtypes[3] c_myNtypes[4] 
   11022            0      500 3.9302208e-13            0          250          250            0 
number of iterations: 5127 
   11023    2.1804259      500 3.9363453e-13            0          250          250            0 
Loop time of 2.18044 on 4 procs for 1 steps with 500 atoms

100.0% CPU use with 4 MPI tasks x no OpenMP threads
fix_modify k1 demflag 1
fix_modify d2 demflag 1
fix_modify d1 demflag 1
delete_atoms region reg3
Deleted 0 atoms, new total = 500
timestep 0.1
run 500 pre no post no
Step CPU Atoms biomass c_myNtypes[1] c_myNtypes[2] c_myNtypes[3] c_myNtypes[4] 
   11023            0      500 3.9363453e-13            0          250          250            0 
   11523 0.0041000843      500 3.9363453e-13            0          250          250            0 
Loop time of 0.0041151 on 4 procs for 500 steps with 500 atoms

100.0% CPU use with 4 MPI tasks x no OpenMP threads
timestep 360
fix_modify k1 demflag 0
fix_modify d2 demflag 0
fix_modify d1 demflag 0
Step CPU Atoms biomass c_myNtypes[1] c_myNtypes[2] c_myNtypes[3] c_myNtypes[4] 
   11523            0      500 3.9363453e-13            0          250          250            0 
number of iterations: 2808 
   11524     1.186965      500 3.942488e-13            0          250          250            0 
Loop time of 1.18698 on 4 procs for 1 steps with 500 atoms

100.0% CPU use with 4 MPI tasks x no OpenMP threads
fix_modify k1 demflag 1
fix_modify d2 demflag 1
fix_modify d1 demflag 1
delete_atoms region reg3
Deleted 0 atoms, new total = 500
timestep 0.1
run 500 pre no post no
Step CPU Atoms biomass c_myNtypes[1] c_myNtypes[2] c_myNtypes[3] c_myNtypes[4] 
   11524            0      500 3.942488e-13            0          250          250            0 
   12024 0.0037398338      500 3.942488e-13            0          250          250            0 
Loop time of 0.00375277 on 4 procs for 500 steps with 500 atoms

100.0% CPU use with 4 MPI tasks x no OpenMP threads
timestep 360
fix_modify k1 demflag 0
fix_modify d2 demflag 0
fix_modify d1 demflag 0
Step CPU Atoms biomass c_myNtypes[1] c_myNtypes[2] c_myNtypes[3] c_myNtypes[4] 
   12024            0      500 3.942488e-13            0          250          250            0 
number of iterations: 5126 
   12025    2.1807129      500 3.948649e-13            0          250          250            0 
Loop time of 2.18073 on 4 procs for 1 steps with 500 atoms

100.0% CPU use with 4 MPI tasks x no OpenMP threads
fix_modify k1 demflag 1
fix_modify d2 demflag 1
fix_modify d1 demflag 1
delete_atoms region reg3
Deleted 0 atoms, new total = 500
timestep 0.1
run 500 pre no post no
Step CPU Atoms biomass c_myNtypes[1] c_myNtypes[2] c_myNtypes[3] c_myNtypes[4] 
   12025            0      500 3.948649e-13            0          250          250            0 
   12525 0.0037620068      500 3.948649e-13            0          250          250            0 
Loop time of 0.00377405 on 4 procs for 500 steps with 500 atoms

100.0% CPU use with 4 MPI tasks x no OpenMP threads
timestep 360
fix_modify k1 demflag 0
fix_modify d2 demflag 0
fix_modify d1 demflag 0
Step CPU Atoms biomass c_myNtypes[1] c_myNtypes[2] c_myNtypes[3] c_myNtypes[4] 
   12525            0      500 3.948649e-13            0          250          250            0 
number of iterations: 2808 
   12526    1.1852579      500 3.9548285e-13            0          250          250            0 
Loop time of 1.18528 on 4 procs for 1 steps with 500 atoms

100.0% CPU use with 4 MPI tasks x no OpenMP threads
fix_modify k1 demflag 1
fix_modify d2 demflag 1
fix_modify d1 demflag 1
delete_atoms region reg3
Deleted 0 atoms, new total = 500
timestep 0.1
run 500 pre no post no
Step CPU Atoms biomass c_myNtypes[1] c_myNtypes[2] c_myNtypes[3] c_myNtypes[4] 
   12526            0      500 3.9548285e-13            0          250          250            0 
   13026 0.0042819977      500 3.9548285e-13            0          250          250            0 
Loop time of 0.00430059 on 4 procs for 500 steps with 500 atoms

100.0% CPU use with 4 MPI tasks x no OpenMP threads
timestep 360
fix_modify k1 demflag 0
fix_modify d2 demflag 0
fix_modify d1 demflag 0
Step CPU Atoms biomass c_myNtypes[1] c_myNtypes[2] c_myNtypes[3] c_myNtypes[4] 
   13026            0      500 3.9548285e-13            0          250          250            0 
number of iterations: 5126 
   13027      2.19082      500 3.9610264e-13            0          250          250            0 
Loop time of 2.19084 on 4 procs for 1 steps with 500 atoms

100.0% CPU use with 4 MPI tasks x no OpenMP threads
fix_modify k1 demflag 1
fix_modify d2 demflag 1
fix_modify d1 demflag 1
delete_atoms region reg3
Deleted 0 atoms, new total = 500
timestep 0.1
run 500 pre no post no
Step CPU Atoms biomass c_myNtypes[1] c_myNtypes[2] c_myNtypes[3] c_myNtypes[4] 
   13027            0      500 3.9610264e-13            0          250          250            0 
   13527 0.0036771297      500 3.9610264e-13            0          250          250            0 
Loop time of 0.00368786 on 4 procs for 500 steps with 500 atoms

100.0% CPU use with 4 MPI tasks x no OpenMP threads
timestep 360
fix_modify k1 demflag 0
fix_modify d2 demflag 0
fix_modify d1 demflag 0
Step CPU Atoms biomass c_myNtypes[1] c_myNtypes[2] c_myNtypes[3] c_myNtypes[4] 
   13527            0      500 3.9610264e-13            0          250          250            0 
number of iterations: 2807 
   13528    1.1853399      500 3.9672428e-13            0          250          250            0 
Loop time of 1.18536 on 4 procs for 1 steps with 500 atoms

100.0% CPU use with 4 MPI tasks x no OpenMP threads
fix_modify k1 demflag 1
fix_modify d2 demflag 1
fix_modify d1 demflag 1
delete_atoms region reg3
Deleted 0 atoms, new total = 500
timestep 0.1
run 500 pre no post no
Step CPU Atoms biomass c_myNtypes[1] c_myNtypes[2] c_myNtypes[3] c_myNtypes[4] 
   13528            0      500 3.9672428e-13            0          250          250            0 
   14028 0.0061409473      500 3.9672428e-13            0          250          250            0 
Loop time of 0.00616717 on 4 procs for 500 steps with 500 atoms

100.0% CPU use with 4 MPI tasks x no OpenMP threads
timestep 360
fix_modify k1 demflag 0
fix_modify d2 demflag 0
fix_modify d1 demflag 0
Step CPU Atoms biomass c_myNtypes[1] c_myNtypes[2] c_myNtypes[3] c_myNtypes[4] 
   14028            0      500 3.9672428e-13            0          250          250            0 
number of iterations: 5126 
   14029    2.1861579      500 3.9734778e-13            0          250          250            0 
Loop time of 2.18618 on 4 procs for 1 steps with 500 atoms

100.0% CPU use with 4 MPI tasks x no OpenMP threads
fix_modify k1 demflag 1
fix_modify d2 demflag 1
fix_modify d1 demflag 1
delete_atoms region reg3
Deleted 0 atoms, new total = 500
timestep 0.1
run 500 pre no post no
Step CPU Atoms biomass c_myNtypes[1] c_myNtypes[2] c_myNtypes[3] c_myNtypes[4] 
   14029            0      500 3.9734778e-13            0          250          250            0 
   14529 0.0056819916      500 3.9734778e-13            0          250          250            0 
Loop time of 0.00569797 on 4 procs for 500 steps with 500 atoms

100.0% CPU use with 4 MPI tasks x no OpenMP threads
timestep 360
fix_modify k1 demflag 0
fix_modify d2 demflag 0
fix_modify d1 demflag 0
Step CPU Atoms biomass c_myNtypes[1] c_myNtypes[2] c_myNtypes[3] c_myNtypes[4] 
   14529            0      500 3.9734778e-13            0          250          250            0 
number of iterations: 2808 
   14530     1.192636      500 3.9797313e-13            0          250          250            0 
Loop time of 1.19265 on 4 procs for 1 steps with 500 atoms

100.0% CPU use with 4 MPI tasks x no OpenMP threads
fix_modify k1 demflag 1
fix_modify d2 demflag 1
fix_modify d1 demflag 1
delete_atoms region reg3
Deleted 0 atoms, new total = 500
timestep 0.1
run 500 pre no post no
Step CPU Atoms biomass c_myNtypes[1] c_myNtypes[2] c_myNtypes[3] c_myNtypes[4] 
   14530            0      500 3.9797313e-13            0          250          250            0 
   15030 0.0039610863      500 3.9797313e-13            0          250          250            0 
Loop time of 0.00397325 on 4 procs for 500 steps with 500 atoms

100.0% CPU use with 4 MPI tasks x no OpenMP threads
timestep 360
fix_modify k1 demflag 0
fix_modify d2 demflag 0
fix_modify d1 demflag 0
Step CPU Atoms biomass c_myNtypes[1] c_myNtypes[2] c_myNtypes[3] c_myNtypes[4] 
   15030            0      500 3.9797313e-13            0          250          250            0 
number of iterations: 5125 
   15031     2.169713      500 3.9860036e-13            0          250          250            0 
Loop time of 2.16973 on 4 procs for 1 steps with 500 atoms

100.0% CPU use with 4 MPI tasks x no OpenMP threads
fix_modify k1 demflag 1
fix_modify d2 demflag 1
fix_modify d1 demflag 1
delete_atoms region reg3
Deleted 0 atoms, new total = 500
timestep 0.1
run 500 pre no post no
Step CPU Atoms biomass c_myNtypes[1] c_myNtypes[2] c_myNtypes[3] c_myNtypes[4] 
   15031            0      500 3.9860036e-13            0          250          250            0 
   15531 0.0036649704      500 3.9860036e-13            0          250          250            0 
Loop time of 0.0036757 on 4 procs for 500 steps with 500 atoms

100.0% CPU use with 4 MPI tasks x no OpenMP threads
timestep 360
fix_modify k1 demflag 0
fix_modify d2 demflag 0
fix_modify d1 demflag 0
Step CPU Atoms biomass c_myNtypes[1] c_myNtypes[2] c_myNtypes[3] c_myNtypes[4] 
   15531            0      500 3.9860036e-13            0          250          250            0 
number of iterations: 2808 
   15532    1.2109511      500 3.9922946e-13            0          250          250            0 
Loop time of 1.21097 on 4 procs for 1 steps with 500 atoms

100.0% CPU use with 4 MPI tasks x no OpenMP threads
fix_modify k1 demflag 1
fix_modify d2 demflag 1
fix_modify d1 demflag 1
delete_atoms region reg3
Deleted 0 atoms, new total = 500
timestep 0.1
run 500 pre no post no
Step CPU Atoms biomass c_myNtypes[1] c_myNtypes[2] c_myNtypes[3] c_myNtypes[4] 
   15532            0      500 3.9922946e-13            0          250          250            0 
   16032 0.0038189888      500 3.9922946e-13            0          250          250            0 
Loop time of 0.00383127 on 4 procs for 500 steps with 500 atoms

100.0% CPU use with 4 MPI tasks x no OpenMP threads
timestep 360
fix_modify k1 demflag 0
fix_modify d2 demflag 0
fix_modify d1 demflag 0
Step CPU Atoms biomass c_myNtypes[1] c_myNtypes[2] c_myNtypes[3] c_myNtypes[4] 
   16032            0      500 3.9922946e-13            0          250          250            0 
number of iterations: 5126 
   16033     2.188334      500 3.9986043e-13            0          250          250            0 
Loop time of 2.18835 on 4 procs for 1 steps with 500 atoms

99.9% CPU use with 4 MPI tasks x no OpenMP threads
fix_modify k1 demflag 1
fix_modify d2 demflag 1
fix_modify d1 demflag 1
delete_atoms region reg3
Deleted 0 atoms, new total = 500
timestep 0.1
run 500 pre no post no
Step CPU Atoms biomass c_myNtypes[1] c_myNtypes[2] c_myNtypes[3] c_myNtypes[4] 
   16033            0      500 3.9986043e-13            0          250          250            0 
   16533 0.0037009716      500 3.9986043e-13            0          250          250            0 
Loop time of 0.00371337 on 4 procs for 500 steps with 500 atoms

100.0% CPU use with 4 MPI tasks x no OpenMP threads
timestep 360
fix_modify k1 demflag 0
fix_modify d2 demflag 0
fix_modify d1 demflag 0
Step CPU Atoms biomass c_myNtypes[1] c_myNtypes[2] c_myNtypes[3] c_myNtypes[4] 
   16533            0      500 3.9986043e-13            0          250          250            0 
number of iterations: 2807 
   16534     1.181881      500 4.0049329e-13            0          250          250            0 
Loop time of 1.1819 on 4 procs for 1 steps with 500 atoms

100.0% CPU use with 4 MPI tasks x no OpenMP threads
fix_modify k1 demflag 1
fix_modify d2 demflag 1
fix_modify d1 demflag 1
delete_atoms region reg3
Deleted 0 atoms, new total = 500
timestep 0.1
run 500 pre no post no
Step CPU Atoms biomass c_myNtypes[1] c_myNtypes[2] c_myNtypes[3] c_myNtypes[4] 
   16534            0      500 4.0049329e-13            0          250          250            0 
   17034 0.0037059784      500 4.0049329e-13            0          250          250            0 
Loop time of 0.00371766 on 4 procs for 500 steps with 500 atoms

100.0% CPU use with 4 MPI tasks x no OpenMP threads
timestep 360
fix_modify k1 demflag 0
fix_modify d2 demflag 0
fix_modify d1 demflag 0
Step CPU Atoms biomass c_myNtypes[1] c_myNtypes[2] c_myNtypes[3] c_myNtypes[4] 
   17034            0      500 4.0049329e-13            0          250          250            0 
number of iterations: 5125 
   17035    2.1777902      500 4.0112803e-13            0          250          250            0 
Loop time of 2.17781 on 4 procs for 1 steps with 500 atoms

100.0% CPU use with 4 MPI tasks x no OpenMP threads
fix_modify k1 demflag 1
fix_modify d2 demflag 1
fix_modify d1 demflag 1
delete_atoms region reg3
Deleted 0 atoms, new total = 500
timestep 0.1
run 500 pre no post no
Step CPU Atoms biomass c_myNtypes[1] c_myNtypes[2] c_myNtypes[3] c_myNtypes[4] 
   17035            0      500 4.0112803e-13            0          250          250            0 
   17535 0.0060298443      500 4.0112803e-13            0          250          250            0 
Loop time of 0.00604671 on 4 procs for 500 steps with 500 atoms

100.0% CPU use with 4 MPI tasks x no OpenMP threads
timestep 360
fix_modify k1 demflag 0
fix_modify d2 demflag 0
fix_modify d1 demflag 0
Step CPU Atoms biomass c_myNtypes[1] c_myNtypes[2] c_myNtypes[3] c_myNtypes[4] 
   17535            0      500 4.0112803e-13            0          250          250            0 
number of iterations: 2808 
   17536    1.1811471      500 4.0176468e-13            0          250          250            0 
Loop time of 1.18116 on 4 procs for 1 steps with 500 atoms

100.0% CPU use with 4 MPI tasks x no OpenMP threads
fix_modify k1 demflag 1
fix_modify d2 demflag 1
fix_modify d1 demflag 1
delete_atoms region reg3
Deleted 0 atoms, new total = 500
timestep 0.1
run 500 pre no post no
Step CPU Atoms biomass c_myNtypes[1] c_myNtypes[2] c_myNtypes[3] c_myNtypes[4] 
   17536            0      500 4.0176468e-13            0          250          250            0 
   18036 0.0036959648      500 4.0176468e-13            0          250          250            0 
Loop time of 0.00370693 on 4 procs for 500 steps with 500 atoms

100.0% CPU use with 4 MPI tasks x no OpenMP threads
timestep 360
fix_modify k1 demflag 0
fix_modify d2 demflag 0
fix_modify d1 demflag 0
Step CPU Atoms biomass c_myNtypes[1] c_myNtypes[2] c_myNtypes[3] c_myNtypes[4] 
   18036            0      500 4.0176468e-13            0          250          250            0 
number of iterations: 5124 
   18037     2.192548      500 4.0240322e-13            0          250          250            0 
Loop time of 2.19257 on 4 procs for 1 steps with 500 atoms

100.0% CPU use with 4 MPI tasks x no OpenMP threads
fix_modify k1 demflag 1
fix_modify d2 demflag 1
fix_modify d1 demflag 1
delete_atoms region reg3
Deleted 0 atoms, new total = 500
timestep 0.1
run 500 pre no post no
Step CPU Atoms biomass c_myNtypes[1] c_myNtypes[2] c_myNtypes[3] c_myNtypes[4] 
   18037            0      500 4.0240322e-13            0          250          250            0 
   18537  0.003690958      500 4.0240322e-13            0          250          250            0 
Loop time of 0.00370193 on 4 procs for 500 steps with 500 atoms

100.0% CPU use with 4 MPI tasks x no OpenMP threads
timestep 360
fix_modify k1 demflag 0
fix_modify d2 demflag 0
fix_modify d1 demflag 0
Step CPU Atoms biomass c_myNtypes[1] c_myNtypes[2] c_myNtypes[3] c_myNtypes[4] 
   18537            0      500 4.0240322e-13            0          250          250            0 
number of iterations: 2808 
   18538    1.1832478      500 4.0304367e-13            0          250          250            0 
Loop time of 1.18326 on 4 procs for 1 steps with 500 atoms

100.0% CPU use with 4 MPI tasks x no OpenMP threads
fix_modify k1 demflag 1
fix_modify d2 demflag 1
fix_modify d1 demflag 1
delete_atoms region reg3
Deleted 0 atoms, new total = 500
timestep 0.1
run 500 pre no post no
Step CPU Atoms biomass c_myNtypes[1] c_myNtypes[2] c_myNtypes[3] c_myNtypes[4] 
   18538            0      500 4.0304367e-13            0          250          250            0 
   19038 0.0036790371      500 4.0304367e-13            0          250          250            0 
Loop time of 0.00369 on 4 procs for 500 steps with 500 atoms

100.0% CPU use with 4 MPI tasks x no OpenMP threads
timestep 360
fix_modify k1 demflag 0
fix_modify d2 demflag 0
fix_modify d1 demflag 0
Step CPU Atoms biomass c_myNtypes[1] c_myNtypes[2] c_myNtypes[3] c_myNtypes[4] 
   19038            0      500 4.0304367e-13            0          250          250            0 
number of iterations: 5125 
   19039    2.1682501      500 4.0368603e-13            0          250          250            0 
Loop time of 2.16827 on 4 procs for 1 steps with 500 atoms

99.9% CPU use with 4 MPI tasks x no OpenMP threads
fix_modify k1 demflag 1
fix_modify d2 demflag 1
fix_modify d1 demflag 1
delete_atoms region reg3
Deleted 0 atoms, new total = 500
timestep 0.1
run 500 pre no post no
Step CPU Atoms biomass c_myNtypes[1] c_myNtypes[2] c_myNtypes[3] c_myNtypes[4] 
   19039            0      500 4.0368603e-13            0          250          250            0 
   19539 0.0036818981      500 4.0368603e-13            0          250          250            0 
Loop time of 0.00369287 on 4 procs for 500 steps with 500 atoms

100.0% CPU use with 4 MPI tasks x no OpenMP threads
timestep 360
fix_modify k1 demflag 0
fix_modify d2 demflag 0
fix_modify d1 demflag 0
Step CPU Atoms biomass c_myNtypes[1] c_myNtypes[2] c_myNtypes[3] c_myNtypes[4] 
   19539            0      500 4.0368603e-13            0          250          250            0 
number of iterations: 2807 
   19540     1.175395      500 4.0433031e-13            0          250          250            0 
Loop time of 1.17541 on 4 procs for 1 steps with 500 atoms

100.0% CPU use with 4 MPI tasks x no OpenMP threads
fix_modify k1 demflag 1
fix_modify d2 demflag 1
fix_modify d1 demflag 1
delete_atoms region reg3
Deleted 0 atoms, new total = 500
timestep 0.1
run 500 pre no post no
Step CPU Atoms biomass c_myNtypes[1] c_myNtypes[2] c_myNtypes[3] c_myNtypes[4] 
   19540            0      500 4.0433031e-13            0          250          250            0 
   20040 0.0037541389      500 4.0433031e-13            0          250          250            0 
Loop time of 0.00376457 on 4 procs for 500 steps with 500 atoms

100.0% CPU use with 4 MPI tasks x no OpenMP threads
timestep 360
fix_modify k1 demflag 0
fix_modify d2 demflag 0
fix_modify d1 demflag 0
Step CPU Atoms biomass c_myNtypes[1] c_myNtypes[2] c_myNtypes[3] c_myNtypes[4] 
   20040            0      500 4.0433031e-13            0          250          250            0 
number of iterations: 5124 
   20041    2.1613719      500 4.0497651e-13            0          250          250            0 
Loop time of 2.16139 on 4 procs for 1 steps with 500 atoms

100.0% CPU use with 4 MPI tasks x no OpenMP threads
fix_modify k1 demflag 1
fix_modify d2 demflag 1
fix_modify d1 demflag 1
delete_atoms region reg3
Deleted 0 atoms, new total = 500
timestep 0.1
run 500 pre no post no
Step CPU Atoms biomass c_myNtypes[1] c_myNtypes[2] c_myNtypes[3] c_myNtypes[4] 
   20041            0      500 4.0497651e-13            0          250          250            0 
   20541 0.0036890507      500 4.0497651e-13            0          250          250            0 
Loop time of 0.00369859 on 4 procs for 500 steps with 500 atoms

100.0% CPU use with 4 MPI tasks x no OpenMP threads
timestep 360
fix_modify k1 demflag 0
fix_modify d2 demflag 0
fix_modify d1 demflag 0
Step CPU Atoms biomass c_myNtypes[1] c_myNtypes[2] c_myNtypes[3] c_myNtypes[4] 
   20541            0      500 4.0497651e-13            0          250          250            0 
number of iterations: 2808 
   20542    1.1827888      500 4.0562464e-13            0          250          250            0 
Loop time of 1.18281 on 4 procs for 1 steps with 500 atoms

100.0% CPU use with 4 MPI tasks x no OpenMP threads
fix_modify k1 demflag 1
fix_modify d2 demflag 1
fix_modify d1 demflag 1
delete_atoms region reg3
Deleted 0 atoms, new total = 500
timestep 0.1
run 500 pre no post no
Step CPU Atoms biomass c_myNtypes[1] c_myNtypes[2] c_myNtypes[3] c_myNtypes[4] 
   20542            0      500 4.0562464e-13            0          250          250            0 
   21042 0.0037369728      500 4.0562464e-13            0          250          250            0 
Loop time of 0.0037477 on 4 procs for 500 steps with 500 atoms

100.0% CPU use with 4 MPI tasks x no OpenMP threads
timestep 360
fix_modify k1 demflag 0
fix_modify d2 demflag 0
fix_modify d1 demflag 0
Step CPU Atoms biomass c_myNtypes[1] c_myNtypes[2] c_myNtypes[3] c_myNtypes[4] 
   21042            0      500 4.0562464e-13            0          250          250            0 
number of iterations: 5124 
   21043    2.1775961      500 4.062747e-13            0          250          250            0 
Loop time of 2.17761 on 4 procs for 1 steps with 500 atoms

100.0% CPU use with 4 MPI tasks x no OpenMP threads
fix_modify k1 demflag 1
fix_modify d2 demflag 1
fix_modify d1 demflag 1
delete_atoms region reg3
Deleted 0 atoms, new total = 500
timestep 0.1
run 500 pre no post no
Step CPU Atoms biomass c_myNtypes[1] c_myNtypes[2] c_myNtypes[3] c_myNtypes[4] 
   21043            0      500 4.062747e-13            0          250          250            0 
   21543 0.0036768913      500 4.062747e-13            0          250          250            0 
Loop time of 0.00368702 on 4 procs for 500 steps with 500 atoms

100.0% CPU use with 4 MPI tasks x no OpenMP threads
timestep 360
fix_modify k1 demflag 0
fix_modify d2 demflag 0
fix_modify d1 demflag 0
Step CPU Atoms biomass c_myNtypes[1] c_myNtypes[2] c_myNtypes[3] c_myNtypes[4] 
   21543            0      500 4.062747e-13            0          250          250            0 
number of iterations: 2808 
   21544    1.1766379      500 4.0692671e-13            0          250          250            0 
Loop time of 1.17666 on 4 procs for 1 steps with 500 atoms

100.0% CPU use with 4 MPI tasks x no OpenMP threads
fix_modify k1 demflag 1
fix_modify d2 demflag 1
fix_modify d1 demflag 1
delete_atoms region reg3
Deleted 0 atoms, new total = 500
timestep 0.1
run 500 pre no post no
Step CPU Atoms biomass c_myNtypes[1] c_myNtypes[2] c_myNtypes[3] c_myNtypes[4] 
   21544            0      500 4.0692671e-13            0          250          250            0 
   22044 0.0037529469      500 4.0692671e-13            0          250          250            0 
Loop time of 0.00376534 on 4 procs for 500 steps with 500 atoms

100.0% CPU use with 4 MPI tasks x no OpenMP threads
timestep 360
fix_modify k1 demflag 0
fix_modify d2 demflag 0
fix_modify d1 demflag 0
Step CPU Atoms biomass c_myNtypes[1] c_myNtypes[2] c_myNtypes[3] c_myNtypes[4] 
   22044            0      500 4.0692671e-13            0          250          250            0 
number of iterations: 5124 
   22045     2.177994      500 4.0758066e-13            0          250          250            0 
Loop time of 2.17801 on 4 procs for 1 steps with 500 atoms

100.0% CPU use with 4 MPI tasks x no OpenMP threads
fix_modify k1 demflag 1
fix_modify d2 demflag 1
fix_modify d1 demflag 1
delete_atoms region reg3
Deleted 0 atoms, new total = 500
timestep 0.1
run 500 pre no post no
Step CPU Atoms biomass c_myNtypes[1] c_myNtypes[2] c_myNtypes[3] c_myNtypes[4] 
   22045            0      500 4.0758066e-13            0          250          250            0 
   22545  0.003729105      500 4.0758066e-13            0          250          250            0 
Loop time of 0.00374007 on 4 procs for 500 steps with 500 atoms

100.0% CPU use with 4 MPI tasks x no OpenMP threads
timestep 360
fix_modify k1 demflag 0
fix_modify d2 demflag 0
fix_modify d1 demflag 0
Step CPU Atoms biomass c_myNtypes[1] c_myNtypes[2] c_myNtypes[3] c_myNtypes[4] 
   22545            0      500 4.0758066e-13            0          250          250            0 
number of iterations: 2807 
   22546     1.180989      500 4.0823656e-13            0          250          250            0 
Loop time of 1.18101 on 4 procs for 1 steps with 500 atoms

100.0% CPU use with 4 MPI tasks x no OpenMP threads
fix_modify k1 demflag 1
fix_modify d2 demflag 1
fix_modify d1 demflag 1
delete_atoms region reg3
Deleted 0 atoms, new total = 500
timestep 0.1
run 500 pre no post no
Step CPU Atoms biomass c_myNtypes[1] c_myNtypes[2] c_myNtypes[3] c_myNtypes[4] 
   22546            0      500 4.0823656e-13            0          250          250            0 
   23046 0.0038259029      500 4.0823656e-13            0          250          250            0 
Loop time of 0.00384355 on 4 procs for 500 steps with 500 atoms

100.0% CPU use with 4 MPI tasks x no OpenMP threads
timestep 360
fix_modify k1 demflag 0
fix_modify d2 demflag 0
fix_modify d1 demflag 0
Step CPU Atoms biomass c_myNtypes[1] c_myNtypes[2] c_myNtypes[3] c_myNtypes[4] 
   23046            0      500 4.0823656e-13            0          250          250            0 
number of iterations: 5124 
   23047    2.1687911      500 4.0889442e-13            0          250          250            0 
Loop time of 2.16881 on 4 procs for 1 steps with 500 atoms

100.0% CPU use with 4 MPI tasks x no OpenMP threads
fix_modify k1 demflag 1
fix_modify d2 demflag 1
fix_modify d1 demflag 1
delete_atoms region reg3
Deleted 0 atoms, new total = 500
timestep 0.1
run 500 pre no post no
Step CPU Atoms biomass c_myNtypes[1] c_myNtypes[2] c_myNtypes[3] c_myNtypes[4] 
   23047            0      500 4.0889442e-13            0          250          250            0 
   23547 0.0037109852      500 4.0889442e-13            0          250          250            0 
Loop time of 0.00372195 on 4 procs for 500 steps with 500 atoms

100.0% CPU use with 4 MPI tasks x no OpenMP threads
timestep 360
fix_modify k1 demflag 0
fix_modify d2 demflag 0
fix_modify d1 demflag 0
Step CPU Atoms biomass c_myNtypes[1] c_myNtypes[2] c_myNtypes[3] c_myNtypes[4] 
   23547            0      500 4.0889442e-13            0          250          250            0 
number of iterations: 2808 
   23548    1.1818151      500 4.0955425e-13            0          250          250            0 
Loop time of 1.18183 on 4 procs for 1 steps with 500 atoms

99.9% CPU use with 4 MPI tasks x no OpenMP threads
fix_modify k1 demflag 1
fix_modify d2 demflag 1
fix_modify d1 demflag 1
delete_atoms region reg3
Deleted 0 atoms, new total = 500
timestep 0.1
run 500 pre no post no
Step CPU Atoms biomass c_myNtypes[1] c_myNtypes[2] c_myNtypes[3] c_myNtypes[4] 
   23548            0      500 4.0955425e-13            0          250          250            0 
   24048 0.0037620068      500 4.0955425e-13            0          250          250            0 
Loop time of 0.00377202 on 4 procs for 500 steps with 500 atoms

100.0% CPU use with 4 MPI tasks x no OpenMP threads
timestep 360
fix_modify k1 demflag 0
fix_modify d2 demflag 0
fix_modify d1 demflag 0
Step CPU Atoms biomass c_myNtypes[1] c_myNtypes[2] c_myNtypes[3] c_myNtypes[4] 
   24048            0      500 4.0955425e-13            0          250          250            0 
number of iterations: 5123 
   24049     2.174968      500 4.1021604e-13            0          250          250            0 
Loop time of 2.17499 on 4 procs for 1 steps with 500 atoms

100.0% CPU use with 4 MPI tasks x no OpenMP threads
fix_modify k1 demflag 1
fix_modify d2 demflag 1
fix_modify d1 demflag 1
delete_atoms region reg3
Deleted 0 atoms, new total = 500
timestep 0.1
run 500 pre no post no
Step CPU Atoms biomass c_myNtypes[1] c_myNtypes[2] c_myNtypes[3] c_myNtypes[4] 
   24049            0      500 4.1021604e-13            0          250          250            0 
   24549 0.0037629604      500 4.1021604e-13            0          250          250            0 
Loop time of 0.00377423 on 4 procs for 500 steps with 500 atoms

100.0% CPU use with 4 MPI tasks x no OpenMP threads
timestep 360
fix_modify k1 demflag 0
fix_modify d2 demflag 0
fix_modify d1 demflag 0
Step CPU Atoms biomass c_myNtypes[1] c_myNtypes[2] c_myNtypes[3] c_myNtypes[4] 
   24549            0      500 4.1021604e-13            0          250          250            0 
number of iterations: 2808 
   24550    1.1860619      500 4.1087981e-13            0          250          250            0 
Loop time of 1.18608 on 4 procs for 1 steps with 500 atoms

100.0% CPU use with 4 MPI tasks x no OpenMP threads

MPI task timing breakdown:
Section |  min time  |  avg time  |  max time  |%varavg| %total
---------------------------------------------------------------
Pair    | 1.9073e-06 | 2.265e-06  | 3.0994e-06 |   0.0 |  0.00
Neigh   | 0.0043769  | 0.0044884  | 0.0046179  |   0.1 |  0.38
Comm    | 0.02134    | 0.021341   | 0.021342   |   0.0 |  1.80
Output  | 1.502e-05  | 4.6551e-05 | 6.0081e-05 |   0.3 |  0.00
Modify  | 1.1601     | 1.1602     | 1.1603     |   0.0 | 97.82
Other   |            | 1.276e-05  |            |       |  0.00

Nlocal:    125 ave 137 max 120 min
Histogram: 2 1 0 0 0 0 0 0 0 1
Nghost:    5 ave 7 max 3 min
Histogram: 1 0 0 0 0 2 0 0 0 1
Neighs:    0.25 ave 1 max 0 min
Histogram: 3 0 0 0 0 0 0 0 0 1

Total # of neighbors = 1
Ave neighs/atom = 0.002
Neighbor list builds = 50
Dangerous builds = 0
fix_modify k1 demflag 1
fix_modify d2 demflag 1
fix_modify d1 demflag 1
delete_atoms region reg3
Deleted 0 atoms, new total = 500
timestep 0.1
run 500 pre no post no
Step CPU Atoms biomass c_myNtypes[1] c_myNtypes[2] c_myNtypes[3] c_myNtypes[4] 
   24550            0      500 4.1087981e-13            0          250          250            0 
   25050 0.0038340092      500 4.1087981e-13            0          250          250            0 
Loop time of 0.00384593 on 4 procs for 500 steps with 500 atoms

100.0% CPU use with 4 MPI tasks x no OpenMP threads
timestep 360
fix_modify k1 demflag 0
fix_modify d2 demflag 0
fix_modify d1 demflag 0


Total wall time: 0:01:39
