LAMMPS (5 Nov 2016)
# NUFEB simulation
units si
atom_style      bio
atom_modify     map array sort 100 5.0e-7
boundary        pp pp ff
newton          off
processors  4 1 1


comm_modify     vel yes
read_data_bio atom.in
  orthogonal box = (0 0 0) to (0.00025 5e-05 0.0003)
  4 by 1 by 1 MPI processor grid
  reading atoms ...
  0 atoms
  7 nutrients

group AOB type 1
0 atoms in group AOB
group NOB type 2
0 atoms in group NOB
group DEAD type 3
0 atoms in group DEAD

##############Define initial particle distribution##############

lattice sc 1e-5 origin 0.5 0.5 0.4
Lattice spacing in x,y,z = 1e-05 1e-05 1e-05
region reg block 0 25 0 5 0 1
create_atoms 1 region reg
Created 125 atoms

lattice sc 1e-5 origin 0.1 0.5 0.4
Lattice spacing in x,y,z = 1e-05 1e-05 1e-05
region reg2 block 0 25 0 5 0 1
create_atoms 2 region reg2
Created 125 atoms

set type 1 diameter 1e-6
  125 settings made for diameter
set type 1 density 290
  125 settings made for density
set type 1 mass 1.52e-15
  125 settings made for mass
set type 2 diameter 1e-6
  125 settings made for diameter
set type 2 density 290
  125 settings made for density
set type 2 mass 1.52e-15
  125 settings made for mass

lattice sc 1e-5 origin 0 0 0
Lattice spacing in x,y,z = 1e-05 1e-05 1e-05
region reg3 block 0 25 0 5 25 30

neighbor        5e-7 bin
neigh_modify    delay 0 one 5000

##############Define DEM Variables&Commands##############

pair_style  gran/hooke/history 1.e-4 NULL 1.e-5 NULL 0.0 1
pair_coeff  * *

timestep 360

fix 1 all nve/limit 1e-7
fix fv all viscous 1e-5

fix zw all wall/gran hooke/history 2000 NULL 500 NULL 1.5 0 zplane  0.0  3e-04

variable kanc equal 0
fix zwa all walladh v_kanc zplane  0.0   3e-04

variable ke equal 5e+9
#fix j1 all epsadh 1 v_ke 1

##############Ibm Variable Definitions##############

#Defining EPS density and ratio variables
variable EPSdens equal 30
variable EPSratio equal 1.25

#variables used in fix division
variable divDia equal 1e-6

#Defining diffusion variables
variable diffT equal 1e-4
variable tol equal 1e-6
variable etaHET equal 0.0
variable layer equal 4e-5

#variables used in fix death
variable deadDia equal 5.85e-7

##############Ibm functions##############

fix k1 all kinetics 1 25 5 30 v_diffT v_layer demflag 0 niter -1 ph 7.5 devery 1
#fix ki3 all kinetics/ph
fix ki2 all kinetics/thermo
fix ki1 all kinetics/growth/energy v_EPSdens
fix g1 all kinetics/diffusion v_tol pp pp nd mol
fix d1 all divide 1 v_EPSdens v_divDia 31231 demflag 0
fix d2 all death 1 v_deadDia demflag 0

##############Ibm compute##############

compute myNtypes all ntypes
compute myMass all biomass
compute myAvgs all avg_con
compute myPh all avg_ph

##############Simulation outputs##############

thermo_style    custom step cpu atoms biomass c_myNtypes[*]
dump du0 all bio 5010 biomass ntypes bulk avg_con avg_ph
#dump du2 all grid 50100 grid_%_*.vti con hyd
#dump du3 all custom/vtk 50100 snapshot%_*.vtu id type diameter x y z
#dump du4 all bio/hdf5 50100 dump_*.h5 id type radius x y z con cat ana hyd
thermo 501
thermo_modify   lost ignore

##############Define Bio-loop and DEM-subloop##############

run 50 pre no post no every 1 "fix_modify k1 demflag 1" "fix_modify d2 demflag 1" "fix_modify d1 demflag 1" "delete_atoms region reg3" "timestep 0.1" "run 500 pre no post no" "timestep 360" "fix_modify k1 demflag 0" "fix_modify d2 demflag 0" "fix_modify d1 demflag 0"
Neighbor list info ...
  2 neighbor list requests
  update every 1 steps, delay 0 steps, check yes
  max neighbors/atom: 5000, page size: 100000
  master list distance cutoff = 1.5e-06
  ghost atom cutoff = 1.5e-06
  binsize = 7.5e-07 -> bins = 334 67 400
Memory usage per processor = 16.9048 Mbytes
Step CPU Atoms biomass c_myNtypes[1] c_myNtypes[2] c_myNtypes[3] c_myNtypes[4] 
       0            0      250      3.8e-13            0          125          125            0 
number of iterations: 38508 
       1    17.115422      500 3.8056769e-13            0          250          250            0 
Loop time of 17.1154 on 4 procs for 1 steps with 500 atoms

100.0% CPU use with 4 MPI tasks x no OpenMP threads
fix_modify k1 demflag 1
fix_modify d2 demflag 1
fix_modify d1 demflag 1
delete_atoms region reg3
Deleted 0 atoms, new total = 500
timestep 0.1
run 500 pre no post no
Step CPU Atoms biomass c_myNtypes[1] c_myNtypes[2] c_myNtypes[3] c_myNtypes[4] 
       1            0      500 3.8056769e-13            0          250          250            0 
     501 0.0056600571      500 3.8056769e-13            0          250          250            0 
Loop time of 0.00567991 on 4 procs for 500 steps with 500 atoms

100.0% CPU use with 4 MPI tasks x no OpenMP threads
timestep 360
fix_modify k1 demflag 0
fix_modify d2 demflag 0
fix_modify d1 demflag 0
Step CPU Atoms biomass c_myNtypes[1] c_myNtypes[2] c_myNtypes[3] c_myNtypes[4] 
     501            0      500 3.8056769e-13            0          250          250            0 
number of iterations: 2702 
     502     1.134685      500 3.8113707e-13            0          250          250            0 
Loop time of 1.1347 on 4 procs for 1 steps with 500 atoms

99.9% CPU use with 4 MPI tasks x no OpenMP threads
fix_modify k1 demflag 1
fix_modify d2 demflag 1
fix_modify d1 demflag 1
delete_atoms region reg3
Deleted 0 atoms, new total = 500
timestep 0.1
run 500 pre no post no
Step CPU Atoms biomass c_myNtypes[1] c_myNtypes[2] c_myNtypes[3] c_myNtypes[4] 
     502            0      500 3.8113707e-13            0          250          250            0 
    1002 0.0037140846      500 3.8113707e-13            0          250          250            0 
Loop time of 0.00372529 on 4 procs for 500 steps with 500 atoms

100.0% CPU use with 4 MPI tasks x no OpenMP threads
timestep 360
fix_modify k1 demflag 0
fix_modify d2 demflag 0
fix_modify d1 demflag 0
Step CPU Atoms biomass c_myNtypes[1] c_myNtypes[2] c_myNtypes[3] c_myNtypes[4] 
    1002            0      500 3.8113707e-13            0          250          250            0 
number of iterations: 5463 
    1003     2.322417      500 3.8170815e-13            0          250          250            0 
Loop time of 2.32243 on 4 procs for 1 steps with 500 atoms

100.0% CPU use with 4 MPI tasks x no OpenMP threads
fix_modify k1 demflag 1
fix_modify d2 demflag 1
fix_modify d1 demflag 1
delete_atoms region reg3
Deleted 0 atoms, new total = 500
timestep 0.1
run 500 pre no post no
Step CPU Atoms biomass c_myNtypes[1] c_myNtypes[2] c_myNtypes[3] c_myNtypes[4] 
    1003            0      500 3.8170815e-13            0          250          250            0 
    1503  0.003759861      500 3.8170815e-13            0          250          250            0 
Loop time of 0.00377345 on 4 procs for 500 steps with 500 atoms

100.0% CPU use with 4 MPI tasks x no OpenMP threads
timestep 360
fix_modify k1 demflag 0
fix_modify d2 demflag 0
fix_modify d1 demflag 0
Step CPU Atoms biomass c_myNtypes[1] c_myNtypes[2] c_myNtypes[3] c_myNtypes[4] 
    1503            0      500 3.8170815e-13            0          250          250            0 
number of iterations: 2806 
    1504    1.2146049      500 3.8228094e-13            0          250          250            0 
Loop time of 1.21462 on 4 procs for 1 steps with 500 atoms

99.8% CPU use with 4 MPI tasks x no OpenMP threads
fix_modify k1 demflag 1
fix_modify d2 demflag 1
fix_modify d1 demflag 1
delete_atoms region reg3
Deleted 0 atoms, new total = 500
timestep 0.1
run 500 pre no post no
Step CPU Atoms biomass c_myNtypes[1] c_myNtypes[2] c_myNtypes[3] c_myNtypes[4] 
    1504            0      500 3.8228094e-13            0          250          250            0 
    2004 0.0061228275      500 3.8228094e-13            0          250          250            0 
Loop time of 0.00614309 on 4 procs for 500 steps with 500 atoms

100.0% CPU use with 4 MPI tasks x no OpenMP threads
