  Granular Flow Simulation 

       122 atoms 
       5 atom types 
       5 nutrients

   0.000000e-04   1.000000e-04  xlo xhi 
   0.000000e-04   4.000000e-05  ylo yhi 
   0.000000e-04   1.000000e-04  zlo zhi 

 Atoms

     1 1 1.0e-6 150 0.5e-5 0.5e-5 1e-6 1.0e-6  het
     2 1 1.0e-6 150 1.5e-5 0.5e-5 1e-6 1.0e-6  het
     3 1 1.0e-6 150 2.5e-5 0.5e-5 1e-6 1.0e-6  het
     4 1 1.0e-6 150 3.5e-5 0.5e-5 1e-6 1.0e-6  het
     5 1 1.0e-6 150 4.5e-5 0.5e-5 1e-6 1.0e-6  het
     6 1 1.0e-6 150 5.5e-5 0.5e-5 1e-6 1.0e-6  het
     7 1 1.0e-6 150 6.5e-5 0.5e-5 1e-6 1.0e-6  het
     8 1 1.0e-6 150 7.5e-5 0.5e-5 1e-6 1.0e-6  het
     9 1 1.0e-6 150 8.5e-5 0.5e-5 1e-6 1.0e-6  het
     10 1 1.0e-6 150 9.5e-5 0.5e-5 1e-6 1.0e-6  het
     11 1 1.0e-6 150 0.5e-5 1.5e-5 1e-6 1.0e-6  het
     12 1 1.0e-6 150 1.5e-5 1.5e-5 1e-6 1.0e-6  het
     13 1 1.0e-6 150 2.5e-5 1.5e-5 1e-6 1.0e-6  het
     14 1 1.0e-6 150 3.5e-5 1.5e-5 1e-6 1.0e-6  het
     15 1 1.0e-6 150 4.5e-5 1.5e-5 1e-6 1.0e-6  het
     16 1 1.0e-6 150 5.5e-5 1.5e-5 1e-6 1.0e-6  het
     17 1 1.0e-6 150 6.5e-5 1.5e-5 1e-6 1.0e-6  het
     18 1 1.0e-6 150 7.5e-5 1.5e-5 1e-6 1.0e-6  het
     19 1 1.0e-6 150 8.5e-5 1.5e-5 1e-6 1.0e-6  het
     20 1 1.0e-6 150 9.5e-5 1.5e-5 1e-6 1.0e-6  het
     21 1 1.0e-6 150 0.5e-5 2.5e-5 1e-6 1.0e-6  het
     22 1 1.0e-6 150 1.5e-5 2.5e-5 1e-6 1.0e-6  het
     23 1 1.0e-6 150 2.5e-5 2.5e-5 1e-6 1.0e-6  het
     24 1 1.0e-6 150 3.5e-5 2.5e-5 1e-6 1.0e-6  het
     25 1 1.0e-6 150 4.5e-5 2.5e-5 1e-6 1.0e-6  het
     26 1 1.0e-6 150 5.5e-5 2.5e-5 1e-6 1.0e-6  het
     27 1 1.0e-6 150 6.5e-5 2.5e-5 1e-6 1.0e-6  het
     28 1 1.0e-6 150 7.5e-5 2.5e-5 1e-6 1.0e-6  het
     29 1 1.0e-6 150 8.5e-5 2.5e-5 1e-6 1.0e-6  het
     30 1 1.0e-6 150 9.5e-5 2.5e-5 1e-6 1.0e-6  het
     31 1 1.0e-6 150 0.5e-5 3.5e-5 1e-6 1.0e-6  het
     32 1 1.0e-6 150 1.5e-5 3.5e-5 1e-6 1.0e-6  het
     33 1 1.0e-6 150 2.5e-5 3.5e-5 1e-6 1.0e-6  het
     34 1 1.0e-6 150 3.5e-5 3.5e-5 1e-6 1.0e-6  het
     35 1 1.0e-6 150 4.5e-5 3.5e-5 1e-6 1.0e-6  het
     36 1 1.0e-6 150 5.5e-5 3.5e-5 1e-6 1.0e-6  het
     37 1 1.0e-6 150 6.5e-5 3.5e-5 1e-6 1.0e-6  het
     38 1 1.0e-6 150 7.5e-5 3.5e-5 1e-6 1.0e-6  het
     39 1 1.0e-6 150 8.5e-5 3.5e-5 1e-6 1.0e-6  het
     40 1 1.0e-6 150 9.5e-5 3.5e-5 1e-6 1.0e-6  het
     41 2 1.0e-6 150 0.6e-5 0.5e-5 1e-6 1.0e-6  aob
     42 2 1.0e-6 150 1.6e-5 0.5e-5 1e-6 1.0e-6  aob
     43 2 1.0e-6 150 2.6e-5 0.5e-5 1e-6 1.0e-6  aob
     44 2 1.0e-6 150 3.6e-5 0.5e-5 1e-6 1.0e-6  aob
     45 2 1.0e-6 150 4.6e-5 0.5e-5 1e-6 1.0e-6  aob
     46 2 1.0e-6 150 5.6e-5 0.5e-5 1e-6 1.0e-6  aob
     47 2 1.0e-6 150 6.6e-5 0.5e-5 1e-6 1.0e-6  aob
     48 2 1.0e-6 150 7.6e-5 0.5e-5 1e-6 1.0e-6  aob
     49 2 1.0e-6 150 8.6e-5 0.5e-5 1e-6 1.0e-6  aob
     50 2 1.0e-6 150 9.6e-5 0.5e-5 1e-6 1.0e-6  aob
     51 2 1.0e-6 150 0.6e-5 1.5e-5 1e-6 1.0e-6  aob
     52 2 1.0e-6 150 1.6e-5 1.5e-5 1e-6 1.0e-6  aob
     53 2 1.0e-6 150 2.6e-5 1.5e-5 1e-6 1.0e-6  aob
     54 2 1.0e-6 150 3.6e-5 1.5e-5 1e-6 1.0e-6  aob
     55 2 1.0e-6 150 4.6e-5 1.5e-5 1e-6 1.0e-6  aob
     56 2 1.0e-6 150 5.6e-5 1.5e-5 1e-6 1.0e-6  aob
     57 2 1.0e-6 150 6.6e-5 1.5e-5 1e-6 1.0e-6  aob
     58 2 1.0e-6 150 7.6e-5 1.5e-5 1e-6 1.0e-6  aob
     59 2 1.0e-6 150 8.6e-5 1.5e-5 1e-6 1.0e-6  aob
     60 2 1.0e-6 150 9.6e-5 1.5e-5 1e-6 1.0e-6  aob
     61 2 1.0e-6 150 0.6e-5 2.5e-5 1e-6 1.0e-6  aob
     62 2 1.0e-6 150 1.6e-5 2.5e-5 1e-6 1.0e-6  aob
     63 2 1.0e-6 150 2.6e-5 2.5e-5 1e-6 1.0e-6  aob
     64 2 1.0e-6 150 3.6e-5 2.5e-5 1e-6 1.0e-6  aob
     65 2 1.0e-6 150 4.6e-5 2.5e-5 1e-6 1.0e-6  aob
     66 2 1.0e-6 150 5.6e-5 2.5e-5 1e-6 1.0e-6  aob
     67 2 1.0e-6 150 6.6e-5 2.5e-5 1e-6 1.0e-6  aob
     68 2 1.0e-6 150 7.6e-5 2.5e-5 1e-6 1.0e-6  aob
     69 2 1.0e-6 150 8.6e-5 2.5e-5 1e-6 1.0e-6  aob
     70 2 1.0e-6 150 9.6e-5 2.5e-5 1e-6 1.0e-6  aob
     71 2 1.0e-6 150 0.6e-5 3.5e-5 1e-6 1.0e-6  aob
     72 2 1.0e-6 150 1.6e-5 3.5e-5 1e-6 1.0e-6  aob
     73 2 1.0e-6 150 2.6e-5 3.5e-5 1e-6 1.0e-6  aob
     74 2 1.0e-6 150 3.6e-5 3.5e-5 1e-6 1.0e-6  aob
     75 2 1.0e-6 150 4.6e-5 3.5e-5 1e-6 1.0e-6  aob
     76 2 1.0e-6 150 5.6e-5 3.5e-5 1e-6 1.0e-6  aob
     77 2 1.0e-6 150 6.6e-5 3.5e-5 1e-6 1.0e-6  aob
     78 2 1.0e-6 150 7.6e-5 3.5e-5 1e-6 1.0e-6  aob
     79 2 1.0e-6 150 8.6e-5 3.5e-5 1e-6 1.0e-6  aob
     80 2 1.0e-6 150 9.6e-5 3.5e-5 1e-6 1.0e-6  aob
     81 3 1.0e-6 150 0.6e-5 0.6e-5 1e-6 1.0e-6  nob
     82 3 1.0e-6 150 1.6e-5 0.6e-5 1e-6 1.0e-6  nob
     83 3 1.0e-6 150 2.6e-5 0.6e-5 1e-6 1.0e-6  nob
     84 3 1.0e-6 150 3.6e-5 0.6e-5 1e-6 1.0e-6  nob
     85 3 1.0e-6 150 4.6e-5 0.6e-5 1e-6 1.0e-6  nob
     86 3 1.0e-6 150 5.6e-5 0.6e-5 1e-6 1.0e-6  nob
     87 3 1.0e-6 150 6.6e-5 0.6e-5 1e-6 1.0e-6  nob
     88 3 1.0e-6 150 7.6e-5 0.6e-5 1e-6 1.0e-6  nob
     89 3 1.0e-6 150 8.6e-5 0.6e-5 1e-6 1.0e-6  nob
     90 3 1.0e-6 150 9.6e-5 0.6e-5 1e-6 1.0e-6  nob
     91 3 1.0e-6 150 0.6e-5 1.6e-5 1e-6 1.0e-6  nob
     92 3 1.0e-6 150 1.6e-5 1.6e-5 1e-6 1.0e-6  nob
     93 3 1.0e-6 150 2.6e-5 1.6e-5 1e-6 1.0e-6  nob
     94 3 1.0e-6 150 3.6e-5 1.6e-5 1e-6 1.0e-6  nob
     95 3 1.0e-6 150 4.6e-5 1.6e-5 1e-6 1.0e-6  nob
     96 3 1.0e-6 150 5.6e-5 1.6e-5 1e-6 1.0e-6  nob
     97 3 1.0e-6 150 6.6e-5 1.6e-5 1e-6 1.0e-6  nob
     98 3 1.0e-6 150 7.6e-5 1.6e-5 1e-6 1.0e-6  nob
     99 3 1.0e-6 150 8.6e-5 1.6e-5 1e-6 1.0e-6  nob
     100 3 1.0e-6 150 9.6e-5 1.6e-5 1e-6 1.0e-6  nob
     101 3 1.0e-6 150 0.6e-5 2.6e-5 1e-6 1.0e-6  nob
     102 3 1.0e-6 150 1.6e-5 2.6e-5 1e-6 1.0e-6  nob
     103 3 1.0e-6 150 2.6e-5 2.6e-5 1e-6 1.0e-6  nob
     104 3 1.0e-6 150 3.6e-5 2.6e-5 1e-6 1.0e-6  nob
     105 3 1.0e-6 150 4.6e-5 2.6e-5 1e-6 1.0e-6  nob
     106 3 1.0e-6 150 5.6e-5 2.6e-5 1e-6 1.0e-6  nob
     107 3 1.0e-6 150 6.6e-5 2.6e-5 1e-6 1.0e-6  nob
     108 3 1.0e-6 150 7.6e-5 2.6e-5 1e-6 1.0e-6  nob
     109 3 1.0e-6 150 8.6e-5 2.6e-5 1e-6 1.0e-6  nob
     110 3 1.0e-6 150 9.6e-5 2.6e-5 1e-6 1.0e-6  nob
     111 3 1.0e-6 150 0.6e-5 3.6e-5 1e-6 1.0e-6  nob
     112 3 1.0e-6 150 1.6e-5 3.6e-5 1e-6 1.0e-6  nob
     113 3 1.0e-6 150 2.6e-5 3.6e-5 1e-6 1.0e-6  nob
     114 3 1.0e-6 150 3.6e-5 3.6e-5 1e-6 1.0e-6  nob
     115 3 1.0e-6 150 4.6e-5 3.6e-5 1e-6 1.0e-6  nob
     116 3 1.0e-6 150 5.6e-5 3.6e-5 1e-6 1.0e-6  nob
     117 3 1.0e-6 150 6.6e-5 3.6e-5 1e-6 1.0e-6  nob
     118 3 1.0e-6 150 7.6e-5 3.6e-5 1e-6 1.0e-6  nob
     119 3 1.0e-6 150 8.6e-5 3.6e-5 1e-6 1.0e-6  nob
     120 3 1.0e-6 150 9.6e-5 3.6e-5 1e-6 1.0e-6  nob
     121 4 1.0e-8 150 9.8e-5 3.5e-5 1e-6 1.0e-8  eps
     122 5 1.0e-8 150 8.8e-5 3.5e-5 1e-6 1.0e-8  dead

 Nutrients

     1 sub l 8e-3 8e-3 8e-3 8e-3 8e-3 8e-3 8e-3
     2 o2 l 1e-4 1e-4 1e-4 1e-4 1e-4 1e-4 1e-4
     3 no2 l 8e-4 8e-4 8e-4 8e-4 8e-4 8e-4 8e-4
     4 no3 l 8e-4 8e-4 8e-4 8e-4 8e-4 8e-4 8e-4
     5 nh4 l 9e-4 9e-4 9e-4 9e-4 9e-4 9e-4 9e-4

 Diffusion Coeffs
    
     sub 0.5e-9
     o2 2e-9
     no2 1.2e-9
     no3 1.2e-9
     nh4 1.4e-9

 Ks
     
     het 0.004 0.0002 0.0003 0.0003 0
     aob 0 0.0005 0 0 0.001
     nob 0 0.00068 0.0013 0 0
     eps 0 0 0 0 0
     dead 0 0 0 0 0

 Growth Rate

     het 0.00006944444 
     aob 0.0000088
     nob 0.000009375
     eps 0
     dead 0

 Yield Coeffs
    
     het 0.61
     aob 0.33
     nob 0.083
     eps 0.18
     dead 0

 Maintenance
 
     het 0
     aob 0
     nob 0
     eps 0
     dead 0

 Decay Rate

     het 0.00000462962
     aob 0.00000127314
     nob 0.00000127314
     eps 0.00000196759
     dead 0



