LAMMPS (5 Nov 2016)
# NUFEB simulation

atom_style	bio
atom_modify	map array sort 100 5.0e-7
boundary	ff ff ff
newton		off
#processors  2 1 1

comm_modify	vel yes
read_data_bio atom.in
  orthogonal box = (0 0 0) to (0.0001 4e-05 0.0001)
  1 by 1 by 1 MPI processor grid
  reading atoms ...
  122 atoms
  5 nutrients

group HET type 1
40 atoms in group HET
group AOB type 2
40 atoms in group AOB
group NOB type 3
40 atoms in group NOB
group EPS type 4
1 atoms in group EPS
group DEAD type 5
1 atoms in group DEAD

neighbor	5e-7 bin
neigh_modify	delay 0 one 5000

#pair_style none
pair_style  gran/hooke/history 1.e-4 NULL 1.e-5 NULL 0.0 1

pair_coeff  * *
timestep 10

fix 1 all nve/limit 1e-8

fix fv all viscous 1e-5

fix xw all wall/gran hooke/history 2000 NULL 500.0 NULL 1.5 0 xplane  0.0   1.0e-04
fix yw all wall/gran hooke/history 2000 NULL 500.0 NULL 1.5 0 yplane  0.0   4.0e-05
fix zw all wall/gran hooke/history 2000 NULL 500.0 NULL 1.5 0 zplane  0.0   1.0e-04

variable kanc equal 50

fix xwa all walladh v_kanc xplane  0.0   1.0e-04
fix ywa all walladh v_kanc yplane  0.0   4.0e-05
fix zwa all walladh v_kanc zplane  0.0   1.0e-04

##############Ibm Variable Definitions##############

#Defining EPS density and ratio variables
variable EPSdens equal 30
variable EPSratio equal 1.25
variable divMass equal 2e-16

variable ke equal 5e+10

#Defining kinetics variables
variable temp equal 298.15
variable gasTran equal 0.08205746
variable gvol equal 8e-14
variable rth equal 0.0083144
variable pressure equal 1
variable ph equal 7.0
variable etaHET equal 0.6

#Defining diffusion variables
variable diffT equal 1e-4
variable tol equal 1e-6
variable bl equal -1
variable shearRate equal 0.0

#Defining critical diameter of death
variable deadMass equal 5e-17

#Defining compute variables
variable cutoff equal 9.66e-7

##############Ibm functions##############

fix k1 all kinetics 100 30 12 30 v_temp v_rth v_gvol v_gasTran v_ph v_diffT v_bl
fix kgm all kinetics/growth/monod v_EPSdens v_etaHET 1
fix g1 all kinetics/diffusion v_shearRate v_tol pp pp nd kg
fix d1 all divide 100 v_EPSdens v_divMass 31231
fix e1 HET eps_extract 100 v_EPSratio v_EPSdens 12425
fix j1 all epsadh 1 v_ke 1
fix d5 all death 100 v_deadMass

##############Ibm compute##############

compute myNtypes all ntypes
compute myMass all biomass
compute myDia all diameter
compute myDimen all dimension
compute myDiver all diversity
compute myHeight all ave_height 50 50
compute myRough all roughness 50 50
compute mySeg all segregation v_cutoff

##############Simulation outputs##############

dump		id all custom 1000 snapshot.bubblemd id type diameter x y z
dump            d0 all bio 1000 biomass ntypes diameter dimension diversity ave_height roughness segregation
thermo_style    custom step cpu atoms biomass c_myNtypes[*]
thermo		100
thermo_modify	lost ignore

run 40000
Neighbor list info ...
  3 neighbor list requests
  update every 1 steps, delay 0 steps, check yes
  max neighbors/atom: 5000, page size: 100000
  master list distance cutoff = 1.5e-06
  ghost atom cutoff = 1.5e-06
  binsize = 7.5e-07 -> bins = 134 54 134
Memory usage per processor = 13.553 Mbytes
Step CPU Atoms biomass c_myNtypes[1] c_myNtypes[2] c_myNtypes[3] c_myNtypes[4] c_myNtypes[5] 
       0            0      122 9.4247781e-15           40           40           40            1            1 
     100   0.32808304      122 9.4965918e-15           40           40           40            1            1 
     200   0.36637592      122 9.5702548e-15           40           40           40            1            1 
     300   0.40009904      122 9.6458119e-15           40           40           40            1            1 
     400   0.43232203      122 9.723309e-15           40           40           40            1            1 
     500   0.46329403      122 9.8027932e-15           40           40           40            1            1 
     600   0.49270105      122 9.8843125e-15           40           40           40            1            1 
     700   0.52270293      122 9.9679162e-15           40           40           40            1            1 
     800   0.55131912      122 1.0053655e-14           40           40           40            1            1 
     900   0.58028293      122 1.014158e-14           40           40           40            1            1 
    1000   0.60971594      122 1.0231744e-14           40           40           40            1            1 
    1100     0.638762      122 1.0324202e-14           40           40           40            1            1 
    1200   0.66777611      122 1.0419008e-14           40           40           40            1            1 
    1300   0.69784212      122 1.0516221e-14           40           40           40            1            1 
    1400   0.72815204      122 1.0615897e-14           40           40           40            1            1 
    1500   0.75824809      122 1.0718096e-14           40           40           40            1            1 
    1600   0.78825498      122 1.082288e-14           40           40           40            1            1 
    1700   0.81822705      122 1.0930311e-14           40           40           40            1            1 
    1800   0.84939694      122 1.1040452e-14           40           40           40            1            1 
    1900   0.88108611      122 1.115337e-14           40           40           40            1            1 
    2000   0.91265011      122 1.1269131e-14           40           40           40            1            1 
    2100   0.94544291      122 1.1387804e-14           40           40           40            1            1 
    2200   0.97770095      122 1.1509459e-14           40           40           40            1            1 
    2300    1.0104911      122 1.1634169e-14           40           40           40            1            1 
    2400      1.04492      122 1.1762007e-14           40           40           40            1            1 
    2500    1.0791659      122 1.1893049e-14           40           40           40            1            1 
    2600     1.114295      122 1.2027372e-14           40           40           40            1            1 
    2700       1.1522      122 1.2165056e-14           40           40           40            1            1 
    2800    1.1892681      122 1.2306181e-14           40           40           40            1            1 
    2900    1.2295821      122 1.2450831e-14           40           40           40            1            1 
    3000    1.2694781      122 1.259909e-14           40           40           40            1            1 
    3100    1.3084569      122 1.2751046e-14           40           40           40            1            1 
    3200    1.3474469      122 1.2906789e-14           40           40           40            1            1 
    3300    1.3871779      162 1.370083e-14           40           40           40           41            1 
    3400    1.4310479      162 1.3863173e-14           40           40           40           41            1 
    3500    1.4739711      162 1.4029585e-14           40           40           40           41            1 
    3600    1.5174551      162 1.4200164e-14           40           40           40           41            1 
    3700     1.561173      162 1.4375011e-14           40           40           40           41            1 
    3800    1.6058509      162 1.4554229e-14           40           40           40           41            1 
    3900    1.6519761      162 1.4737923e-14           40           40           40           41            1 
    4000     1.699486      162 1.4926201e-14           40           40           40           41            1 
    4100    1.7481651      202 1.5119173e-14           80           40           40           41            1 
    4200    1.8020821      202 1.5316952e-14           80           40           40           41            1 
    4300     1.854897      202 1.5519654e-14           80           40           40           41            1 
    4400    1.9079721      202 1.5727398e-14           80           40           40           41            1 
    4500    1.9625871      202 1.5940304e-14           80           40           40           41            1 
    4600    2.0202889      202 1.6158498e-14           80           40           40           41            1 
    4700     2.079237      202 1.6382106e-14           80           40           40           41            1 
    4800     2.138608      202 1.6611259e-14           80           40           40           41            1 
    4900     2.200665      210 1.6935888e-14           80           40           40           49            1 
    5000    2.2649851      230 1.7414857e-14           80           40           40           69            1 
    5100     2.332957      240 1.7787732e-14           80           40           40           79            1 
    5200     2.401886      260 1.8291238e-14           80           40           40           99            1 
    5300     2.473546      270 1.8681733e-14           80           40           40          109            1 
    5400     2.611166      280 1.9082945e-14           80           40           40          119            1 
    5500    2.7352331      282 1.9379993e-14           80           40           40          121            1 
    5600    2.8018861      282 1.9656597e-14           80           40           40          121            1 
    5700    2.8707559      282 1.9940071e-14           80           40           40          121            1 
    5800    2.9437561      282 2.0230579e-14           80           40           40          121            1 
    5900     3.022121      282 2.0528291e-14           80           40           40          121            1 
    6000     3.104398      282 2.0833377e-14           80           40           40          121            1 
    6100     3.189532      282 2.1146015e-14           80           40           40          121            1 
    6200     3.279177      285 2.1466384e-14           83           40           40          121            1 
    6300    3.4395361      295 2.1794657e-14           93           40           40          121            1 
    6400    3.5855901      297 2.2131025e-14           95           40           40          121            1 
    6500     3.674803      305 2.251807e-14          101           40           40          123            1 
    6600     3.819392      316 2.2938996e-14          107           40           40          128            1 
    6700     3.962611      330 2.3407659e-14          112           40           40          137            1 
    6800     4.108103      344 2.3915732e-14          116           40           40          147            1 
    6900    4.2764931      362 2.4478195e-14          120           40           40          161            1 
    7000    4.4160149      384 2.5068995e-14          124           40           40          179            1 
    7100     4.508317      406 2.5715685e-14          128           40           40          197            1 
    7200     4.619405      425 2.6308264e-14          133           40           40          211            1 
    7300    4.7962539      446 2.6923427e-14          137           40           40          228            1 
    7400    4.9614251      466 2.7501843e-14          143           40           40          242            1 
    7500    5.1851041      473 2.8011765e-14          145           40           40          247            1 
    7600    5.3470449      475 2.845868e-14          147           40           40          247            1 
    7700     5.559787      483 2.8916594e-14          155           40           40          247            1 
    7800    5.7658219      487 2.9385777e-14          159           40           40          247            1 
    7900    5.9607639      488 2.9866492e-14          160           40           40          247            1 
    8000    6.1120529      488 3.0359026e-14          160           40           40          247            1 
    8100     6.354526      488 3.0863636e-14          160           40           40          247            1 
    8200    6.5174241      488 3.1380628e-14          160           40           40          247            1 
    8300     6.703495      493 3.1976332e-14          160           40           40          252            1 
    8400     6.949429      499 3.2596117e-14          160           40           40          258            1 
    8500    7.1572211      519 3.3402242e-14          162           40           40          276            1 
    8600    7.4693329      531 3.409657e-14          165           40           40          285            1 
    8700     7.792434      541 3.4779971e-14          168           40           40          292            1 
    8800    8.0441861      555 3.5526489e-14          171           40           40          303            1 
    8900     8.375051      580 3.6439579e-14          175           40           40          324            1 
    9000    8.7102041      612 3.746422e-14          179           40           40          352            1 
    9100    9.0750389      637 3.8396696e-14          183           40           40          373            1 
    9200    9.3918719      657 3.9246509e-14          189           40           40          387            1 
    9300    9.7288129      683 4.0165628e-14          196           40           40          406            1 
    9400    10.153223      702 4.0972344e-14          205           40           40          416            1 
    9500    10.487604      720 4.1791963e-14          215           40           40          424            1 
    9600    10.861876      725 4.2531511e-14          219           40           40          425            1 
    9700    11.257523      736 4.3292694e-14          228           40           40          427            1 
    9800    11.673833      743 4.4047046e-14          235           40           40          427            1 
    9900    12.109861      753 4.4819691e-14          245           40           40          427            1 
   10000    12.596078      761 4.5642593e-14          251           40           40          429            1 
   10100     13.03201      776 4.6487778e-14          263           40           40          432            1 
   10200    13.490186      790 4.7408576e-14          269           40           40          440            1 
   10300    14.008047      805 4.8372333e-14          275           40           40          449            1 
   10400    14.503945      828 4.9480614e-14          280           40           40          467            1 
   10500    15.003962      859 5.0686081e-14          287           40           40          491            1 
   10600    15.543247      882 5.1807644e-14          293           40           40          508            1 
   10700     16.10538      922 5.3139804e-14          301           40           40          540            1 
   10800     16.70494      966 5.4577091e-14          306           40           40          579            1 
   10900    17.294681      999 5.5894017e-14          312           40           40          606            1 
   11000    17.984588     1034 5.7329303e-14          314           40           40          639            1 
   11100    18.611275     1075 5.874498e-14          322           40           40          672            1 
   11200    19.290244     1097 6.0035217e-14          325           40           40          691            1 
   11300    19.964467     1116 6.1291079e-14          330           40           40          705            1 
   11400    20.731829     1134 6.2565992e-14          335           40           40          718            1 
   11500    21.448987     1141 6.3766043e-14          336           40           40          724            1 
   11600    22.208136     1150 6.4952584e-14          342           40           40          727            1 
   11700    22.974331     1159 6.6194757e-14          346           40           40          732            1 
   11800    23.776096     1173 6.748981e-14          353           40           40          739            1 
   11900    24.623162     1182 6.8738764e-14          361           40           40          740            1 
   12000    25.447341     1196 7.0060057e-14          369           40           40          746            1 
   12100    26.321471     1222 7.1541988e-14          383           40           40          758            1 
   12200    27.198048     1259 7.3128914e-14          400           40           40          778            1 
   12300    28.121355     1302 7.4810907e-14          419           40           40          802            1 
   12400    29.080722     1337 7.6586539e-14          426           40           40          830            1 
   12500     30.00138     1379 7.8414869e-14          436           40           40          862            1 
   12600    30.989202     1451 8.0524309e-14          457           40           40          913            1 
   12700    31.991276     1497 8.2539882e-14          463           40           40          953            1 
   12800    33.005438     1567 8.4795997e-14          475           40           40         1011            1 
   12900    33.997122     1630 8.6917045e-14          496           40           40         1053            1 
   13000     35.04824     1684 8.8995576e-14          511           40           40         1092            1 
   13100    36.103916     1726 9.097343e-14          526           40           40         1119            1 
   13200    37.230276     1762 9.2986359e-14          536           40           40         1145            1 
   13300    38.393901     1799 9.4947961e-14          549           40           40         1169            1 
   13400     39.56104     1834 9.689865e-14          567           40           40         1186            1 
   13500    40.766584     1862 9.8856782e-14          582           40           40         1199            1 
   13600    41.912355     1884 1.0079777e-13          594           40           40         1209            1 
   13700    43.120491     1894 1.0264913e-13          604           40           40         1209            1 
   13800    44.359995     1908 1.0460657e-13          612           40           40         1215            1 
   13900    45.608742     1928 1.0670343e-13          619           40           40         1228            1 
   14000    46.898974     1957 1.0897744e-13          627           40           40         1249            1 
   14100    48.202624     1992 1.112913e-13          639           40           40         1272            1 
   14200    49.558408     2039 1.1384961e-13          651           40           40         1307            1 
   14300    50.944347     2091 1.1655679e-13          658           40           40         1352            1 
   14400    52.368274     2150 1.193088e-13          670           40           40         1399            1 
   14500     53.90088     2230 1.2239331e-13          685           40           40         1464            1 
   14600    55.418008     2304 1.2538758e-13          706           40           40         1517            1 
   14700    57.013408     2374 1.2848575e-13          718           40           40         1575            1 
   14800    58.508691     2455 1.3167864e-13          736           40           40         1638            1 
   14900    60.118313     2540 1.3510309e-13          748           40           40         1711            1 
   15000    61.790919     2605 1.3826382e-13          765           40           40         1759            1 
   15100    63.477036     2670 1.4142815e-13          783           40           40         1806            1 
   15200     65.25379     2731 1.4442337e-13          810           40           40         1840            1 
   15300    67.030566     2773 1.4740548e-13          827           40           40         1865            1 
   15400    68.753832     2821 1.5045693e-13          846           40           40         1894            1 
   15500    70.560391     2874 1.535283e-13          874           40           40         1919            1 
   15600     72.44014     2916 1.5654603e-13          900           40           40         1935            1 
   15700    74.294403     2968 1.5972097e-13          931           40           40         1956            1 
   15800    76.256192     3006 1.6290414e-13          951           40           40         1974            1 
   15900     78.17624     3053 1.6608318e-13          984           40           40         1988            1 
   16000    80.191979     3136 1.6977373e-13         1016           40           40         2039            1 
   16100    82.204816     3207 1.7352729e-13         1040           40           40         2086            1 
   16200    84.235929     3278 1.7741179e-13         1057           40           40         2140            1 
   16300    86.297056     3352 1.8141567e-13         1073           40           40         2198            1 
   16400    88.410005     3460 1.8576683e-13         1103           40           40         2276            1 
   16500    90.643562     3550 1.9002436e-13         1124           40           40         2345            1 
   16600    92.923944     3686 1.9485852e-13         1152           40           40         2453            1 
   16700     95.21612     3790 1.9946904e-13         1177           40           40         2532            1 
   16800    97.537661     3894 2.0422367e-13         1194           40           40         2619            1 
   16900    99.872657     4016 2.0914663e-13         1218           40           40         2717            1 
   17000    102.28667     4122 2.1399834e-13         1238           40           40         2803            1 
   17100    104.68532     4223 2.1870807e-13         1274           40           40         2868            1 
   17200    107.24295     4331 2.2377558e-13         1294           40           40         2956            1 
   17300     109.8823     4382 2.2819829e-13         1311           40           40         2990            1 
   17400    112.59901     4447 2.328003e-13         1336           40           40         3030            1 
   17500    115.39034     4498 2.3731181e-13         1360           40           40         3057            1 
   17600    118.07468     4568 2.4200392e-13         1396           40           40         3091            1 
   17700     120.8586     4627 2.4664745e-13         1430           40           40         3116            1 
   17800    123.70028     4690 2.5160656e-13         1452           40           40         3157            1 
   17900    126.60107     4774 2.5670354e-13         1491           40           40         3202            1 
   18000    129.65836     4867 2.6199146e-13         1530           40           40         3256            1 
   18100    132.64124     4966 2.6757558e-13         1561           40           40         3324            1 
   18200    135.70931     5102 2.7362992e-13         1595           40           40         3426            1 
   18300    138.80779     5232 2.7968912e-13         1635           40           40         3516            1 
   18400    142.01789     5383 2.8604859e-13         1677           40           40         3625            1 
   18500    145.24622     5523 2.9246493e-13         1708           40           40         3734            1 
   18600     148.4518     5692 2.9925889e-13         1753           40           40         3858            1 
   18700    151.73696     5874 3.0633725e-13         1792           40           40         4001            1 
   18800    155.10683     6048 3.1339968e-13         1835           40           40         4132            1 
   18900    158.49209     6217 3.204803e-13         1879           40           40         4257            1 
   19000    162.00222     6369 3.2744562e-13         1922           40           40         4366            1 
   19100    165.49452     6528 3.3448555e-13         1972           40           40         4475            1 
   19200    169.05041     6660 3.4128236e-13         2016           40           40         4563            1 
   19300    172.62064     6804 3.4836419e-13         2062           40           40         4661            1 
   19400    176.41282     6921 3.5534317e-13         2100           40           40         4740            1 
   19500    180.18661     7034 3.6222209e-13         2143           40           40         4810            1 
   19600    183.94184     7131 3.6908567e-13         2184           40           40         4866            1 
   19700    187.73909     7241 3.7609348e-13         2235           40           40         4925            1 
   19800    191.58877     7339 3.831696e-13         2277           40           40         4981            1 
   19900    195.61812     7450 3.9057463e-13         2314           40           40         5055            1 
   20000    199.92372     7569 3.9808384e-13         2361           40           40         5127            1 
   20100    204.01235     7698 4.0600656e-13         2398           40           40         5219            1 
   20200    208.19995     7854 4.1424238e-13         2446           40           40         5327            1 
   20300    212.54397     8032 4.2279782e-13         2496           40           40         5455            1 
   20400    216.83493     8218 4.3153844e-13         2548           40           40         5589            1 
   20500    221.25478     8435 4.4081985e-13         2603           40           40         5751            1 
   20600    225.74191     8670 4.5048366e-13         2655           40           40         5934            1 
   20700    230.25129     8902 4.6010963e-13         2718           40           40         6103            1 
   20800    234.79963     9112 4.6986722e-13         2759           40           40         6272            1 
   20900    239.45278     9348 4.7969606e-13         2820           40           40         6447            1 
   21000    244.36616     9589 4.8968357e-13         2890           40           40         6618            1 
   21100    249.11241     9832 5.0002538e-13         2938           40           40         6813            1 
   21200    253.91351    10031 5.099278e-13         2990           40           40         6960            1 
   21300    258.77323    10221 5.1985712e-13         3040           40           40         7100            1 
   21400    263.66355    10429 5.3006746e-13         3099           40           40         7249            1 
   21500    268.53977    10612 5.399853e-13         3161           40           40         7370            1 
   21600      273.557    10812 5.5028541e-13         3219           40           40         7512            1 
   21700    278.52796    10990 5.6024913e-13         3292           40           40         7617            1 
   21800     283.5781    11124 5.6968843e-13         3371           40           40         7672            1 
   21900     288.7468    11262 5.7933524e-13         3446           40           40         7735            1 
   22000    294.34722    11415 5.894102e-13         3512           40           40         7822            1 
   22100    299.41241    11608 6.0004785e-13         3582           40           40         7945            1 
   22200    304.66536    11823 6.1119178e-13         3652           40           40         8090            1 
   22300    309.88197    12040 6.2243439e-13         3721           40           40         8238            1 
   22400    315.16364    12216 6.3339583e-13         3782           40           40         8353            1 
   22500    320.58499    12452 6.4524252e-13         3846           40           40         8525            1 
   22600    325.96525    12718 6.5759114e-13         3909           40           40         8728            1 
   22700     331.4303    12982 6.6992757e-13         3977           40           40         8924            1 
   22800     336.9355    13278 6.8289556e-13         4051           40           40         9146            1 
   22900    342.47933    13600 6.9628878e-13         4120           40           40         9399            1 
   23000    348.66108    13953 7.1002839e-13         4201           40           40         9671            1 
   23100    354.54719    14309 7.2393729e-13         4284           40           40         9944            1 
   23200    360.28653    14638 7.3755147e-13         4374           40           40        10183            1 
   23300    366.15864    14923  7.50961e-13         4442           40           40        10400            1 
   23400    372.17976    15231 7.6459451e-13         4526           40           40        10624            1 
   23500    378.19686    15516 7.7801373e-13         4608           40           40        10827            1 
   23600    384.24409    15794 7.9168932e-13         4678           40           40        11035            1 
   23700    390.23816    16103 8.0556497e-13         4770           40           40        11252            1 
   23800    396.35383    16352 8.1904216e-13         4844           40           40        11427            1 
   23900    402.57668    16593 8.3248646e-13         4924           40           40        11588            1 
   24000    409.42324    16802 8.4561674e-13         5005           40           40        11716            1 
   24100    415.67691    17005 8.5901085e-13         5073           40           40        11851            1 
   24200    421.89333    17253 8.7270355e-13         5161           40           40        12011            1 
   24300    428.17709    17474 8.8623269e-13         5252           40           40        12141            1 
   24400    434.33578    17751 9.0030353e-13         5361           40           40        12309            1 
   24500    440.69614    17970 9.1421775e-13         5442           40           40        12447            1 
   24600    447.22248    18235 9.2867424e-13         5533           40           40        12621            1 
   24700    453.62515    18557 9.4399948e-13         5626           40           40        12850            1 
   24800    459.93333    18871 9.5945611e-13         5712           40           40        13078            1 
   24900    466.24295    19175 9.750061e-13         5785           40           40        13309            1 
   25000    473.56991    19503 9.9073422e-13         5879           40           40        13543            1 
   25100    480.19302    19847 1.0066427e-12         5976           40           40        13790            1 
   25200    486.94536    20213 1.0230724e-12         6072           40           40        14060            1 
   25300    493.56131    20632 1.0403098e-12         6164           40           40        14387            1 
   25400    500.28856    21038 1.0576167e-12         6254           40           40        14703            1 
   25500    506.97944    21508 1.0754222e-12         6371           40           40        15056            1 
   25600     513.7314    21923 1.0929979e-12         6464           40           40        15378            1 
   25700    520.88502    22391 1.1111828e-12         6567           40           40        15743            1 
   25800     527.7391    22787 1.128477e-12         6672           40           40        16034            1 
   25900    534.55512    23196 1.1462469e-12         6778           40           40        16337            1 
   26000    543.01812    23576 1.1635856e-12         6880           40           40        16615            1 
   26100    549.98122    23974 1.181143e-12         6992           40           40        16901            1 
   26200    556.82119    24324 1.1983942e-12         7089           40           40        17154            1 
   26300    563.63018    24654 1.2154674e-12         7193           40           40        17380            1 
   26400    570.55868    25049 1.2329256e-12         7335           40           40        17633            1 
   26500    577.36568    25402 1.2504612e-12         7435           40           40        17886            1 
   26600     584.1139    25717 1.2674382e-12         7550           40           40        18086            1 
   26700    590.90158    26027 1.2845232e-12         7658           40           40        18288            1 
   26800    597.71128    26330 1.3016131e-12         7760           40           40        18489            1 
   26900    604.53772    26631 1.3187962e-12         7869           40           40        18681            1 
   27000    612.98518    26978 1.3366074e-12         7977           40           40        18920            1 
   27100    619.81015    27295 1.3543567e-12         8074           40           40        19140            1 
   27200    626.63864    27638 1.3723543e-12         8184           40           40        19373            1 
   27300    633.51734    28000 1.3908106e-12         8286           40           40        19633            1 
   27400     640.4491    28392 1.4096563e-12         8394           40           40        19917            1 
   27500    647.53311    28778 1.4283904e-12         8505           40           40        20192            1 
   27600    654.55101    29220 1.4479656e-12         8619           40           40        20520            1 
   27700    661.43603    29670 1.4679139e-12         8728           40           40        20861            1 
   27800     668.3419    30156 1.4882586e-12         8848           40           40        21227            1 
   27900    675.50186    30644 1.5085919e-12         8968           40           40        21595            1 
   28000    685.09981    31158 1.5294654e-12         9079           40           40        21998            1 
   28100    692.32544    31674 1.5502172e-12         9207           40           40        22386            1 
   28200    699.56052    32241 1.5717588e-12         9338           40           40        22822            1 
   28300    706.88845    32751 1.592738e-12         9459           40           40        23211            1 
   28400    714.14515    33303 1.6142244e-12         9590           40           40        23632            1 
   28500    721.53032    33824 1.6355891e-12         9703           40           40        24040            1 
   28600    728.94072    34348 1.6571247e-12         9808           40           40        24459            1 
   28700    736.31398    34849 1.6785309e-12         9914           40           40        24854            1 
   28800      743.233    35325 1.6996131e-12        10019           40           40        25225            1 
   28900    750.08211    35808 1.7207237e-12        10135           40           40        25592            1 
   29000    759.90173    36252 1.7414716e-12        10242           40           40        25929            1 
   29100    766.79461    36683 1.7620866e-12        10356           40           40        26246            1 
   29200    773.77169    37119 1.7825116e-12        10488           40           40        26550            1 
   29300    780.73511    37494 1.802574e-12        10599           40           40        26814            1 
   29400    787.58506    37888 1.8227562e-12        10719           40           40        27088            1 
   29500    794.45351    38341 1.8437232e-12        10848           40           40        27412            1 
   29600    801.60919    38755 1.8640215e-12        10995           40           40        27679            1 
   29700    808.40823    39217 1.8848191e-12        11153           40           40        27983            1 
   29800    815.56894    39633 1.9053842e-12        11289           40           40        28263            1 
   29900    822.70943    40051 1.9260837e-12        11415           40           40        28555            1 
   30000    833.41391    40464 1.9466877e-12        11548           40           40        28835            1 
   30100    840.57458    40860 1.9674118e-12        11668           40           40        29111            1 
   30200    847.79625    41335 1.9889776e-12        11802           40           40        29452            1 
   30300    854.80411    41838 2.0109992e-12        11940           40           40        29817            1 
   30400    861.94944    42293 2.0325102e-12        12068           40           40        30144            1 
   30500    869.10425    42765 2.0546311e-12        12185           40           40        30499            1 
   30600     876.1587    43333 2.0777028e-12        12314           40           40        30938            1 
   30700    883.37217    43843 2.1000267e-12        12444           40           40        31318            1 
   30800    890.48376    44385 2.1229927e-12        12572           40           40        31732            1 
   30900    897.76375    44997 2.1468157e-12        12705           40           40        32211            1 
   31000    910.05893    45600 2.1706367e-12        12839           40           40        32680            1 
   31100     917.6885    46231 2.194561e-12        12974           40           40        33176            1 
   31200    925.08007    46854 2.2186307e-12        13108           40           40        33665            1 
   31300    932.47283    47462 2.2426292e-12        13245           40           40        34136            1 
   31400    939.89766    48071 2.2666253e-12        13380           40           40        34610            1 
   31500    947.41794    48706 2.2909227e-12        13518           40           40        35107            1 
   31600     954.9151    49294 2.3148544e-12        13647           40           40        35566            1 
   31700    962.44841    49916 2.3390765e-12        13781           40           40        36054            1 
   31800    970.09682    50584 2.3636254e-12        13943           40           40        36560            1 
   31900    977.76334    51224 2.3881038e-12        14087           40           40        37056            1 
   32000    991.40007    51816 2.4116738e-12        14247           40           40        37488            1 
   32100    999.02689    52416 2.4355758e-12        14402           40           40        37933            1 
   32200    1006.6109    52931  2.45888e-12        14505           40           40        38345            1 
   32300    1014.2385    53448 2.4821009e-12        14629           40           40        38738            1 
   32400    1023.4158    54028 2.5061285e-12        14758           40           40        39189            1 
   32500    1032.0932    54522 2.528995e-12        14887           40           40        39554            1 
   32600     1040.227    55046 2.5520833e-12        15032           40           40        39933            1 
   32700    1048.0718    55561 2.5747971e-12        15197           40           40        40283            1 
   32800     1055.894    56033 2.5976688e-12        15327           40           40        40625            1 
   32900    1063.7477    56525 2.6204822e-12        15454           40           40        40990            1 
   33000    1078.9404    57052  2.64368e-12        15603           40           40        41368            1 
   33100    1086.7435    57576 2.6665634e-12        15763           40           40        41732            1 
   33200    1094.6194    58072 2.6895291e-12        15898           40           40        42093            1 
   33300    1102.3187    58591 2.7129402e-12        16024           40           40        42486            1 
   33400    1110.1156    59064 2.7359807e-12        16137           40           40        42846            1 
   33500    1117.8864    59616 2.7595935e-12        16287           40           40        43248            1 
   33600    1125.6791    60176 2.7832138e-12        16447           40           40        43648            1 
   33700    1133.5625    60743 2.8070482e-12        16596           40           40        44066            1 
   33800    1141.5198    61324 2.8311308e-12        16743           40           40        44500            1 
   33900    1149.4832    61943 2.8556739e-12        16892           40           40        44970            1 
   34000    1166.1857    62514 2.8799354e-12        17020           40           40        45413            1 
   34100     1174.336    63142 2.9050981e-12        17134           40           40        45927            1 
   34200    1182.7883    63810 2.9302674e-12        17280           40           40        46449            1 
   34300    1191.0358    64431 2.9554277e-12        17397           40           40        46953            1 
   34400    1199.3769    65079 2.9805522e-12        17549           40           40        47449            1 
   34500    1207.7161    65778 3.0061765e-12        17699           40           40        47998            1 
   34600    1216.5237    66483 3.0321986e-12        17832           40           40        48570            1 
   34700    1227.8106    67223 3.0585864e-12        17966           40           40        49176            1 
   34800    1239.6588    67940  3.08447e-12        18118           40           40        49741            1 
   34900    1251.5969    68601 3.1102713e-12        18239           40           40        50281            1 
   35000    1275.1085    69325 3.1362391e-12        18405           40           40        50839            1 
   35100    1287.0642    70041 3.1620695e-12        18565           40           40        51395            1 
   35200    1298.9305    70821 3.1890151e-12        18699           40           40        52041            1 
   35300    1311.0352    71580 3.2155194e-12        18847           40           40        52652            1 
   35400    1322.8096    72278 3.2410421e-12        18993           40           40        53204            1 
   35500    1334.6387    73009 3.2670356e-12        19145           40           40        53783            1 
   35600    1346.4567    73662 3.2924943e-12        19276           40           40        54305            1 
   35700    1358.2004    74342 3.3182855e-12        19410           40           40        54851            1 
   35800    1369.9292    75017 3.343688e-12        19559           40           40        55377            1 
   35900    1381.6287    75628 3.3684415e-12        19699           40           40        55848            1 
   36000     1407.064    76242 3.3934698e-12        19825           40           40        56336            1 
   36100    1418.6016    76847 3.4184283e-12        19942           40           40        56824            1 
   36200    1430.1914    77425 3.4428975e-12        20067           40           40        57277            1 
   36300    1441.7684    78036 3.4671935e-12        20234           40           40        57721            1 
   36400    1453.2519    78648 3.4919564e-12        20369           40           40        58198            1 
   36500    1464.6264    79238 3.5163316e-12        20507           40           40        58650            1 
   36600     1476.018    79846 3.5407224e-12        20664           40           40        59101            1 
   36700    1487.4052    80439 3.5651289e-12        20819           40           40        59539            1 
   36800    1498.7842    81051 3.5895434e-12        20980           40           40        59990            1 
   36900    1510.2803    81660 3.6141289e-12        21119           40           40        60460            1 
   37000    1538.6623    82270 3.6386677e-12        21273           40           40        60916            1 
   37100    1549.6828    82891 3.6634842e-12        21409           40           40        61401            1 
   37200    1560.7537    83524 3.6884637e-12        21557           40           40        61886            1 
   37300    1571.7113    84168 3.7133685e-12        21707           40           40        62380            1 
   37400    1582.6936    84770  3.73792e-12        21846           40           40        62843            1 
   37500    1593.6664    85390 3.7626248e-12        21997           40           40        63312            1 
   37600    1604.8284    86060 3.7876955e-12        22158           40           40        63821            1 
   37700    1615.7576    86710 3.8132143e-12        22269           40           40        64360            1 
   37800    1626.7539    87418  3.83904e-12        22404           40           40        64933            1 
   37900    1637.8309    88103 3.8642723e-12        22566           40           40        65456            1 
   38000    1670.4657    88792 3.8897818e-12        22722           40           40        65989            1 
   38100    1681.5325    89527 3.9158319e-12        22870           40           40        66576            1 
   38200    1692.6333    90296 3.9423651e-12        23015           40           40        67200            1 
   38300    1703.6286    91029 3.9682714e-12        23169           40           40        67779            1 
   38400    1714.6809    91817 3.9951778e-12        23300           40           40        68436            1 
   38500    1725.7589    92567 4.0210958e-12        23469           40           40        69017            1 
   38600    1737.0412    93364 4.0477017e-12        23629           40           40        69654            1 
   38700    1748.1434    94150 4.0745498e-12        23769           40           40        70300            1 
   38800    1759.4189    94958 4.1011277e-12        23941           40           40        70936            1 
   38900    1770.8397    95789 4.1283593e-12        24076           40           40        71632            1 
   39000    1805.5298    96607 4.1555317e-12        24214           40           40        72312            1 
   39100    1816.9056    97517 4.1833552e-12        24376           40           40        73060            1 
   39200    1828.3901    98229 4.2095271e-12        24484           40           40        73664            1 
   39300    1839.8787    98988 4.2360271e-12        24621           40           40        74286            1 
   39400    1851.5952    99750 4.2623375e-12        24767           40           40        74902            1 
   39500    1863.1424   100524 4.2886925e-12        24912           40           40        75531            1 
   39600    1874.9256   101308 4.3151668e-12        25064           40           40        76163            1 
   39700    1886.6021   102056 4.340975e-12        25222           40           40        76753            1 
   39800    1898.4053   102829 4.3674031e-12        25356           40           40        77392            1 
   39900    1910.3517   103496 4.3926847e-12        25480           40           40        77935            1 
   40000    1948.3143   104216 4.4183778e-12        25613           40           40        78522            1 
Loop time of 1948.31 on 1 procs for 40000 steps with 104216 atoms

Performance: 17738410.224 tau/day, 20.531 timesteps/s
100.0% CPU use with 1 MPI tasks x no OpenMP threads

MPI task timing breakdown:
Section |  min time  |  avg time  |  max time  |%varavg| %total
---------------------------------------------------------------
Pair    | 355.15     | 355.15     | 355.15     |   0.0 | 18.23
Neigh   | 81.675     | 81.675     | 81.675     |   0.0 |  4.19
Comm    | 6.526      | 6.526      | 6.526      |   0.0 |  0.33
Output  | 155.04     | 155.04     | 155.04     |   0.0 |  7.96
Modify  | 1337.2     | 1337.2     | 1337.2     |   0.0 | 68.63
Other   |            | 12.72      |            |       |  0.65

Nlocal:    104216 ave 104216 max 104216 min
Histogram: 1 0 0 0 0 0 0 0 0 0
Nghost:    0 ave 0 max 0 min
Histogram: 1 0 0 0 0 0 0 0 0 0
Neighs:    805872 ave 805872 max 805872 min
Histogram: 1 0 0 0 0 0 0 0 0 0

Total # of neighbors = 805872
Ave neighs/atom = 7.73271
Neighbor list builds = 1352
Dangerous builds = 0

Total wall time: 0:32:28
