LAMMPS (5 Nov 2016)
# NUFEB simulation

atom_style	bio
atom_modify	map array sort 100 5.0e-7
boundary	ff ff ff
newton		off
#processors  2 1 1

comm_modify	vel yes
read_data_bio atom.in
  orthogonal box = (0 0 0) to (0.0001 4e-05 0.0001)
  1 by 1 by 1 MPI processor grid
  reading atoms ...
  122 atoms
  5 nutrients

group HET type 1
40 atoms in group HET
group AOB type 2
40 atoms in group AOB
group NOB type 3
40 atoms in group NOB
group EPS type 4
1 atoms in group EPS
group DEAD type 5
1 atoms in group DEAD

neighbor	5e-7 bin
neigh_modify	delay 0 one 5000

#pair_style none
pair_style  gran/hooke/history 1.e-4 NULL 1.e-5 NULL 0.0 1

pair_coeff  * *
timestep 10

fix 1 all nve/limit 1e-8

fix fv all viscous 1e-5

fix xw all wall/gran hooke/history 2000 NULL 500.0 NULL 1.5 0 xplane  0.0   1.0e-04
fix yw all wall/gran hooke/history 2000 NULL 500.0 NULL 1.5 0 yplane  0.0   4.0e-05
fix zw all wall/gran hooke/history 2000 NULL 500.0 NULL 1.5 0 zplane  0.0   1.0e-04

variable kanc equal 50

fix xwa all walladh v_kanc xplane  0.0   1.0e-04
fix ywa all walladh v_kanc yplane  0.0   4.0e-05
fix zwa all walladh v_kanc zplane  0.0   1.0e-04

##############Ibm Variable Definitions##############

#Defining EPS density and ratio variables
variable EPSdens equal 30
variable EPSratio equal 1.25
variable divMass equal 2e-16

variable ke equal 5e+10

#Defining kinetics variables
variable temp equal 298.15
variable gasTran equal 0.08205746
variable gvol equal 8e-14
variable rth equal 0.0083144
variable pressure equal 1
variable ph equal 7.0
variable etaHET equal 0.6

#Defining diffusion variables
variable diffT equal 1e-4
variable tol equal 1e-6
variable bl equal -1
variable Q equal -1
variable rvol equal 1
variable Af equal -1

#Defining critical diameter of death
variable deadMass equal 5e-17

##############Ibm functions##############

fix k1 all kinetics 100 30 12 30 v_temp v_rth v_gvol v_gasTran v_ph v_diffT v_bl
fix kgm all kinetics/growth/monod v_EPSdens v_etaHET
fix g1 all kinetics/diffusion exp v_tol v_Q v_rvol v_Af pp pp nd kg
fix d1 all divide 100 v_EPSdens v_divMass 31231
fix e1 HET eps_extract 100 v_EPSratio v_EPSdens 12425
fix j1 all epsadh 1 v_ke 1
fix d5 all death 100 v_deadMass

##############Ibm compute##############

compute myNtypes all ntypes
#compute myRough all roughness 25 25

##############Simulation outputs##############

dump		id all custom 1000 snapshot.bubblemd id type diameter x y z
#dump            d0 all bio 10 concentration
thermo_style    custom step cpu atoms biomass c_myNtypes[*]
thermo		100
thermo_modify	lost ignore

run 40000
Neighbor list info ...
  3 neighbor list requests
  update every 1 steps, delay 0 steps, check yes
  max neighbors/atom: 5000, page size: 100000
  master list distance cutoff = 1.5e-06
  ghost atom cutoff = 1.5e-06
  binsize = 7.5e-07 -> bins = 134 54 134
Memory usage per processor = 13.553 Mbytes
Step CPU Atoms biomass c_myNtypes[1] c_myNtypes[2] c_myNtypes[3] c_myNtypes[4] c_myNtypes[5] 
       0            0      122 9.4247781e-15           40           40           40            1            1 
     100   0.34632301      122 9.496594e-15           40           40           40            1            1 
     200   0.38615489      122 9.5702572e-15           40           40           40            1            1 
     300   0.42101002      122 9.6458146e-15           40           40           40            1            1 
     400   0.45432186      122 9.7233119e-15           40           40           40            1            1 
     500   0.48679996      122 9.8027964e-15           40           40           40            1            1 
     600   0.51879096      122 9.884316e-15           40           40           40            1            1 
     700   0.55075002      122 9.9679199e-15           40           40           40            1            1 
     800   0.58065295      122 1.0053659e-14           40           40           40            1            1 
     900   0.61111999      122 1.0141584e-14           40           40           40            1            1 
    1000   0.64186001      122 1.0231749e-14           40           40           40            1            1 
    1100   0.67328095      122 1.0324207e-14           40           40           40            1            1 
    1200   0.70374203      122 1.0419014e-14           40           40           40            1            1 
    1300   0.73569489      122 1.0516226e-14           40           40           40            1            1 
    1400   0.76771998      122 1.0615902e-14           40           40           40            1            1 
    1500   0.79999089      122 1.0718102e-14           40           40           40            1            1 
    1600   0.83259702      122 1.0822886e-14           40           40           40            1            1 
    1700   0.86490798      122 1.0930317e-14           40           40           40            1            1 
    1800   0.89928794      122 1.1040459e-14           40           40           40            1            1 
    1900    0.9328959      122 1.1153377e-14           40           40           40            1            1 
    2000   0.96579289      122 1.1269139e-14           40           40           40            1            1 
    2100     1.000627      122 1.1387812e-14           40           40           40            1            1 
    2200    1.0348411      122 1.1509468e-14           40           40           40            1            1 
    2300    1.0696499      122 1.1634178e-14           40           40           40            1            1 
    2400    1.1056108      122 1.1762017e-14           40           40           40            1            1 
    2500    1.1411779      122 1.189306e-14           40           40           40            1            1 
    2600     1.178798      122 1.2027383e-14           40           40           40            1            1 
    2700    1.2161829      122 1.2165067e-14           40           40           40            1            1 
    2800     1.255373      122 1.2306193e-14           40           40           40            1            1 
    2900     1.295768      122 1.2450844e-14           40           40           40            1            1 
    3000      1.33711      122 1.2599104e-14           40           40           40            1            1 
    3100    1.3781269      122 1.2751061e-14           40           40           40            1            1 
    3200     1.418644      122 1.2906804e-14           40           40           40            1            1 
    3300    1.4601369      162 1.3700849e-14           40           40           40           41            1 
    3400     1.505698      162 1.3863192e-14           40           40           40           41            1 
    3500     1.550036      162 1.4029605e-14           40           40           40           41            1 
    3600     1.595664      162 1.4200185e-14           40           40           40           41            1 
    3700    1.6415529      162 1.4375034e-14           40           40           40           41            1 
    3800    1.6889009      162 1.4554252e-14           40           40           40           41            1 
    3900    1.7373059      162 1.4737947e-14           40           40           40           41            1 
    4000     1.787184      162 1.4926226e-14           40           40           40           41            1 
    4100     1.837909      202  1.51192e-14           80           40           40           41            1 
    4200    1.8933101      202 1.531698e-14           80           40           40           41            1 
    4300     1.948132      202 1.5519684e-14           80           40           40           41            1 
    4400    2.0058079      202 1.5727429e-14           80           40           40           41            1 
    4500     2.065223      202 1.5940337e-14           80           40           40           41            1 
    4600     2.126343      202 1.6158533e-14           80           40           40           41            1 
    4700    2.1911108      202 1.6382143e-14           80           40           40           41            1 
    4800     2.257592      202 1.6611297e-14           80           40           40           41            1 
    4900    2.3260589      210 1.6935928e-14           80           40           40           49            1 
    5000    2.3952389      230 1.7414901e-14           80           40           40           69            1 
    5100    2.4694951      240 1.7787722e-14           80           40           40           79            1 
    5200     2.544101      260 1.8291625e-14           80           40           40           99            1 
    5300       2.6224      270 1.8682151e-14           80           40           40          109            1 
    5400     2.702245      280 1.9083006e-14           80           40           40          119            1 
    5500     2.784332      282 1.9380077e-14           80           40           40          121            1 
    5600     2.866915      282  1.96567e-14           80           40           40          121            1 
    5700     2.951602      282 1.9940193e-14           80           40           40          121            1 
    5800     3.039032      282 2.0230718e-14           80           40           40          121            1 
    5900    3.1306579      282 2.0528445e-14           80           40           40          121            1 
    6000     3.225307      282 2.0833546e-14           80           40           40          121            1 
    6100    3.3223379      282 2.1146198e-14           80           40           40          121            1 
    6200    3.4238129      285 2.146658e-14           83           40           40          121            1 
    6300     3.597918      295 2.1794868e-14           93           40           40          121            1 
    6400     3.698873      297 2.2131261e-14           95           40           40          121            1 
    6500    3.8046889      305 2.251833e-14          101           40           40          123            1 
    6600    4.0056911      316 2.2939277e-14          107           40           40          128            1 
    6700     4.168853      330 2.3408263e-14          112           40           40          137            1 
    6800    4.3466079      344 2.3913937e-14          116           40           40          147            1 
    6900    4.4512959      361 2.4471334e-14          120           40           40          160            1 
    7000     4.656909      384 2.5066855e-14          124           40           40          179            1 
    7100     4.855865      407 2.5717215e-14          128           40           40          198            1 
    7200    4.9717669      425 2.6307073e-14          133           40           40          211            1 
    7300    5.2290819      446 2.6916373e-14          137           40           40          228            1 
    7400    5.3595788      466 2.7499263e-14          143           40           40          242            1 
    7500    5.5704689      473 2.8009216e-14          145           40           40          247            1 
    7600     5.759023      475 2.8456157e-14          147           40           40          247            1 
    7700     5.981509      483 2.8914099e-14          155           40           40          247            1 
    7800    6.2300079      487 2.9383302e-14          159           40           40          247            1 
    7900     6.383091      488 2.9864052e-14          160           40           40          247            1 
    8000     6.559233      488 3.0356618e-14          160           40           40          247            1 
    8100    6.8287649      488 3.0861256e-14          160           40           40          247            1 
    8200    7.0779719      488 3.1378259e-14          160           40           40          247            1 
    8300     7.269434      493 3.1974085e-14          160           40           40          252            1 
    8400    7.5227489      498 3.2587291e-14          160           40           40          257            1 
    8500    7.7421269      519 3.339424e-14          162           40           40          276            1 
    8600    8.0534079      532 3.4112657e-14          164           40           40          287            1 
    8700    8.3866808      543 3.4799671e-14          168           40           40          294            1 
    8800     8.713275      556 3.5547257e-14          170           40           40          305            1 
    8900     9.053803      577 3.6423153e-14          174           40           40          322            1 
    9000    9.3898699      612 3.7452698e-14          179           40           40          352            1 
    9100    9.7610331      636 3.8392713e-14          183           40           40          372            1 
    9200    10.137679      657 3.9255515e-14          189           40           40          387            1 
    9300     10.52152      682 4.0158843e-14          196           40           40          405            1 
    9400    10.944261      701 4.0980709e-14          205           40           40          415            1 
    9500    11.307212      719 4.1794554e-14          215           40           40          423            1 
    9600    11.742711      724 4.2528385e-14          219           40           40          424            1 
    9700    12.164867      734 4.3289092e-14          227           40           40          426            1 
    9800    12.638138      742 4.4043531e-14          235           40           40          426            1 
    9900    13.136949      751 4.4816288e-14          244           40           40          426            1 
   10000    13.585397      762 4.5630754e-14          253           40           40          428            1 
   10100     14.12209      776 4.6490353e-14          263           40           40          432            1 
   10200     14.63123      790 4.7402873e-14          270           40           40          439            1 
   10300    15.176139      801 4.8352623e-14          275           40           40          445            1 
   10400    15.753337      828 4.9483787e-14          281           40           40          466            1 
   10500    16.356609      858 5.0699575e-14          287           40           40          490            1 
   10600    16.997935      883 5.1862057e-14          292           40           40          510            1 
   10700    17.682576      917 5.3128827e-14          299           40           40          537            1 
   10800    18.342889      963 5.4568958e-14          306           40           40          576            1 
   10900    19.090238      998 5.5928975e-14          311           40           40          606            1 
   11000    19.838081     1031 5.731814e-14          314           40           40          636            1 
   11100    20.572745     1072 5.8755803e-14          322           40           40          669            1 
   11200    21.347822     1092 6.0041989e-14          325           40           40          686            1 
   11300    22.135512     1112 6.1325543e-14          328           40           40          703            1 
   11400    22.942857     1131 6.2592567e-14          334           40           40          716            1 
   11500    23.815731     1141 6.3813663e-14          336           40           40          724            1 
   11600    24.665028     1150 6.4999912e-14          342           40           40          727            1 
   11700    25.564768     1159 6.6233816e-14          346           40           40          732            1 
   11800    26.486017     1170 6.7481021e-14          354           40           40          735            1 
   11900    27.427147     1179 6.8745774e-14          361           40           40          737            1 
   12000    28.431355     1191 7.0035932e-14          371           40           40          739            1 
   12100    29.414556     1217 7.1538567e-14          382           40           40          754            1 
   12200    30.489124     1253 7.3106321e-14          399           40           40          773            1 
   12300    31.577591     1295 7.4798258e-14          416           40           40          798            1 
   12400    32.672732     1330 7.6565409e-14          425           40           40          824            1 
   12500    33.799779     1381 7.8421647e-14          440           40           40          860            1 
   12600    34.908653     1451 8.058043e-14          456           40           40          914            1 
   12700    36.094088     1495 8.2549319e-14          463           40           40          951            1 
   12800    37.354358     1567 8.4868936e-14          475           40           40         1011            1 
   12900    38.590597     1629 8.6960069e-14          495           40           40         1053            1 
   13000     39.92137     1678 8.8974933e-14          509           40           40         1088            1 
   13100     41.28311     1729 9.1041102e-14          526           40           40         1122            1 
   13200    42.823681     1763 9.3024014e-14          534           40           40         1148            1 
   13300    44.308046     1796 9.4934416e-14          550           40           40         1165            1 
   13400    45.729237     1829 9.6890361e-14          565           40           40         1183            1 
   13500     47.26546     1854 9.8824972e-14          577           40           40         1196            1 
   13600     48.81594     1884 1.0083131e-13          592           40           40         1211            1 
   13700    50.412433     1897 1.027094e-13          603           40           40         1213            1 
   13800    51.997711     1910 1.0465506e-13          612           40           40         1217            1 
   13900    53.717604     1925 1.0670654e-13          619           40           40         1225            1 
   14000     55.42763     1946 1.0890236e-13          624           40           40         1241            1 
   14100    57.096987     1984 1.1125718e-13          637           40           40         1266            1 
   14200    58.809445     2031 1.1381358e-13          648           40           40         1302            1 
   14300    60.632989     2083 1.1650725e-13          657           40           40         1345            1 
   14400     62.47483     2150 1.1934355e-13          670           40           40         1399            1 
   14500    64.368917     2226 1.2235051e-13          688           40           40         1457            1 
   14600     66.20528     2301 1.254146e-13          706           40           40         1514            1 
   14700    68.161974     2373 1.284848e-13          721           40           40         1571            1 
   14800    70.017602     2462 1.3183766e-13          736           40           40         1645            1 
   14900    71.948268     2541 1.3511842e-13          750           40           40         1710            1 
   15000    73.964162     2605 1.3831768e-13          763           40           40         1761            1 
   15100    76.010251     2678 1.4147771e-13          786           40           40         1811            1 
   15200    78.147648     2733 1.4448415e-13          808           40           40         1844            1 
   15300    80.382529     2780 1.4750599e-13          826           40           40         1873            1 
   15400    82.580853     2827 1.5050974e-13          850           40           40         1896            1 
   15500    84.904191     2881 1.5362553e-13          874           40           40         1926            1 
   15600    87.272312     2919 1.5659446e-13          900           40           40         1938            1 
   15700    89.611605     2968 1.5977517e-13          927           40           40         1960            1 
   15800    92.002577     3011 1.6290157e-13          955           40           40         1975            1 
   15900    94.441967     3056 1.6611356e-13          983           40           40         1992            1 
   16000    96.894264     3123 1.696666e-13         1011           40           40         2031            1 
   16100    99.414946     3199 1.7346204e-13         1038           40           40         2080            1 
   16200     102.0437     3279 1.7742256e-13         1055           40           40         2143            1 
   16300    104.69834     3350 1.8134524e-13         1075           40           40         2194            1 
   16400    107.43243     3469 1.8585327e-13         1100           40           40         2288            1 
   16500    110.22364     3557 1.9006893e-13         1125           40           40         2351            1 
   16600    113.09336     3689 1.9491624e-13         1154           40           40         2454            1 
   16700    116.12444     3787 1.994891e-13         1172           40           40         2534            1 
   16800    119.15094     3897 2.042451e-13         1195           40           40         2621            1 
   16900    122.20834     4024 2.0930561e-13         1214           40           40         2729            1 
   17000    125.42793     4128 2.1406627e-13         1240           40           40         2807            1 
   17100    128.67126     4227 2.1876493e-13         1273           40           40         2873            1 
   17200     131.9843     4333 2.2379387e-13         1296           40           40         2956            1 
   17300    135.60528     4388 2.2828185e-13         1314           40           40         2993            1 
   17400    139.31127     4455 2.328985e-13         1338           40           40         3036            1 
   17500    143.09583     4510 2.373975e-13         1367           40           40         3062            1 
   17600    146.92139     4567 2.420312e-13         1395           40           40         3091            1 
   17700    150.95405     4632 2.4675897e-13         1428           40           40         3123            1 
   17800    154.84901     4700 2.5169605e-13         1456           40           40         3163            1 
   17900    158.89641     4776 2.5669739e-13         1492           40           40         3203            1 
   18000    162.94375     4866 2.6199392e-13         1526           40           40         3259            1 
   18100    166.94642     4959 2.6750188e-13         1561           40           40         3317            1 
   18200    171.17006     5079 2.7346309e-13         1591           40           40         3407            1 
   18300    175.39663     5227 2.7963176e-13         1635           40           40         3511            1 
   18400    179.73301     5368 2.8599692e-13         1672           40           40         3615            1 
   18500    184.09752     5501 2.9229639e-13         1705           40           40         3715            1 
   18600    188.55191     5678 2.9920087e-13         1750           40           40         3847            1 
   18700    193.13716     5875 3.0650857e-13         1787           40           40         4007            1 
   18800    197.93898     6041 3.1349446e-13         1827           40           40         4133            1 
   18900    202.84068     6232 3.2064856e-13         1886           40           40         4265            1 
   19000    207.96914     6386 3.2766205e-13         1929           40           40         4376            1 
   19100    213.17032     6531 3.3458405e-13         1970           40           40         4480            1 
   19200    218.48721     6668 3.4147705e-13         2014           40           40         4573            1 
   19300    224.01162     6810 3.4854577e-13         2062           40           40         4667            1 
   19400    229.48603     6921 3.5538085e-13         2103           40           40         4737            1 
   19500    235.06737     7038 3.6236127e-13         2143           40           40         4814            1 
   19600    240.76096     7134 3.6920857e-13         2183           40           40         4870            1 
   19700    246.51837     7237 3.7612844e-13         2234           40           40         4922            1 
   19800    252.49411     7339 3.8324295e-13         2276           40           40         4982            1 
   19900    258.50813     7442 3.9046168e-13         2321           40           40         5040            1 
   20000    264.58917     7552 3.978971e-13         2365           40           40         5106            1 
   20100    270.78089     7689 4.0596594e-13         2399           40           40         5209            1 
   20200    277.14232     7852 4.1427132e-13         2449           40           40         5322            1 
   20300    283.64929     8020 4.2275796e-13         2497           40           40         5442            1 
   20400    290.18478     8213 4.3160644e-13         2553           40           40         5579            1 
   20500    296.96467     8406  4.40708e-13         2601           40           40         5724            1 
   20600     303.7983     8657 4.505034e-13         2659           40           40         5917            1 
   20700    310.81541     8888 4.601359e-13         2719           40           40         6088            1 
   20800    317.97671     9109 4.7007656e-13         2761           40           40         6267            1 
   20900     325.2799     9334 4.7988609e-13         2816           40           40         6437            1 
   21000    332.72795     9587 4.8994121e-13         2891           40           40         6615            1 
   21100    340.66199     9819 5.0009786e-13         2946           40           40         6792            1 
   21200    348.53448    10012 5.1008511e-13         2986           40           40         6945            1 
   21300    356.46976    10217 5.2017333e-13         3039           40           40         7097            1 
   21400    364.86877    10422 5.3032286e-13         3096           40           40         7245            1 
   21500    373.04906    10617 5.4026668e-13         3170           40           40         7366            1 
   21600    381.48771    10808 5.5047003e-13         3225           40           40         7502            1 
   21700    389.89469    10979 5.6032706e-13         3297           40           40         7601            1 
   21800    398.10802    11111 5.6979092e-13         3372           40           40         7658            1 
   21900    406.75184    11242 5.7954779e-13         3435           40           40         7726            1 
   22000    415.43867    11404 5.8954301e-13         3514           40           40         7809            1 
   22100     424.1861    11582 6.0000926e-13         3585           40           40         7916            1 
   22200    433.11222    11788 6.1105598e-13         3649           40           40         8058            1 
   22300    442.24633    12004 6.2231731e-13         3719           40           40         8204            1 
   22400    451.62567    12195 6.3345116e-13         3779           40           40         8335            1 
   22500    460.69152    12423 6.4516355e-13         3843           40           40         8499            1 
   22600     470.0665    12685 6.5748727e-13         3907           40           40         8697            1 
   22700     479.5426    12964 6.6996089e-13         3978           40           40         8905            1 
   22800    489.51707    13261 6.8300768e-13         4048           40           40         9132            1 
   22900    499.61915    13588 6.9643524e-13         4123           40           40         9384            1 
   23000     510.0863    13918 7.1004986e-13         4193           40           40         9644            1 
   23100    520.65897    14274 7.238916e-13         4285           40           40         9908            1 
   23200    531.01463    14614 7.3758927e-13         4376           40           40        10157            1 
   23300    541.72456    14907 7.5110259e-13         4445           40           40        10381            1 
   23400    552.67899    15226 7.6497263e-13         4524           40           40        10621            1 
   23500    563.62649    15508 7.7835569e-13         4606           40           40        10821            1 
   23600    574.78654    15789 7.9194186e-13         4680           40           40        11028            1 
   23700    586.01647    16086 8.0567821e-13         4768           40           40        11237            1 
   23800     597.4096    16367 8.1937939e-13         4859           40           40        11427            1 
   23900    609.05771    16612 8.3295236e-13         4927           40           40        11604            1 
   24000    620.21933    16806 8.4595207e-13         5003           40           40        11722            1 
   24100    631.34844    17004 8.5916012e-13         5077           40           40        11846            1 
   24200    642.48265    17229 8.7280357e-13         5153           40           40        11995            1 
   24300    654.19467    17475 8.8643904e-13         5257           40           40        12137            1 
   24400    665.81649    17730 9.0030044e-13         5364           40           40        12285            1 
   24500    677.34832    17992 9.1442106e-13         5460           40           40        12451            1 
   24600     688.9781    18242 9.2888522e-13         5537           40           40        12624            1 
   24700    701.16482    18548 9.4398344e-13         5628           40           40        12839            1 
   24800     713.6887    18842 9.5920321e-13         5714           40           40        13047            1 
   24900    726.37826    19134 9.7472634e-13         5780           40           40        13273            1 
   25000    738.85685    19485 9.9070992e-13         5874           40           40        13530            1 
   25100     751.5668    19825 1.0065078e-12         5977           40           40        13767            1 
   25200    764.70831    20230 1.0233665e-12         6073           40           40        14076            1 
   25300    777.46662    20646 1.0406513e-12         6159           40           40        14406            1 
   25400    790.31094    21042 1.0578405e-12         6249           40           40        14712            1 
   25500    803.25375    21493 1.0753158e-12         6375           40           40        15037            1 
   25600    816.45606    21927 1.0929552e-12         6469           40           40        15377            1 
   25700    829.59757    22384 1.1110083e-12         6570           40           40        15733            1 
   25800    842.93274    22785 1.1285051e-12         6669           40           40        16035            1 
   25900    856.47304    23224 1.1465937e-12         6772           40           40        16371            1 
   26000    870.59348    23594 1.1640224e-12         6864           40           40        16649            1 
   26100    884.58216    24001 1.1815552e-12         6990           40           40        16930            1 
   26200    898.55069    24339 1.1986175e-12         7091           40           40        17167            1 
   26300    912.45215    24691   1.2159e-12         7194           40           40        17416            1 
   26400    927.07738    25060 1.2331964e-12         7323           40           40        17656            1 
   26500    942.06894    25422 1.2507015e-12         7436           40           40        17905            1 
   26600    956.59222    25765 1.2679253e-12         7549           40           40        18135            1 
   26700    971.69383    26054 1.2847497e-12         7658           40           40        18315            1 
   26800    986.51128    26337 1.301643e-12         7758           40           40        18498            1 
   26900    1001.3228    26639 1.3188369e-12         7873           40           40        18685            1 
   27000    1015.7703    26978 1.3364686e-12         7990           40           40        18907            1 
   27100    1030.0194    27313 1.3544271e-12         8086           40           40        19146            1 
   27200    1044.3236    27633 1.3723318e-12         8187           40           40        19365            1 
   27300    1058.7638    27993 1.3908214e-12         8287           40           40        19625            1 
   27400    1073.3555    28361 1.4094327e-12         8391           40           40        19889            1 
   27500    1087.9335    28773 1.4285053e-12         8508           40           40        20184            1 
   27600    1103.0045    29214 1.4481356e-12         8622           40           40        20511            1 
   27700    1118.1709    29648  1.46808e-12         8711           40           40        20856            1 
   27800    1133.3481    30101 1.4880368e-12         8833           40           40        21187            1 
   27900    1148.8882    30611 1.5086149e-12         8964           40           40        21566            1 
   28000    1164.9077    31144 1.529574e-12         9096           40           40        21967            1 
   28100     1180.689    31640 1.550323e-12         9205           40           40        22354            1 
   28200    1196.3919    32194 1.5715549e-12         9336           40           40        22777            1 
   28300    1212.2486    32750 1.5930638e-12         9465           40           40        23204            1 
   28400    1228.3624    33322 1.6149535e-12         9586           40           40        23655            1 
   28500    1244.4426    33796 1.6356686e-12         9702           40           40        24013            1 
   28600    1260.6806    34317 1.6572722e-12         9805           40           40        24431            1 
   28700    1277.2029    34818 1.6787808e-12         9908           40           40        24829            1 
   28800    1293.9788    35301 1.7000331e-12        10014           40           40        25206            1 
   28900    1310.7883    35787 1.721031e-12        10145           40           40        25561            1 
   29000    1327.6147    36242 1.7417936e-12        10258           40           40        25903            1 
   29100    1344.6568    36693 1.7627535e-12        10369           40           40        26243            1 
   29200    1361.4954    37083 1.7829654e-12        10481           40           40        26521            1 
   29300    1378.2627    37508 1.8032245e-12        10625           40           40        26802            1 
   29400    1395.0706    37914 1.8235782e-12        10736           40           40        27097            1 
   29500    1411.9809    38327 1.8439433e-12        10872           40           40        27374            1 
   29600    1429.2438    38747 1.8643668e-12        11016           40           40        27650            1 
   29700    1446.3091    39179 1.8849094e-12        11162           40           40        27936            1 
   29800    1463.1521    39583 1.9052577e-12        11302           40           40        28200            1 
   29900    1479.9721    39986 1.926022e-12        11416           40           40        28489            1 
   30000    1496.8771    40398 1.9467901e-12        11538           40           40        28779            1 
   30100     1513.669    40789 1.9673349e-12        11666           40           40        29042            1 
   30200    1530.7609    41274 1.9890214e-12        11802           40           40        29391            1 
   30300    1548.1866    41762 2.0108473e-12        11938           40           40        29743            1 
   30400    1565.2665    42213 2.0324505e-12        12061           40           40        30071            1 
   30500    1582.5832    42730 2.0547485e-12        12197           40           40        30452            1 
   30600    1599.8957    43275 2.0776403e-12        12312           40           40        30882            1 
   30700    1617.3879    43788 2.0999637e-12        12445           40           40        31262            1 
   30800    1634.7561    44346 2.1231364e-12        12564           40           40        31701            1 
   30900    1652.4388    44951 2.1467333e-12        12705           40           40        32165            1 
   31000    1670.2307    45573 2.1707339e-12        12840           40           40        32652            1 
   31100    1687.9627    46202 2.1947648e-12        12976           40           40        33145            1 
   31200    1705.8457    46817 2.2186447e-12        13120           40           40        33616            1 
   31300    1723.7139    47466 2.2429313e-12        13262           40           40        34123            1 
   31400    1741.6377    48060 2.2668392e-12        13388           40           40        34591            1 
   31500    1759.6489    48720 2.2913537e-12        13526           40           40        35113            1 
   31600    1777.5712    49307 2.3153853e-12        13645           40           40        35581            1 
   31700    1795.9327    49942 2.339616e-12        13793           40           40        36068            1 
   31800    1814.4637    50603 2.3642392e-12        13932           40           40        36590            1 
   31900    1832.7271    51251 2.388739e-12        14084           40           40        37086            1 
   32000    1851.1189    51832 2.4122869e-12        14231           40           40        37520            1 
   32100    1869.8864    52432 2.4362213e-12        14375           40           40        37976            1 
   32200    1888.4706    52948 2.4594045e-12        14497           40           40        38370            1 
   32300    1906.5562    53537 2.4831778e-12        14642           40           40        38814            1 
   32400    1924.9222    54111 2.5070123e-12        14769           40           40        39261            1 
   32500    1943.0378    54582 2.5295949e-12        14891           40           40        39610            1 
   32600    1961.2494    55115 2.5527578e-12        15037           40           40        39997            1 
   32700    1979.6375    55599 2.5753444e-12        15179           40           40        40339            1 
   32800    1997.8219    56094 2.5983353e-12        15312           40           40        40701            1 
   32900    2016.1885    56587 2.6211207e-12        15453           40           40        41053            1 
   33000    2035.3382    57073 2.6438673e-12        15597           40           40        41395            1 
   33100    2053.8182    57567 2.6665152e-12        15754           40           40        41732            1 
   33200    2072.6998    58039 2.6891798e-12        15888           40           40        42070            1 
   33300    2091.2421    58594 2.713028e-12        16002           40           40        42511            1 
   33400    2109.6267    59096 2.736071e-12        16142           40           40        42873            1 
   33500    2128.0724    59633 2.7595286e-12        16290           40           40        43262            1 
   33600    2146.3515    60191 2.7830306e-12        16457           40           40        43653            1 
   33700    2165.2361    60758 2.8068209e-12        16601           40           40        44076            1 
   33800    2184.1204    61337 2.8309228e-12        16745           40           40        44511            1 
   33900     2203.024    61957 2.8555166e-12        16898           40           40        44978            1 
   34000     2222.323    62514 2.8797871e-12        17015           40           40        45418            1 
   34100    2241.7205    63126 2.9046915e-12        17137           40           40        45908            1 
   34200    2261.2794    63776 2.9299941e-12        17262           40           40        46433            1 
   34300     2281.029    64461 2.9555034e-12        17412           40           40        46968            1 
   34400    2300.4191    65093 2.9805811e-12        17550           40           40        47462            1 
   34500    2319.8557    65808 3.0066614e-12        17686           40           40        48041            1 
   34600    2339.1177    66514 3.0326293e-12        17819           40           40        48614            1 
   34700    2358.1326    67282 3.0591344e-12        17977           40           40        49224            1 
   34800    2377.2638    67930 3.0845414e-12        18100           40           40        49749            1 
   34900    2396.3918    68635 3.1106383e-12        18236           40           40        50318            1 
   35000    2415.9173    69381 3.1368062e-12        18404           40           40        50896            1 
   35100    2436.0938    70124 3.1631913e-12        18551           40           40        51492            1 
   35200    2456.2111    70945 3.1902277e-12        18712           40           40        52152            1 
   35300    2475.6243    71662 3.216373e-12        18854           40           40        52727            1 
   35400    2494.9451    72386 3.2422769e-12        19012           40           40        53293            1 
   35500    2514.3331    73075 3.2681935e-12        19145           40           40        53849            1 
   35600    2533.7379    73740 3.2934214e-12        19310           40           40        54349            1 
   35700    2553.1665    74435 3.319266e-12        19452           40           40        54902            1 
   35800    2572.7776    75095 3.344713e-12        19580           40           40        55434            1 
   35900    2592.0138    75718 3.3694127e-12        19728           40           40        55909            1 
   36000    2611.4288    76324 3.3943647e-12        19843           40           40        56400            1 
   36100    2630.8404    76941 3.4193445e-12        19973           40           40        56887            1 
   36200    2650.2813    77551 3.4441689e-12        20104           40           40        57366            1 
   36300     2669.865    78121 3.4682505e-12        20253           40           40        57787            1 
   36400    2689.3272    78727  3.49268e-12        20408           40           40        58238            1 
   36500    2709.1058    79285 3.5168169e-12        20538           40           40        58666            1 
   36600    2728.7319    79889 3.5412059e-12        20696           40           40        59112            1 
   36700    2748.3323    80443 3.5652316e-12        20826           40           40        59536            1 
   36800    2768.0244    81067  3.59011e-12        20967           40           40        60019            1 
   36900     2788.055    81659 3.6143428e-12        21122           40           40        60456            1 
   37000    2807.8059    82261 3.6387052e-12        21272           40           40        60908            1 
   37100    2827.7818    82846 3.6629835e-12        21422           40           40        61343            1 
   37200    2847.6516    83475 3.6878685e-12        21565           40           40        61829            1 
   37300    2867.6924    84143 3.7129138e-12        21723           40           40        62339            1 
   37400    2887.7851    84736 3.7373546e-12        21863           40           40        62792            1 
   37500    2908.0854    85361 3.7621685e-12        22000           40           40        63280            1 
   37600    2928.1967    85996 3.7870742e-12        22141           40           40        63774            1 
   37700    2948.3836    86682 3.8124817e-12        22300           40           40        64301            1 
   37800    2968.5921    87373 3.8382633e-12        22428           40           40        64864            1 
   37900    2988.9796    88025 3.8633263e-12        22574           40           40        65370            1 
   38000    3009.6454    88725 3.8888934e-12        22728           40           40        65916            1 
   38100    3030.2143    89499 3.9152971e-12        22883           40           40        66535            1 
   38200    3050.4795    90277 3.9418897e-12        23038           40           40        67158            1 
   38300    3070.9264    91042 3.9681698e-12        23191           40           40        67770            1 
   38400    3091.7537    91823 3.9947539e-12        23344           40           40        68398            1 
   38500    3112.4703    92637 4.0218478e-12        23487           40           40        69069            1 
   38600    3133.1986    93453 4.0487623e-12        23636           40           40        69736            1 
   38700     3154.082    94237 4.0753489e-12        23783           40           40        70373            1 
   38800     3174.969    95056 4.1024851e-12        23918           40           40        71057            1 
   38900    3195.4957    95861 4.1294912e-12        24056           40           40        71724            1 
   39000    3216.4244    96678 4.1565624e-12        24196           40           40        72401            1 
   39100    3237.5193    97549 4.1841817e-12        24340           40           40        73128            1 
   39200    3258.7096    98318 4.2107892e-12        24478           40           40        73759            1 
   39300     3279.884    99086 4.2372196e-12        24620           40           40        74385            1 
   39400    3301.1027    99843 4.2636242e-12        24755           40           40        75007            1 
   39500    3322.3007   100656 4.2904653e-12        24909           40           40        75666            1 
   39600    3343.8081   101438 4.3167077e-12        25054           40           40        76303            1 
   39700    3365.6461   102171 4.3425832e-12        25197           40           40        76893            1 
   39800    3387.2683   102904 4.3685228e-12        25335           40           40        77488            1 
   39900    3408.9623   103629 4.3941775e-12        25488           40           40        78060            1 
   40000    3430.9555   104384 4.4199101e-12        25644           40           40        78659            1 
Loop time of 3430.96 on 1 procs for 40000 steps with 104384 atoms

Performance: 10072995.492 tau/day, 11.659 timesteps/s
100.0% CPU use with 1 MPI tasks x no OpenMP threads

MPI task timing breakdown:
Section |  min time  |  avg time  |  max time  |%varavg| %total
---------------------------------------------------------------
Pair    | 234.72     | 234.72     | 234.72     |   0.0 |  6.84
Neigh   | 74.164     | 74.164     | 74.164     |   0.0 |  2.16
Comm    | 4.4283     | 4.4283     | 4.4283     |   0.0 |  0.13
Output  | 1.2748     | 1.2748     | 1.2748     |   0.0 |  0.04
Modify  | 3109.5     | 3109.5     | 3109.5     |   0.0 | 90.63
Other   |            | 6.89       |            |       |  0.20

Nlocal:    104384 ave 104384 max 104384 min
Histogram: 1 0 0 0 0 0 0 0 0 0
Nghost:    0 ave 0 max 0 min
Histogram: 1 0 0 0 0 0 0 0 0 0
Neighs:    807350 ave 807350 max 807350 min
Histogram: 1 0 0 0 0 0 0 0 0 0

Total # of neighbors = 807350
Ave neighs/atom = 7.73442
Neighbor list builds = 1358
Dangerous builds = 0

Total wall time: 0:57:10
