LAMMPS (5 Nov 2016)
# NUFEB simulation

atom_style	bio
atom_modify	map array sort 100 5.0e-7
boundary	ff ff ff
newton		off
processors  4 1 1

comm_modify	vel yes
read_data_bio atom.in
  orthogonal box = (0 0 0) to (0.0001 4e-05 0.0001)
  4 by 1 by 1 MPI processor grid
  reading atoms ...
  122 atoms
  5 nutrients

group HET type 1
40 atoms in group HET
group AOB type 2
40 atoms in group AOB
group NOB type 3
40 atoms in group NOB
group EPS type 4
1 atoms in group EPS
group DEAD type 5
1 atoms in group DEAD

neighbor	5e-7 bin
neigh_modify	delay 0 one 5000

##############Define DEM Variables&Commands##############

pair_style  gran/hooke/history 1.e-4 NULL 1.e-5 NULL 0.0 1
pair_coeff  * *

timestep 10

fix 1 all nve/limit 1e-8
fix fv all viscous 1e-5

fix xw all wall/gran hooke/history 2000 NULL 500.0 NULL 1.5 0 xplane  0.0   1.0e-04
fix yw all wall/gran hooke/history 2000 NULL 500.0 NULL 1.5 0 yplane  0.0   4.0e-05
fix zw all wall/gran hooke/history 2000 NULL 500.0 NULL 1.5 0 zplane  0.0   1.0e-04

variable kanc equal 50

fix xwa all walladh v_kanc xplane  0.0   1.0e-04
fix ywa all walladh v_kanc yplane  0.0   4.0e-05
fix zwa all walladh v_kanc zplane  0.0   1.0e-04

variable ke equal 5e+10
fix j1 all epsadh 1 v_ke 1

##############Define IBm Variables##############

#variables used in fix eps_extract
variable EPSdens equal 30
variable EPSratio equal 1.25

#variables used in fix division
variable divDia equal 1.36e-6

#variables used in fix kinetics
variable diffT equal 1e-4
variable tol equal 1e-6
variable etaHET equal 0.6
variable layer equal -1

#variables used in fix death
variable deadDia equal 8.6e-7

##############Define IBm Commands##############

fix k1 all kinetics 100 30 12 30 v_diffT v_layer niter 10000
fix kgm all kinetics/growth/monod v_EPSdens v_etaHET
fix g1 all kinetics/diffusion v_tol pp pp nd kg
fix d1 all divide 100 v_EPSdens v_divDia 978595
fix e1 HET eps_extract 100 v_EPSratio v_EPSdens 6274
fix d5 all death 100 v_deadDia

##############Define IBm Computes##############

#variable cutoff equal 9.66e-7

compute myNtypes all ntypes
#compute myMass all biomass
#compute myDia all diameter
#compute myDimen all dimension
#compute myDiver all diversity
#compute myHeight all ave_height 50 50
#compute myRough all roughness 50 50
#compute mySeg all segregation v_cutoff

##############Simulation outputs##############

dump		id all custom 1000 snapshot.bubblemd id type diameter x y z
#dump            d0 all bio 1000 biomass ntypes diameter dimension diversity ave_height roughness segregation
thermo_style    custom step cpu atoms biomass c_myNtypes[*]
thermo		100
thermo_modify	lost ignore

run 40000
Neighbor list info ...
  3 neighbor list requests
  update every 1 steps, delay 0 steps, check yes
  max neighbors/atom: 5000, page size: 100000
  master list distance cutoff = 1.5e-06
  ghost atom cutoff = 1.5e-06
  binsize = 7.5e-07 -> bins = 134 54 134
Memory usage per processor = 4.90707 Mbytes
Step CPU Atoms biomass c_myNtypes[1] c_myNtypes[2] c_myNtypes[3] c_myNtypes[4] c_myNtypes[5] 
       0            0      122 9.4247781e-15            8            8            8            0            0 
     100   0.15868688      122 9.4965918e-15            8            8            8            0            0 
     200   0.17376995      122 9.5702547e-15            8            8            8            0            0 
     300   0.18691087      122 9.6458118e-15            8            8            8            0            0 
     400   0.20142484      122 9.7233089e-15            8            8            8            0            0 
     500   0.21287584      122 9.8027931e-15            8            8            8            0            0 
     600   0.22373295      122 9.8843124e-15            8            8            8            0            0 
     700   0.23551297      122 9.9679161e-15            8            8            8            0            0 
     800   0.24657702      122 1.0053655e-14            8            8            8            0            0 
     900   0.25732589      122 1.014158e-14            8            8            8            0            0 
    1000   0.26890302      122 1.0231744e-14            8            8            8            0            0 
    1100   0.28030992      122 1.0324201e-14            8            8            8            0            0 
    1200   0.29134583      122 1.0419008e-14            8            8            8            0            0 
    1300    0.3041029      122 1.051622e-14            8            8            8            0            0 
    1400    0.3159709      122 1.0615896e-14            8            8            8            0            0 
    1500   0.32758093      122 1.0718096e-14            8            8            8            0            0 
    1600   0.33943391      122 1.0822879e-14            8            8            8            0            0 
    1700   0.35076785      122 1.093031e-14            8            8            8            0            0 
    1800   0.36340785      122 1.1040451e-14            8            8            8            0            0 
    1900   0.37477303      122 1.1153369e-14            8            8            8            0            0 
    2000   0.38689685      122 1.126913e-14            8            8            8            0            0 
    2100   0.39953303      122 1.1387803e-14            8            8            8            0            0 
    2200   0.41182399      122 1.1509458e-14            8            8            8            0            0 
    2300   0.42568302      122 1.1634168e-14            8            8            8            0            0 
    2400   0.43758607      122 1.1762006e-14            8            8            8            0            0 
    2500   0.45091891      122 1.1893048e-14            8            8            8            0            0 
    2600    0.4641099      122 1.2027371e-14            8            8            8            0            0 
    2700    0.4773829      122 1.2165054e-14            8            8            8            0            0 
    2800   0.49128485      122 1.2306179e-14            8            8            8            0            0 
    2900   0.50502086      122 1.2450829e-14            8            8            8            0            0 
    3000     0.519876      122 1.2599088e-14            8            8            8            0            0 
    3100   0.53560495      122 1.2751044e-14            8            8            8            0            0 
    3200   0.55050397      122 1.2906787e-14            8            8            8            0            0 
    3300   0.56564093      162 1.3728186e-14            8            8            8            8            0 
    3400   0.58106685      162 1.3890475e-14            8            8            8            8            0 
    3500   0.59703207      162 1.4056833e-14            8            8            8            8            0 
    3600   0.61303687      162 1.4227358e-14            8            8            8            8            0 
    3700   0.62943292      162 1.4402151e-14            8            8            8            8            0 
    3800   0.64749694      162 1.4581316e-14            8            8            8            8            0 
    3900   0.66453385      162 1.4764956e-14            8            8            8            8            0 
    4000   0.68289995      202 1.495318e-14           16            8            8            8            0 
    4100   0.70178485      202 1.5146099e-14           16            8            8            8            0 
    4200   0.72164989      202 1.5343825e-14           16            8            8            8            0 
    4300   0.73927999      202 1.5546474e-14           16            8            8            8            0 
    4400   0.76807594      202 1.5754165e-14           16            8            8            8            0 
    4500   0.78943706      202 1.5967018e-14           16            8            8            8            0 
    4600   0.81212306      202 1.6185159e-14           16            8            8            8            0 
    4700   0.83358002      202 1.6408715e-14           16            8            8            8            0 
    4800   0.85511684      202 1.6637815e-14           16            8            8            8            0 
    4900   0.87954783      202 1.6872593e-14           16            8            8            8            0 
    5000   0.90252995      218 1.730714e-14           16            8            8           10            0 
    5100   0.92572999      222 1.7605406e-14           16            8            8           10            0 
    5200   0.95074892      246 1.8159124e-14           16            8            8           16            0 
    5300   0.97687006      266 1.8686572e-14           16            8            8           20            0 
    5400    1.0031979      274 1.9058027e-14           16            8            8           22            0 
    5500    1.0298018      282 1.9428034e-14           16            8            8           24            0 
    5600    1.0577509      282 1.970456e-14           16            8            8           24            0 
    5700    1.0872059      282 1.9987954e-14           16            8            8           24            0 
    5800     1.116225      282 2.0278382e-14           16            8            8           24            0 
    5900     1.146543      282 2.0576011e-14           16            8            8           24            0 
    6000    1.1769109      282 2.0881014e-14           16            8            8           24            0 
    6100     1.210397      282 2.1193567e-14           16            8            8           24            0 
    6200    1.2428288      286 2.1513852e-14           17            8            8           24            0 
    6300     1.283844      286 2.1842052e-14           17            8            8           24            0 
    6400    1.3216269      292 2.2178357e-14           18            8            8           24            0 
    6500    1.3787689      296 2.252296e-14           19            8            8           24            0 
    6600    1.4634719      312 2.295315e-14           21            8            8           24            0 
    6700    1.5225639      324 2.337824e-14           23            8            8           25            0 
    6800    1.5583289      342 2.3853079e-14           24            8            8           29            0 
    6900    1.6147919      354 2.4402807e-14           24            8            8           31            0 
    7000      1.65488      376 2.4966683e-14           25            8            8           33            0 
    7100     1.717423      396 2.554846e-14           27            8            8           35            0 
    7200    1.7733231      426 2.6198371e-14           29            8            8           40            0 
    7300    1.8315148      456 2.6919082e-14           30            8            8           47            0 
    7400    1.8897569      476 2.7534022e-14           31            8            8           49            0 
    7500     1.956116      490 2.8117722e-14           31            8            8           51            0 
    7600    2.0197299      490 2.8564439e-14           31            8            8           52            0 
    7700     2.064765      494 2.9022177e-14           32            8            8           52            0 
    7800     2.131918      494 2.9491174e-14           32            8            8           52            0 
    7900      2.20173      494  2.99717e-14           32            8            8           52            0 
    8000     2.293124      494 3.0464011e-14           32            8            8           52            0 
    8100    2.3619568      494 3.0968406e-14           32            8            8           52            0 
    8200     2.440937      494 3.1485163e-14           32            8            8           52            0 
    8300     2.502979      496 3.2046006e-14           32            8            8           52            0 
    8400     2.576442      504 3.2662511e-14           32            8            8           54            0 
    8500     2.666225      508 3.3273393e-14           32            8            8           54            0 
    8600    2.7440031      512 3.3886587e-14           32            8            8           55            0 
    8700    2.8272579      530 3.4698257e-14           32            8            8           59            0 
    8800     2.921973      540 3.5330354e-14           34            8            8           60            0 
    8900      3.02859      564 3.6165191e-14           35            8            8           62            0 
    9000     3.147387      594 3.7134698e-14           37            8            8           68            0 
    9100     3.252888      634 3.8314279e-14           37            8            8           72            0 
    9200     3.365766      648 3.9183285e-14           37            8            8           74            0 
    9300     3.481791      682 4.0177447e-14           39            8            8           80            0 
    9400    3.6005619      718 4.1086424e-14           44            8            8           85            0 
    9500    3.7061338      740 4.196763e-14           46            8            8           89            0 
    9600    3.8317521      750 4.272905e-14           48            8            8           91            0 
    9700     3.957463      764 4.3465194e-14           50            8            8           91            0 
    9800    4.1037989      766 4.4219214e-14           50            8            8           91            0 
    9900     4.247021      772 4.4991532e-14           51            8            8           91            0 
   10000     4.385715      782 4.5817397e-14           54            8            8           91            0 
   10100    4.5302899      790 4.6678701e-14           54            8            8           91            0 
   10200    4.6795468      798 4.7539353e-14           55            8            8           92            0 
   10300    4.8326929      812 4.8470428e-14           55            8            8           92            0 
   10400    5.0132499      828 4.9416696e-14           56            8            8           94            0 
   10500     5.187439      844 5.0393505e-14           56            8            8           94            0 
   10600      5.36233      894 5.1858901e-14           58            8            8          104            0 
   10700     5.553961      922 5.304737e-14           60            8            8          111            0 
   10800    5.7301118      949 5.4228654e-14           62            8            8          114            0 
   10900    5.9275999      992 5.5682544e-14           63            8            8          117            0 
   11000    6.1210749     1013 5.6924502e-14           64            8            8          126            0 
   11100     6.325068     1052 5.8399224e-14           66            8            8          135            0 
   11200     6.568979     1110 6.0168608e-14           67            8            8          143            0 
   11300      6.78861     1132 6.1536563e-14           68            8            8          146            0 
   11400    7.0133979     1141 6.2786329e-14           68            8            8          148            0 
   11500    7.2379448     1169 6.4123363e-14           70            8            8          150            0 
   11600     7.484468     1186 6.5337054e-14           72            8            8          152            0 
   11700     7.724411     1200 6.6566479e-14           74            8            8          153            0 
   11800     7.978291     1204 6.7805181e-14           75            8            8          153            0 
   11900    8.2447538     1214 6.9092536e-14           76            8            8          155            0 
   12000    8.5092459     1230 7.040586e-14           77            8            8          155            0 
   12100    8.7851989     1247 7.1762322e-14           78            8            8          156            0 
   12200     9.068279     1267 7.3213475e-14           79            8            8          158            0 
   12300    9.3514719     1296 7.4767086e-14           84            8            8          161            0 
   12400    9.6475949     1332 7.6430188e-14           90            8            8          167            0 
   12500     9.952029     1369 7.8211053e-14           94            8            8          173            0 
   12600    10.256064     1415 8.0016469e-14           96            8            8          178            0 
   12700    10.581314     1484 8.2179659e-14           99            8            8          190            0 
   12800    10.893734     1521 8.404233e-14          102            8            8          199            0 
   12900    11.248872     1589 8.6257057e-14          106            8            8          210            0 
   13000    11.586755     1644 8.8484265e-14          108            8            8          224            0 
   13100    11.931198     1717 9.0715786e-14          112            8            8          237            0 
   13200     12.28144     1769 9.2823546e-14          113            8            8          245            0 
   13300    12.634478     1829 9.5053246e-14          115            8            8          254            0 
   13400    13.014258     1862 9.7117013e-14          117            8            8          255            0 
   13500    13.389649     1886 9.9088721e-14          120            8            8          259            0 
   13600    13.768254     1908 1.0107333e-13          122            8            8          259            0 
   13700    14.142852     1927 1.030182e-13          123            8            8          263            0 
   13800    14.531571     1950 1.050641e-13          123            8            8          267            0 
   13900    14.938168     1969 1.0704094e-13          125            8            8          267            0 
   14000    15.352873     2007 1.093175e-13          128            8            8          270            0 
   14100    15.764765     2047 1.1163105e-13          129            8            8          275            0 
   14200    16.193886     2081 1.1401891e-13          131            8            8          281            0 
   14300     16.63234     2130 1.1659058e-13          136            8            8          288            0 
   14400    17.083462     2181 1.1929762e-13          137            8            8          299            0 
   14500    17.528963     2229 1.2199339e-13          141            8            8          308            0 
   14600    17.994877     2309 1.2501769e-13          146            8            8          321            0 
   14700    18.463327     2374 1.2791344e-13          149            8            8          330            0 
   14800    18.936755     2436 1.3099757e-13          151            8            8          338            0 
   14900    19.419246     2507 1.3420107e-13          154            8            8          354            0 
   15000    19.910717     2616 1.3768877e-13          163            8            8          370            0 
   15100    20.425133     2687 1.4100426e-13          166            8            8          378            0 
   15200    20.944888     2777 1.4449743e-13          170            8            8          393            0 
   15300    21.473671     2849 1.478039e-13          175            8            8          407            0 
   15400    22.013456     2909 1.5083331e-13          187            8            8          413            0 
   15500    22.554193     2969 1.5403584e-13          189            8            8          422            0 
   15600    23.115432     3008 1.5706572e-13          193            8            8          424            0 
   15700    23.688622     3050 1.6008168e-13          202            8            8          425            0 
   15800    24.273143     3088 1.6316236e-13          212            8            8          429            0 
   15900    24.857649     3129 1.6642962e-13          216            8            8          434            0 
   16000    25.476968     3187 1.6999821e-13          221            8            8          443            0 
   16100    26.085106     3259 1.737631e-13          227            8            8          451            0 
   16200    26.711562     3340 1.7765252e-13          231            8            8          468            0 
   16300    27.353209     3398 1.8129934e-13          234            8            8          472            0 
   16400    28.002025     3481 1.8531822e-13          239            8            8          485            0 
   16500    28.656677     3557 1.8948002e-13          243            8            8          497            0 
   16600    29.345957     3663 1.9402176e-13          249            8            8          521            0 
   16700    30.031532     3794 1.989436e-13          253            8            8          544            0 
   16800      30.7364     3923 2.0375618e-13          255            8            8          569            0 
   16900    31.464033     4024 2.0844979e-13          261            8            8          583            0 
   17000    32.197913     4141 2.1338942e-13          267            8            8          599            0 
   17100    32.970993     4255 2.1844541e-13          273            8            8          617            0 
   17200    33.709847     4365 2.2346241e-13          278            8            8          641            0 
   17300    34.467544     4455 2.2828286e-13          286            8            8          661            0 
   17400    35.260564     4551 2.3325999e-13          291            8            8          672            0 
   17500    36.052416     4623 2.3806862e-13          297            8            8          686            0 
   17600    36.859293     4683 2.4276453e-13          300            8            8          692            0 
   17700      37.6667     4767 2.4757679e-13          306            8            8          701            0 
   17800    38.507748     4836 2.5235408e-13          314            8            8          707            0 
   17900    39.731283     4898 2.573724e-13          323            8            8          711            0 
   18000    40.588619     4990 2.6247095e-13          336            8            8          721            0 
   18100    41.531003     5071 2.6768651e-13          342            8            8          732            0 
   18200    42.683532     5171 2.7329007e-13          348            8            8          742            0 
   18300    43.594349     5326 2.7958776e-13          358            8            8          771            0 
   18400    44.519863     5446 2.8555703e-13          370            8            8          788            0 
   18500    45.454646     5594 2.9203445e-13          378            8            8          807            0 
   18600    46.421535     5736 2.9841247e-13          391            8            8          829            0 
   18700    47.404167     5876 3.049354e-13          396            8            8          857            0 
   18800     48.43637     6053 3.1221483e-13          398            8            8          887            0 
   18900    49.490772     6233 3.1964571e-13          406            8            8          917            0 
   19000    50.507694     6425 3.2717718e-13          414            8            8          957            0 
   19100    51.537039     6571 3.3416224e-13          428            8            8          976            0 
   19200    52.576055     6741 3.4133329e-13          439            8            8         1007            0 
   19300    53.642591     6892 3.4844738e-13          454            8            8         1028            0 
   19400    54.748006     7021 3.5542038e-13          460            8            8         1053            0 
   19500    55.867176     7156 3.6238924e-13          477            8            8         1071            0 
   19600    56.974745     7279 3.6957149e-13          483            8            8         1095            0 
   19700    58.095684     7401 3.7674866e-13          495            8            8         1106            0 
   19800    59.244317     7531 3.8410679e-13          504            8            8         1123            0 
   19900     60.39997     7631 3.9139561e-13          513            8            8         1136            0 
   20000    61.571948     7728 3.9863055e-13          527            8            8         1149            0 
   20100    62.754429     7856 4.0650233e-13          535            8            8         1175            0 
   20200    63.954437     7996 4.1457806e-13          545            8            8         1192            0 
   20300    65.182859     8165 4.2294438e-13          558            8            8         1219            0 
   20400    66.409454     8313 4.3136318e-13          565            8            8         1247            0 
   20500    67.642313     8513 4.4038575e-13          575            8            8         1293            0 
   20600    68.892553     8702 4.4944665e-13          579            8            8         1324            0 
   20700    70.166727     8925 4.5901324e-13          590            8            8         1356            0 
   20800    71.466594     9182 4.6906633e-13          602            8            8         1391            0 
   20900    72.764134     9403 4.7881677e-13          616            8            8         1422            0 
   21000    74.083448     9625 4.887751e-13          625            8            8         1457            0 
   21100    75.418316     9839 4.9864128e-13          645            8            8         1491            0 
   21200    76.762571    10096 5.0901642e-13          661            8            8         1531            0 
   21300    78.155038    10330 5.1947755e-13          673            8            8         1581            0 
   21400    79.536306    10555 5.297237e-13          697            8            8         1619            0 
   21500    80.928671    10757 5.3997626e-13          706            8            8         1652            0 
   21600    82.333113    10937 5.5008623e-13          717            8            8         1683            0 
   21700    83.753647    11110 5.6012907e-13          732            8            8         1709            0 
   21800    85.211866    11268 5.7019507e-13          747            8            8         1728            0 
   21900    86.663212    11448 5.8043531e-13          759            8            8         1756            0 
   22000    88.124722    11614 5.9067809e-13          775            8            8         1782            0 
   22100    89.615772    11818 6.0124073e-13          793            8            8         1813            0 
   22200     91.17625    12010 6.1167485e-13          820            8            8         1828            0 
   22300    92.691878    12215 6.2280307e-13          839            8            8         1862            0 
   22400    94.268693    12429 6.340438e-13          858            8            8         1892            0 
   22500    95.813244    12676 6.4573868e-13          880            8            8         1937            0 
   22600    97.464559    12935 6.5794312e-13          892            8            8         1976            0 
   22700    99.027205    13215 6.7030825e-13          904            8            8         2020            0 
   22800    100.58385    13493 6.8274353e-13          917            8            8         2052            0 
   22900    102.16006    13772 6.9531781e-13          933            8            8         2107            0 
   23000    103.78924    14065 7.0844496e-13          953            8            8         2169            0 
   23100    105.39296    14373 7.2191521e-13          967            8            8         2223            0 
   23200     106.9852    14688 7.3551257e-13          986            8            8         2264            0 
   23300    108.76737    14990 7.4912681e-13         1001            8            8         2320            0 
   23400    110.44021    15299 7.6264646e-13         1022            8            8         2371            0 
   23500    112.09308    15623 7.7659028e-13         1040            8            8         2419            0 
   23600    113.75454    15942 7.906427e-13         1057            8            8         2479            0 
   23700    115.43632    16242 8.045284e-13         1075            8            8         2540            0 
   23800    117.11687    16506 8.1834607e-13         1090            8            8         2590            0 
   23900    118.81115    16801 8.3218917e-13         1114            8            8         2630            0 
   24000    120.49846    17061 8.4609532e-13         1130            8            8         2671            0 
   24100    122.18719    17350 8.6039335e-13         1154            8            8         2714            0 
   24200    123.90253    17593 8.7420528e-13         1175            8            8         2749            0 
   24300    125.61821    17814 8.8766185e-13         1193            8            8         2785            0 
   24400    127.34973    18054 9.0140613e-13         1218            8            8         2809            0 
   24500    129.06659    18319 9.156433e-13         1238            8            8         2853            0 
   24600    130.81083    18566 9.2961869e-13         1267            8            8         2876            0 
   24700    132.53665    18867 9.4458792e-13         1289            8            8         2928            0 
   24800    134.31211    19135  9.59188e-13         1311            8            8         2974            0 
   24900    136.05605    19440 9.7441868e-13         1331            8            8         3029            0 
   25000    137.81205    19770 9.9009795e-13         1354            8            8         3083            0 
   25100    139.58358    20122 1.0061975e-12         1374            8            8         3138            0 
   25200    141.35835    20498 1.0226836e-12         1391            8            8         3197            0 
   25300    143.14984    20914 1.0394555e-12         1416            8            8         3261            0 
   25400    144.93273    21323 1.0566886e-12         1436            8            8         3332            0 
   25500    146.71638    21720  1.07355e-12         1456            8            8         3405            0 
   25600     148.5109    22131 1.0907709e-12         1480            8            8         3482            0 
   25700    150.32197    22565 1.1085917e-12         1499            8            8         3566            0 
   25800    152.18843    23002 1.1264717e-12         1520            8            8         3641            0 
   25900    154.05581    23411 1.1443046e-12         1544            8            8         3702            0 
   26000    156.05167    23802 1.1619586e-12         1563            8            8         3777            0 
   26100    157.90156    24192 1.1794704e-12         1594            8            8         3830            0 
   26200    159.76879    24595 1.1974076e-12         1613            8            8         3902            0 
   26300    161.62403    25004 1.2151425e-12         1647            8            8         3967            0 
   26400    163.60712    25377 1.232858e-12         1665            8            8         4036            0 
   26500    165.49421    25737 1.2504013e-12         1697            8            8         4115            0 
   26600    167.38731    26077 1.2677157e-12         1722            8            8         4158            0 
   26700    169.33133    26396 1.2850084e-12         1749            8            8         4200            0 
   26800    171.19997    26770 1.3028601e-12         1781            8            8         4263            0 
   26900    173.09952    27115 1.3203332e-12         1811            8            8         4321            0 
   27000    174.98335    27468 1.3379293e-12         1848            8            8         4374            0 
   27100    176.87967    27787 1.355545e-12         1864            8            8         4418            0 
   27200    178.77347    28121 1.3732571e-12         1894            8            8         4472            0 
   27300    180.64856    28486 1.3912797e-12         1928            8            8         4529            0 
   27400    182.54244    28901  1.41007e-12         1956            8            8         4584            0 
   27500     184.4734    29329 1.4291169e-12         1994            8            8         4676            0 
   27600    186.38899    29731 1.4479561e-12         2017            8            8         4718            0 
   27700    188.28633    30175 1.4677757e-12         2044            8            8         4806            0 
   27800    190.20392    30631 1.4875165e-12         2064            8            8         4892            0 
   27900    192.13486    31090 1.5076091e-12         2089            8            8         4977            0 
   28000     194.0608    31603 1.5283377e-12         2108            8            8         5073            0 
   28100    196.02429    32119 1.5492787e-12         2134            8            8         5154            0 
   28200    197.97984    32647 1.5702269e-12         2162            8            8         5244            0 
   28300    199.92992    33163 1.5911961e-12         2196            8            8         5324            0 
   28400    201.88315    33672 1.612007e-12         2225            8            8         5422            0 
   28500    203.90873    34196 1.6332274e-12         2248            8            8         5513            0 
   28600    205.88641    34668 1.6541897e-12         2273            8            8         5592            0 
   28700    207.86372    35163 1.6755401e-12         2292            8            8         5677            0 
   28800    209.87279    35666 1.696845e-12         2325            8            8         5788            0 
   28900    211.85504    36142 1.7179772e-12         2353            8            8         5868            0 
   29000    213.88245    36644 1.7391295e-12         2376            8            8         5950            0 
   29100    215.98699    37152 1.7603254e-12         2410            8            8         6044            0 
   29200    218.00733    37624 1.7813325e-12         2436            8            8         6095            0 
   29300    220.06195    38072 1.8022434e-12         2464            8            8         6175            0 
   29400    222.18214    38531 1.8233069e-12         2486            8            8         6258            0 
   29500    224.21159    39002 1.8445234e-12         2517            8            8         6331            0 
   29600    226.26885    39499 1.8657401e-12         2549            8            8         6422            0 
   29700    228.31225    39900 1.8862003e-12         2584            8            8         6501            0 
   29800    230.43279    40302 1.906698e-12         2616            8            8         6561            0 
   29900    232.49302    40740 1.9277696e-12         2647            8            8         6636            0 
   30000    234.54716    41187 1.9487862e-12         2680            8            8         6702            0 
   30100    236.68253    41576 1.9692894e-12         2704            8            8         6768            0 
   30200    238.83984    41999 1.9902359e-12         2739            8            8         6836            0 
   30300    241.00821    42458 2.0114076e-12         2780            8            8         6895            0 
   30400    243.16274    42982 2.0334218e-12         2819            8            8         6984            0 
   30500    245.30187    43491 2.0554045e-12         2857            8            8         7070            0 
   30600     247.4493    43998 2.077638e-12         2882            8            8         7169            0 
   30700    249.56612    44523 2.1003003e-12         2909            8            8         7271            0 
   30800    251.66757    45068 2.1233066e-12         2934            8            8         7341            0 
   30900    253.76712    45608 2.1464487e-12         2954            8            8         7444            0 
   31000    255.97838    46181 2.1699604e-12         2982            8            8         7546            0 
   31100      258.154    46782 2.1936463e-12         3007            8            8         7670            0 
   31200    260.36945    47382 2.2172261e-12         3043            8            8         7772            0 
   31300    262.66673    48010 2.2409897e-12         3076            8            8         7885            0 
   31400    265.00863    48625 2.2651309e-12         3093            8            8         8024            0 
   31500    267.24257    49206 2.288564e-12         3131            8            8         8112            0 
   31600    269.43462    49816 2.3123241e-12         3166            8            8         8197            0 
   31700    271.62066    50491 2.3370477e-12         3203            8            8         8319            0 
   31800    273.91848    51124 2.3612142e-12         3235            8            8         8442            0 
   31900    276.31206    51704 2.3847231e-12         3282            8            8         8538            0 
   32000    278.64196    52323 2.408576e-12         3314            8            8         8650            0 
   32100    280.89054    52900 2.4322743e-12         3354            8            8         8740            0 
   32200    283.12316    53487 2.4563773e-12         3378            8            8         8861            0 
   32300    285.38106    54082 2.4802956e-12         3408            8            8         8958            0 
   32400    287.64703    54647 2.5041261e-12         3434            8            8         9056            0 
   32500    289.94425    55226 2.5278924e-12         3469            8            8         9169            0 
   32600    292.29095    55773 2.5512588e-12         3502            8            8         9259            0 
   32700    294.80908    56378 2.5752397e-12         3532            8            8         9360            0 
   32800    297.08283    56931 2.5985298e-12         3570            8            8         9438            0 
   32900    299.56838    57465 2.6218661e-12         3609            8            8         9546            0 
   33000    301.84434    57964 2.6448829e-12         3642            8            8         9633            0 
   33100    304.09682    58481 2.667833e-12         3677            8            8         9742            0 
   33200    306.36551    58956 2.6906594e-12         3704            8            8         9817            0 
   33300    308.62265    59436 2.713474e-12         3739            8            8         9908            0 
   33400    310.93369    60009 2.737358e-12         3774            8            8        10011            0 
   33500    313.30821    60518 2.7606304e-12         3800            8            8        10102            0 
   33600    315.57642    61084 2.7844552e-12         3830            8            8        10196            0 
   33700    317.88803    61624 2.8081226e-12         3852            8            8        10307            0 
   33800    320.19845    62219 2.8323132e-12         3887            8            8        10397            0 
   33900    322.51357    62765 2.8561026e-12         3920            8            8        10482            0 
   34000    324.89204    63409 2.8805358e-12         3969            8            8        10577            0 
   34100    327.21921    64039 2.9055374e-12         4002            8            8        10688            0 
   34200    329.55943    64667 2.9304014e-12         4033            8            8        10803            0 
   34300    331.93709    65301 2.9556406e-12         4055            8            8        10922            0 
   34400    334.28812    66014 2.9812102e-12         4097            8            8        11036            0 
   34500    336.67604    66701  3.00672e-12         4132            8            8        11169            0 
   34600    339.03625    67390 3.0326181e-12         4161            8            8        11295            0 
   34700    341.43016    68098 3.0583403e-12         4188            8            8        11420            0 
   34800    343.89775    68808 3.084004e-12         4214            8            8        11555            0 
   34900    346.32134    69522 3.1097082e-12         4250            8            8        11678            0 
   35000    348.91889    70163 3.1349872e-12         4281            8            8        11805            0 
   35100    351.35344    70854 3.1607783e-12         4320            8            8        11941            0 
   35200    353.79923    71583 3.1870031e-12         4351            8            8        12060            0 
   35300    356.30561    72276 3.2123837e-12         4391            8            8        12187            0 
   35400    358.76622    72964 3.2380025e-12         4427            8            8        12294            0 
   35500    361.23462    73648 3.2635375e-12         4457            8            8        12411            0 
   35600    363.69864    74362 3.2895314e-12         4486            8            8        12534            0 
   35700    366.17314    75025 3.3145505e-12         4523            8            8        12650            0 
   35800    368.68768    75713 3.3402658e-12         4546            8            8        12791            0 
   35900    371.19158    76393 3.3657446e-12         4575            8            8        12892            0 
   36000    373.75418    77047 3.3911299e-12         4608            8            8        13016            0 
   36100    376.27543    77730 3.4167246e-12         4647            8            8        13157            0 
   36200    378.85419    78424 3.4418722e-12         4677            8            8        13260            0 
   36300    381.40566    79096 3.467157e-12         4709            8            8        13391            0 
   36400    383.98327    79745 3.4920937e-12         4744            8            8        13526            0 
   36500    386.62259    80320 3.5165121e-12         4765            8            8        13645            0 
   36600    389.22893    80996 3.5418453e-12         4796            8            8        13748            0 
   36700    391.83902    81596 3.5660071e-12         4835            8            8        13851            0 
   36800    394.43833    82198 3.5905105e-12         4875            8            8        13979            0 
   36900    397.17877    82777 3.6146326e-12         4902            8            8        14076            0 
   37000    399.81354    83385 3.639083e-12         4940            8            8        14178            0 
   37100    402.47395    83987 3.6634747e-12         4974            8            8        14289            0 
   37200     405.1353    84622 3.6882605e-12         5005            8            8        14398            0 
   37300    408.09801    85264 3.7129504e-12         5046            8            8        14531            0 
   37400    411.09178    85903 3.7377013e-12         5083            8            8        14633            0 
   37500    413.99186    86543 3.7623783e-12         5122            8            8        14756            0 
   37600    416.82253    87235 3.7876215e-12         5156            8            8        14878            0 
   37700    419.55266    87894 3.8128424e-12         5186            8            8        15013            0 
   37800    422.31488    88577 3.8384003e-12         5223            8            8        15133            0 
   37900    425.04595    89347 3.8646634e-12         5263            8            8        15251            0 
   38000    427.86376    90042 3.8904599e-12         5293            8            8        15374            0 
   38100    430.63942    90801 3.916714e-12         5329            8            8        15505            0 
   38200    433.46227    91530 3.9428483e-12         5362            8            8        15637            0 
   38300    436.24536    92334 3.9693435e-12         5405            8            8        15781            0 
   38400    439.06932    93115 3.9956791e-12         5436            8            8        15927            0 
   38500    441.90203    93881 4.0219215e-12         5472            8            8        16070            0 
   38600    444.78046    94665 4.0484811e-12         5504            8            8        16228            0 
   38700    448.33046    95387 4.0741407e-12         5537            8            8        16333            0 
   38800    451.83342    96167 4.1008522e-12         5561            8            8        16491            0 
   38900    455.92032    96956 4.1273551e-12         5598            8            8        16610            0 
   39000    460.07908    97738 4.1536117e-12         5638            8            8        16774            0 
   39100    463.79364    98530 4.1798777e-12         5684            8            8        16916            0 
   39200    467.64061    99375 4.2067983e-12         5728            8            8        17035            0 
   39300    471.34005   100132  4.23314e-12         5757            8            8        17205            0 
   39400    474.74312   100871 4.2590391e-12         5788            8            8        17322            0 
   39500    478.64344   101727 4.2862893e-12         5816            8            8        17471            0 
   39600     482.2295   102505 4.3125775e-12         5843            8            8        17631            0 
   39700    485.53418   103259 4.3384344e-12         5876            8            8        17764            0 
   39800    489.15181   103973 4.3637243e-12         5911            8            8        17912            0 
   39900    492.59572   104741 4.3901952e-12         5939            8            8        18053            0 
   40000     495.7771   105527 4.4168397e-12         5964            8            8        18207            0 
Loop time of 495.777 on 4 procs for 40000 steps with 105527 atoms

Performance: 69708732.472 tau/day, 80.681 timesteps/s
99.9% CPU use with 4 MPI tasks x no OpenMP threads

MPI task timing breakdown:
Section |  min time  |  avg time  |  max time  |%varavg| %total
---------------------------------------------------------------
Pair    | 64.351     | 71.848     | 78.458     |  76.8 | 14.49
Neigh   | 18.827     | 20.584     | 22.243     |  33.3 |  4.15
Comm    | 7.8042     | 8.0762     | 8.2635     |   6.7 |  1.63
Output  | 0.49491    | 0.60974    | 0.74305    |  14.3 |  0.12
Modify  | 374.63     | 376.8      | 378.2      |   7.4 | 76.00
Other   |            | 17.86      |            |       |  3.60

Nlocal:    26381.8 ave 28388 max 24187 min
Histogram: 1 1 0 0 0 0 0 0 0 2
Nghost:    2374.75 ave 3159 max 1597 min
Histogram: 2 0 0 0 0 0 0 0 0 2
Neighs:    208125 ave 225042 max 188954 min
Histogram: 1 1 0 0 0 0 0 0 0 2

Total # of neighbors = 832501
Ave neighs/atom = 7.88899
Neighbor list builds = 1342
Dangerous builds = 0

Total wall time: 0:08:15
