LAMMPS (5 Nov 2016)
# NUFEB simulation

atom_style	bio
atom_modify	map array sort 100 5.0e-7
boundary	ff ff ff
newton		off
#processors  2 1 1

comm_modify	vel yes
read_data_bio atom.in
  orthogonal box = (0 0 0) to (0.0001 4e-05 0.0001)
  1 by 1 by 1 MPI processor grid
  reading atoms ...
  80 atoms
  3 nutrients

group HET type 1 2
80 atoms in group HET

neighbor	5e-7 bin
neigh_modify	delay 0 one 5000

#pair_style none
pair_style  gran/hooke/history 1.e-4 NULL 1.e-5 NULL 0.0 1

pair_coeff  * *
timestep 9

fix 1 all nve/limit 1e-7

fix fv all viscous 1e-5

fix xw all wall/gran hooke/history 2000 NULL 500.0 NULL 1.5 0 xplane  0.0   1.0e-04
fix yw all wall/gran hooke/history 2000 NULL 500.0 NULL 1.5 0 yplane  0.0   4.0e-05
fix zw all wall/gran hooke/history 2000 NULL 500.0 NULL 1.5 0 zplane  0.0   1.0e-04

variable kanc equal 50

fix xwa all walladh v_kanc xplane  0.0   1.0e-04
fix ywa all walladh v_kanc yplane  0.0   4.0e-05
fix zwa all walladh v_kanc zplane  0.0   1.0e-04

##############Ibm Variable Definitions##############

#Defining EPS density and ratio variables
variable EPSdens equal 30
variable EPSratio equal 1.25
variable divMass equal 7.21e-17

variable ke equal 5e+10

#Defining kinetics variables
variable temp equal 298.15
variable gasTran equal 0.08205746
variable gvol equal 8e-14
variable rth equal 0.0083144
variable pressure equal 1
variable ph equal 7.0

#Defining diffusion variables
variable diffT equal 5e-4
variable tol equal 1e-6
variable bl equal -1
variable Q equal -1
variable rvol equal 1
variable Af equal -1
variable shearRate equal 0.0

##############Ibm functions##############

fix k1 all kinetics 400 30 12 30 v_temp v_rth v_gvol v_gasTran v_ph v_diffT v_bl
#fix ki3 all kinetics/ph
fix ki2 all kinetics/thermo fix open v_pressure
fix ki1 all kinetics/growth/energy v_EPSdens
fix g1 all kinetics/diffusion v_shearRate v_tol v_Q v_rvol v_Af pp pp nd mol
fix d1 all divide 400 v_EPSdens v_divMass 31231

##############Ibm compute##############

compute myNtypes all ntypes

##############Simulation outputs##############

dump		id all custom 4000 snapshot.bubblemd id type diameter x y z
dump            d0 all bio 4000 concentration ntypes ave_concentration
thermo_style    custom step cpu atoms biomass c_myNtypes[*]
thermo		400
thermo_modify	lost ignore

run 192000
Neighbor list info ...
  2 neighbor list requests
  update every 1 steps, delay 0 steps, check yes
  max neighbors/atom: 5000, page size: 100000
  master list distance cutoff = 1.5e-06
  ghost atom cutoff = 1.5e-06
  binsize = 7.5e-07 -> bins = 134 54 134
Memory usage per processor = 13.5504 Mbytes
Step CPU Atoms biomass c_myNtypes[1] c_myNtypes[2] 
       0            0       80 6.2831853e-15           40           40 
     400    36.003524      160 6.7941793e-15           80           80 
     800     47.28114      160 7.3472315e-15           80           80 
    1200     58.84699      160 7.946376e-15           80           80 
    1600    70.920136      160 8.5953763e-15           80           80 
    2000    83.650531      160 9.2982499e-15           80           80 
    2400    97.100938      172 1.0059287e-14           92           80 
    2800    111.20506      194 1.0883056e-14          114           80 
    3200    125.99915      212 1.1774406e-14          132           80 
    3600    141.51065      239 1.2738476e-14          147           92 
    4000    158.20569      268 1.3780675e-14          160          108 
    4400     175.8221      280 1.4906676e-14          160          120 
    4800    194.23427      293 1.6122386e-14          166          127 
    5200    212.95311      321 1.7433982e-14          181          140 
    5600    231.98462      360 1.884778e-14          211          149 
    6000    251.50264      395 2.0370274e-14          235          160 
    6400    271.61327      430 2.200801e-14          270          160 
    6800    292.20211      458 2.3767506e-14          298          160 
    7200    313.24816      474 2.5655243e-14          314          160 
    7600    334.74061      495 2.7677531e-14          327          168 
    8000     356.8584      537 2.9840474e-14          353          184 
    8400    379.73765      579 3.2149811e-14          382          197 
    8800     402.7932      635 3.4610726e-14          422          213 
    9200    425.92238      704 3.7227745e-14          474          230 
    9600    448.93837      770 4.0004557e-14          515          255 
   10000    471.90193      834 4.2944115e-14          564          270 
   10400    495.17425      890 4.6048426e-14          606          284 
   10800    518.31494      945 4.9318487e-14          645          300 
   11200    541.34683      993 5.2754507e-14          687          306 
   11600    563.37059     1060 5.6355511e-14          742          318 
   12000    585.21829     1115 6.0119194e-14          790          325 
   12400    606.42511     1185 6.4042584e-14          847          338 
   12800    626.71512     1282 6.8122461e-14          929          353 
   13200    646.31644     1372 7.2355354e-14         1008          364 
   13600     665.5093     1468 7.673491e-14         1082          386 
   14000    684.23465     1553 8.1256817e-14         1142          411 
   14400    701.99055     1642 8.5915017e-14         1207          435 
   14800    719.12476     1740 9.0703681e-14         1271          469 
   15200    736.21128     1842 9.5617401e-14         1346          496 
   15600    752.50606     1941 1.0065059e-13         1425          516 
   16000    767.77256     2028 1.0579586e-13         1484          544 
   16400    782.54496     2146 1.1104848e-13         1578          568 
   16800    796.99367     2239 1.1640316e-13         1654          585 
   17200    810.82605     2344 1.2185368e-13         1741          603 
   17600     824.0087     2447 1.2739355e-13         1828          619 
   18000    836.92521     2568 1.3301985e-13         1933          635 
   18400     849.3031     2701 1.3872657e-13         2047          654 
   18800    861.15595     2839 1.4450803e-13         2169          670 
   19200    872.65508     2932 1.5036089e-13         2242          690 
   19600    883.61287     3037 1.5628012e-13         2322          715 
   20000    894.52582     3159 1.6226357e-13         2414          745 
   20400    904.98201     3283 1.6830579e-13         2518          765 
   20800    915.09278     3395 1.7440482e-13         2603          792 
   21200    924.76339     3513 1.8055814e-13         2695          818 
   21600    934.06875     3634 1.8676209e-13         2789          845 
   22000    942.91565     3747 1.9301472e-13         2868          879 
   22400    951.47259     3873 1.993119e-13         2958          915 
   22800    960.04282     3990 2.0565405e-13         3052          938 
   23200    968.36954     4130 2.1203758e-13         3159          971 
   23600    976.21477     4263 2.1846066e-13         3264          999 
   24000    983.74153     4413 2.2492014e-13         3382         1031 
   24400    991.19764     4545 2.3141571e-13         3485         1060 
   24800    998.54077     4690 2.379448e-13         3601         1089 
   25200    1005.5633     4831 2.4450624e-13         3715         1116 
   25600    1012.3423     4961 2.5109762e-13         3820         1141 
   26000    1019.2436     5090 2.577184e-13         3924         1166 
   26400    1025.9264     5230 2.6436779e-13         4044         1186 
   26800     1032.293     5364 2.710437e-13         4157         1207 
   27200    1038.3371     5511 2.7774463e-13         4278         1233 
   27600    1044.4762     5663 2.8446967e-13         4402         1261 
   28000    1050.5747     5789 2.9121849e-13         4507         1282 
   28400    1056.2495     5922 2.9798887e-13         4609         1313 
   28800    1061.8575     6050 3.0478058e-13         4706         1344 
   29200    1067.3625     6169 3.1159303e-13         4807         1362 
   29600    1072.7983     6286 3.1842528e-13         4902         1384 
   30000    1077.9963     6403 3.2527626e-13         4998         1405 
   30400    1083.2094     6537 3.3214596e-13         5106         1431 
   30800    1088.4301     6698 3.3903424e-13         5231         1467 
   31200    1093.4292     6827 3.4593938e-13         5334         1493 
   31600    1098.4115     6967 3.5286163e-13         5449         1518 
   32000       1103.1     7114 3.5979886e-13         5560         1554 
   32400    1108.0398     7256 3.667525e-13         5671         1585 
   32800    1112.5272     7402   3.7372e-13         5784         1618 
   33200    1117.1837     7530 3.8070238e-13         5894         1636 
   33600    1121.7704     7671 3.8769873e-13         6004         1667 
   34000     1126.102     7817 3.9470759e-13         6109         1708 
   34400     1130.427     7974 4.017294e-13         6230         1744 
   34800    1134.7766     8109 4.0876405e-13         6330         1779 
   35200     1138.843     8258 4.1581001e-13         6449         1809 
   35600    1142.9036     8394 4.2286674e-13         6552         1842 
   36000    1146.8934     8511 4.299357e-13         6649         1862 
   36400    1150.8371     8667 4.3701574e-13         6770         1897 
   36800    1154.7749     8809 4.4410594e-13         6889         1920 
   37200    1158.7097     8972 4.5120684e-13         7019         1953 
   37600    1162.5795     9106 4.5831709e-13         7118         1988 
   38000    1166.4975     9265 4.6543815e-13         7253         2012 
   38400    1170.3836     9423 4.7256888e-13         7384         2039 
   38800    1174.0832     9567 4.797086e-13         7497         2070 
   39200    1177.7286     9710 4.8685674e-13         7615         2095 
   39600    1181.2745     9848 4.9401385e-13         7725         2123 
   40000    1184.9778     9984 5.0117822e-13         7832         2152 
   40400    1188.6181    10142 5.0835069e-13         7959         2183 
   40800     1192.215    10264 5.1553207e-13         8053         2211 
   41200    1195.6939    10410 5.2272188e-13         8175         2235 
   41600    1199.2596    10588 5.2991942e-13         8317         2271 
   42000    1202.7502    10730 5.3712429e-13         8425         2305 
   42400    1206.1627    10877 5.4433591e-13         8546         2331 
   42800    1209.7191    11024 5.515545e-13         8657         2367 
   43200    1213.0372    11191 5.5877994e-13         8789         2402 
   43600    1216.3083    11319 5.6601272e-13         8894         2425 
   44000    1219.6948    11460 5.732519e-13         9015         2445 
   44400     1222.949    11596 5.8049726e-13         9125         2471 
   44800    1226.4169    11731 5.8774856e-13         9231         2500 
   45200    1229.6981    11884 5.9500659e-13         9353         2531 
   45600    1233.1251    12026 6.0227075e-13         9468         2558 
   46000    1236.5822    12174 6.0954082e-13         9593         2581 
   46400    1240.0268    12325 6.1681665e-13         9706         2619 
   46800    1243.2252    12474 6.2409815e-13         9827         2647 
   47200    1246.3556    12619  6.31385e-13         9945         2674 
   47600    1249.2845    12776 6.3867517e-13        10072         2704 
   48000     1252.469    12914 6.4597214e-13        10178         2736 
   48400    1255.4878    13050 6.5327442e-13        10290         2760 
   48800    1258.5919    13190 6.605817e-13        10405         2785 
   49200    1261.6346    13319 6.6789475e-13        10514         2805 
   49600    1264.7507    13477 6.7521159e-13        10643         2834 
   50000    1267.8617    13615 6.8253292e-13        10750         2865 
   50400    1270.8276    13768 6.8985856e-13        10872         2896 
   50800    1273.6296    13921 6.9718909e-13        10989         2932 
   51200    1276.6863    14091 7.0452495e-13        11125         2966 
   51600    1279.7916    14248 7.1186491e-13        11245         3003 
   52000    1282.8383    14379 7.1920935e-13        11344         3035 
   52400    1285.8057    14536 7.2655799e-13        11466         3070 
   52800    1288.8586    14679 7.3391131e-13        11582         3097 
   53200    1291.9371    14829 7.4126863e-13        11703         3126 
   53600    1294.9151    15012 7.4862936e-13        11842         3170 
   54000    1297.8855    15153 7.5599431e-13        11956         3197 
   54400    1300.7902    15307 7.6336335e-13        12086         3221 
   54800    1303.7704    15461 7.7073551e-13        12211         3250 
   55200    1306.6319    15594 7.7811115e-13        12319         3275 
   55600    1309.5939    15723 7.854898e-13        12419         3304 
   56000    1312.4052    15872 7.9287175e-13        12542         3330 
   56400    1315.5537    16013 8.002568e-13        12653         3360 
   56800    1318.3838    16152 8.0764516e-13        12760         3392 
   57200    1321.3683    16291 8.1503735e-13        12866         3425 
   57600    1324.2095    16442 8.2243234e-13        12989         3453 
   58000    1327.0805    16594 8.2983044e-13        13116         3478 
   58400    1329.9934    16795 8.3723241e-13        13268         3527 
   58800    1332.7957    16935 8.4463736e-13        13377         3558 
   59200    1335.7863    17089 8.5204484e-13        13509         3580 
   59600    1338.6883    17251 8.5945551e-13        13642         3609 
   60000    1341.5833    17388 8.6686902e-13        13749         3639 
   60400    1344.3454    17512 8.7428609e-13        13846         3666 
   60800    1347.2282    17670 8.8170596e-13        13957         3713 
   61200    1350.1116    17806 8.8912915e-13        14066         3740 
   61600    1353.0301    17949 8.9655489e-13        14184         3765 
   62000    1355.8811    18104 9.0398255e-13        14308         3796 
   62400    1358.8738    18253 9.114132e-13        14430         3823 
   62800    1361.7203    18403 9.1884716e-13        14544         3859 
   63200    1364.6502    18545 9.262832e-13        14657         3888 
   63600    1367.5005    18692 9.3372281e-13        14768         3924 
   64000    1370.4574    18848 9.4116543e-13        14893         3955 
   64400    1373.3738    18980 9.4861145e-13        14996         3984 
   64800    1376.3326    19149 9.5605894e-13        15141         4008 
   65200    1379.2941    19318 9.6350791e-13        15275         4043 
   65600    1382.2191    19469 9.709606e-13        15394         4075 
   66000    1385.1208    19598 9.7841547e-13        15501         4097 
   66400    1388.1834    19730 9.8587244e-13        15609         4121 
   66800    1391.1171    19865 9.9333225e-13        15714         4151 
   67200    1394.0711    20017 1.0007937e-12        15839         4178 
   67600    1396.9934    20161 1.0082573e-12        15956         4205 
   68000    1400.0864    20322 1.0157229e-12        16080         4242 
   68400    1403.1028    20473 1.0231905e-12        16198         4275 
   68800    1406.0031    20633 1.0306605e-12        16332         4301 
   69200    1408.9854    20791 1.0381323e-12        16457         4334 
   69600    1412.0169    20952 1.0456063e-12        16584         4368 
   70000    1415.2707    21095 1.0530823e-12        16696         4399 
   70400    1418.3266    21238 1.0605605e-12        16817         4421 
   70800    1421.2862    21405 1.0680398e-12        16953         4452 
   71200    1424.4074    21561 1.0755219e-12        17080         4481 
   71600     1427.643    21709 1.0830058e-12        17190         4519 
   72000    1430.5756    21860 1.0904928e-12        17311         4549 
   72400    1433.7438    22036 1.0979809e-12        17459         4577 
   72800    1436.8853    22184 1.1054721e-12        17593         4591 
   73200    1439.8017    22334 1.1129654e-12        17718         4616 
   73600    1442.9704    22469 1.1204594e-12        17828         4641 
   74000    1446.1459    22628 1.1279548e-12        17950         4678 
   74400    1449.2391    22782 1.1354531e-12        18071         4711 
   74800    1452.3867    22953 1.1429525e-12        18200         4753 
   75200    1455.6529    23110 1.1504538e-12        18317         4793 
   75600    1459.0273    23251 1.1579573e-12        18430         4821 
   76000    1462.4461    23403 1.1654625e-12        18541         4862 
   76400    1465.5399    23558 1.1729695e-12        18657         4901 
   76800    1468.9787    23708 1.1804786e-12        18777         4931 
   77200    1472.2223    23864 1.1879894e-12        18907         4957 
   77600    1475.5486    24013 1.1955026e-12        19033         4980 
   78000    1478.8131    24151 1.2030179e-12        19143         5008 
   78400    1482.3065    24301 1.2105345e-12        19264         5037 
   78800    1485.7027    24444 1.2180538e-12        19372         5072 
   79200    1488.9331    24603 1.225574e-12        19495         5108 
   79600    1492.4025    24760 1.2330952e-12        19622         5138 
   80000    1495.9945    24919 1.2406179e-12        19744         5175 
   80400    1499.6553    25082 1.248142e-12        19876         5206 
   80800    1503.3473    25223 1.255668e-12        19996         5227 
   81200    1507.0075    25380 1.263195e-12        20116         5264 
   81600     1510.434    25527 1.2707241e-12        20231         5296 
   82000    1514.2904    25658 1.2782542e-12        20331         5327 
   82400    1517.9247    25831 1.2857861e-12        20475         5356 
   82800    1521.9278    26004 1.293319e-12        20614         5390 
   83200    1525.7767    26144 1.3008531e-12        20728         5416 
   83600    1529.2714    26276 1.3083883e-12        20833         5443 
   84000    1532.9053    26435 1.3159258e-12        20971         5464 
   84400    1536.8475    26598 1.3234641e-12        21109         5489 
   84800    1540.4162    26747 1.3310043e-12        21229         5518 
   85200    1544.0114    26914 1.3385463e-12        21368         5546 
   85600    1547.8952    27040 1.3460894e-12        21471         5569 
   86000     1551.537    27203 1.3536338e-12        21608         5595 
   86400    1555.6214    27356 1.3611799e-12        21720         5636 
   86800    1559.7344    27522 1.3687271e-12        21864         5658 
   87200    1563.8289    27696 1.3762746e-12        22007         5689 
   87600    1567.8127    27870 1.383824e-12        22154         5716 
   88000    1571.8726    28019 1.3913744e-12        22277         5742 
   88400    1575.9617    28180 1.3989266e-12        22411         5769 
   88800    1579.9032    28332 1.4064803e-12        22533         5799 
   89200    1583.9306    28467 1.4140347e-12        22643         5824 
   89600    1587.9992    28633  1.42159e-12        22767         5866 
   90000    1592.1966    28814 1.4291476e-12        22911         5903 
   90400    1596.3531    28964 1.4367063e-12        23029         5935 
   90800    1600.4511    29101 1.4442668e-12        23145         5956 
   91200    1604.7756    29249 1.4518285e-12        23270         5979 
   91600    1608.9562    29391 1.4593914e-12        23382         6009 
   92000    1613.0452    29544 1.4669557e-12        23513         6031 
   92400    1617.4361    29705 1.4745223e-12        23655         6050 
   92800    1621.5703    29867 1.4820899e-12        23784         6083 
   93200    1625.6486    30030 1.4896599e-12        23918         6112 
   93600    1629.8419    30188 1.4972296e-12        24044         6144 
   94000     1633.964    30354 1.5048008e-12        24178         6176 
   94400    1638.1641    30501 1.5123727e-12        24289         6212 
   94800    1642.6981    30643 1.5199446e-12        24407         6236 
   95200    1646.7111    30783 1.5275192e-12        24527         6256 
   95600     1651.141    30933 1.5350934e-12        24648         6285 
   96000    1655.3744    31103  1.54267e-12        24786         6317 
   96400    1660.0019    31254 1.5502482e-12        24920         6334 
   96800    1664.7163    31409 1.5578269e-12        25048         6361 
   97200    1669.2113    31557 1.5654065e-12        25181         6376 
   97600    1673.7795    31697 1.5729863e-12        25288         6409 
   98000    1678.5054    31834 1.5805673e-12        25397         6437 
   98400    1683.0475    31974 1.5881505e-12        25514         6460 
   98800    1687.6784    32121 1.5957339e-12        25636         6485 
   99200    1692.2552    32280 1.6033196e-12        25768         6512 
   99600    1696.9552    32435 1.6109065e-12        25894         6541 
  100000    1701.6524    32598 1.6184947e-12        26022         6576 
  100400     1706.436    32754 1.6260837e-12        26152         6602 
  100800    1711.3939    32911 1.6336731e-12        26269         6642 
  101200    1715.9447    33065 1.6412631e-12        26391         6674 
  101600    1720.4465    33197 1.6488553e-12        26491         6706 
  102000    1725.1301    33358 1.6564482e-12        26613         6745 
  102400    1730.0888    33500 1.6640418e-12        26729         6771 
  102800    1734.8784    33628 1.6716369e-12        26826         6802 
  103200    1739.7667    33778 1.679234e-12        26939         6839 
  103600    1744.4815    33924 1.6868324e-12        27052         6872 
  104000    1750.1105    34048 1.6944314e-12        27149         6899 
  104400    1755.1715    34216 1.7020321e-12        27289         6927 
  104800    1760.2437    34373 1.7096322e-12        27401         6972 
  105200    1765.5386    34520 1.7172339e-12        27519         7001 
  105600    1770.2537    34658 1.7248369e-12        27631         7027 
  106000     1775.458    34795 1.7324409e-12        27737         7058 
  106400     1780.882    34936 1.740046e-12        27857         7079 
  106800    1785.8777    35101 1.7476529e-12        27993         7108 
  107200    1791.1426    35295 1.7552623e-12        28148         7147 
  107600     1796.426    35462 1.7628723e-12        28284         7178 
  108000    1801.6635    35606 1.7704833e-12        28395         7211 
  108400    1806.7566    35752 1.7780963e-12        28504         7248 
  108800    1812.0496    35912 1.7857097e-12        28638         7274 
  109200    1817.3491    36076 1.7933245e-12        28765         7311 
  109600    1822.6054    36225 1.8009397e-12        28888         7337 
  110000    1828.2367    36375 1.8085566e-12        29008         7367 
  110400    1833.6804    36563 1.8161748e-12        29156         7407 
  110800    1839.4047    36731 1.8237934e-12        29287         7444 
  111200    1844.7597    36867 1.8314149e-12        29398         7469 
  111600    1850.1169    37027 1.8390387e-12        29537         7490 
  112000     1855.621    37168 1.8466634e-12        29651         7517 
  112400    1861.2696    37331 1.8542881e-12        29790         7541 
  112800    1866.9341    37476 1.8619147e-12        29913         7563 
  113200     1872.336    37634 1.8695409e-12        30046         7588 
  113600    1878.0788    37768 1.8771682e-12        30158         7610 
  114000    1883.5154    37927 1.8847976e-12        30287         7640 
  114400     1889.389    38093 1.8924278e-12        30430         7663 
  114800    1895.0747    38242 1.9000596e-12        30552         7690 
  115200    1900.9305    38410 1.907693e-12        30688         7722 
  115600    1907.0562    38554 1.9153266e-12        30803         7751 
  116000    1913.2069    38707 1.9229628e-12        30932         7775 
  116400    1919.3424    38886 1.9305996e-12        31087         7799 
  116800    1925.3167    39030 1.9382385e-12        31198         7832 
  117200    1931.5174    39184 1.9458797e-12        31327         7857 
  117600    1937.8563    39318 1.9535224e-12        31430         7888 
  118000    1944.4551    39461 1.9611677e-12        31543         7918 
  118400    1950.7195    39623 1.9688141e-12        31682         7941 
  118800    1956.8372    39791 1.9764616e-12        31817         7974 
  119200    1963.1301    39950 1.9841113e-12        31946         8004 
  119600    1969.4186    40108 1.9917624e-12        32075         8033 
  120000    1975.8289    40248 1.9994145e-12        32188         8060 
  120400     1982.174    40389 2.0070672e-12        32305         8084 
  120800    1988.1469    40550 2.0147232e-12        32436         8114 
  121200    1994.5184    40693 2.0223811e-12        32560         8133 
  121600    2001.1035    40844 2.0300394e-12        32677         8167 
  122000    2007.3823    40994 2.0376985e-12        32805         8189 
  122400    2013.9489    41143 2.0453592e-12        32925         8218 
  122800    2020.2852    41308 2.0530224e-12        33062         8246 
  123200    2026.5182    41483 2.0606855e-12        33207         8276 
  123600    2032.6198    41627 2.0683494e-12        33329         8298 
  124000    2038.8828    41762 2.0760162e-12        33438         8324 
  124400    2045.4811    41923 2.0836837e-12        33569         8354 
  124800    2051.7531    42045 2.0913531e-12        33675         8370 
  125200    2058.2733    42198 2.0990252e-12        33802         8396 
  125600    2064.6458    42347 2.1066973e-12        33919         8428 
  126000    2071.4336    42506 2.1143703e-12        34052         8454 
  126400    2077.9341    42670 2.1220444e-12        34184         8486 
  126800    2084.8405    42824 2.1297211e-12        34314         8510 
  127200    2091.4093    42970 2.1373998e-12        34436         8534 
  127600    2097.9156    43119 2.1450808e-12        34560         8559 
  128000    2104.6089    43274 2.1527634e-12        34693         8581 
  128400    2111.1428    43444 2.1604484e-12        34825         8619 
  128800    2117.4994    43607 2.1681354e-12        34960         8647 
  129200    2124.2984    43750 2.1758242e-12        35081         8669 
  129600    2130.9854    43918 2.1835134e-12        35218         8700 
  130000     2137.965    44082 2.1912041e-12        35359         8723 
  130400     2144.888    44246 2.1988968e-12        35500         8746 
  130800    2151.9736    44389 2.2065896e-12        35620         8769 
  131200    2159.0094    44563 2.2142852e-12        35763         8800 
  131600     2165.962    44716 2.221983e-12        35886         8830 
  132000      2172.65    44877 2.2296823e-12        36011         8866 
  132400    2179.4077    45036 2.237383e-12        36142         8894 
  132800    2186.2077    45214 2.2450843e-12        36291         8923 
  133200    2192.6455    45366 2.2527863e-12        36416         8950 
  133600    2199.7784    45523 2.2604889e-12        36543         8980 
  134000    2206.2446    45692 2.2681953e-12        36689         9003 
  134400    2213.2374    45831 2.275903e-12        36803         9028 
  134800    2219.9301    45968 2.2836118e-12        36903         9065 
  135200      2226.88    46108 2.2913222e-12        37024         9084 
  135600    2233.4856    46266 2.2990344e-12        37151         9115 
  136000    2240.5118    46408 2.3067478e-12        37258         9150 
  136400     2247.324    46591 2.3144606e-12        37413         9178 
  136800    2254.6002    46742 2.3221748e-12        37540         9202 
  137200     2261.443    46896 2.3298914e-12        37667         9229 
  137600      2268.36    47053 2.337609e-12        37800         9253 
  138000    2275.3222    47211 2.3453271e-12        37927         9284 
  138400    2281.7733    47367 2.3530463e-12        38055         9312 
  138800    2288.6185    47523 2.3607682e-12        38180         9343 
  139200    2295.6277    47694 2.3684892e-12        38319         9375 
  139600    2302.5511    47848 2.3762132e-12        38452         9396 
  140000     2309.566    48003 2.3839376e-12        38584         9419 
  140400    2316.5521    48154 2.3916636e-12        38708         9446 
  140800     2323.588    48296 2.3993904e-12        38824         9472 
  141200    2330.4139    48429 2.407119e-12        38934         9495 
  141600     2337.323    48589 2.4148475e-12        39067         9522 
  142000     2344.383    48752 2.4225768e-12        39205         9547 
  142400    2351.3633    48914 2.4303081e-12        39343         9571 
  142800    2358.6038    49073 2.4380405e-12        39472         9601 
  143200    2365.6966    49227 2.4457735e-12        39608         9619 
  143600    2373.2531    49402 2.4535073e-12        39758         9644 
  144000    2380.6562    49570 2.4612432e-12        39899         9671 
  144400    2388.5782    49738 2.4689798e-12        40036         9702 
  144800     2396.272    49880 2.4767176e-12        40155         9725 
  145200    2404.0727    50028 2.484455e-12        40280         9748 
  145600    2411.9887    50183 2.4921933e-12        40419         9764 
  146000    2419.6105    50349 2.4999328e-12        40548         9801 
  146400    2427.1085    50507 2.5076734e-12        40671         9836 
  146800    2434.6705    50644 2.5154155e-12        40784         9860 
  147200    2442.0889    50794 2.5231591e-12        40908         9886 
  147600    2449.4454    50929 2.5309033e-12        41007         9922 
  148000    2456.9738    51091 2.5386473e-12        41140         9951 
  148400    2464.4837    51270 2.5463933e-12        41285         9985 
  148800    2471.7535    51434 2.5541404e-12        41412        10022 
  149200    2479.4282    51596 2.5618868e-12        41550        10046 
  149600    2487.1991    51749 2.5696347e-12        41675        10074 
  150000    2495.4601    51909 2.5773849e-12        41812        10097 
  150400    2502.7563    52048 2.5851372e-12        41925        10123 
  150800    2510.4758    52192 2.5928898e-12        42043        10149 
  151200    2518.0524    52350 2.600643e-12        42176        10174 
  151600    2526.6034    52508 2.6083986e-12        42317        10191 
  152000    2534.9545    52656 2.6161542e-12        42442        10214 
  152400    2543.3394    52829 2.6239097e-12        42589        10240 
  152800    2551.9792    52978 2.6316666e-12        42708        10270 
  153200    2559.5727    53142 2.6394265e-12        42846        10296 
  153600    2567.5182    53282 2.6471865e-12        42954        10328 
  154000    2575.5643    53447 2.654948e-12        43089        10358 
  154400    2583.9207    53598 2.6627088e-12        43213        10385 
  154800    2592.0668    53760 2.6704715e-12        43350        10410 
  155200    2600.1153    53913 2.678236e-12        43482        10431 
  155600    2608.6496    54063 2.6860014e-12        43599        10464 
  156000    2617.4019    54212 2.6937685e-12        43726        10486 
  156400    2626.0359    54375 2.7015358e-12        43868        10507 
  156800    2634.8104    54530 2.7093057e-12        44005        10525 
  157200     2643.726    54687 2.717077e-12        44138        10549 
  157600    2653.6756    54846 2.7248491e-12        44274        10572 
  158000    2663.2149    55014 2.7326229e-12        44422        10592 
  158400    2673.7448    55174 2.7403978e-12        44555        10619 
  158800    2683.7946    55330 2.748175e-12        44687        10643 
  159200    2694.0472    55490 2.7559527e-12        44815        10675 
  159600    2703.9288    55631 2.7637325e-12        44937        10694 
  160000    2714.5278    55772 2.7715136e-12        45056        10716 
  160400    2725.5425    55938 2.7792976e-12        45191        10747 
  160800    2736.3997    56130 2.7870846e-12        45347        10783 
  161200    2747.0937    56306 2.7948728e-12        45502        10804 
  161600    2758.7265    56468 2.802663e-12        45638        10830 
  162000    2770.7538    56639 2.8104561e-12        45781        10858 
  162400     2782.484    56795 2.8182506e-12        45910        10885 
  162800    2793.5692    56959 2.8260476e-12        46053        10906 
  163200    2804.7642    57120 2.8338462e-12        46191        10929 
  163600    2816.3875    57267 2.8416476e-12        46316        10951 
  164000     2827.346    57401 2.8494518e-12        46432        10969 
  164400     2838.578    57567 2.8572579e-12        46565        11002 
  164800    2849.5531    57726 2.865067e-12        46694        11032 
  165200    2860.7739    57913 2.8728776e-12        46856        11057 
  165600    2871.7851    58074 2.8806909e-12        46991        11083 
  166000    2882.4925    58235 2.8885061e-12        47126        11109 
  166400    2893.3363    58407 2.8963245e-12        47276        11131 
  166800    2905.0431    58584 2.9041443e-12        47427        11157 
  167200    2916.3787    58745 2.9119686e-12        47569        11176 
  167600    2927.0888    58888 2.9197962e-12        47691        11197 
  168000     2938.279    59051 2.9276268e-12        47827        11224 
  168400    2949.0023    59215 2.9354601e-12        47965        11250 
  168800    2960.5778    59362 2.9432963e-12        48084        11278 
  169200    2973.1719    59508 2.9511342e-12        48208        11300 
  169600    2984.8621    59662 2.958973e-12        48334        11328 
  170000    2996.7633    59823 2.9668158e-12        48470        11353 
  170400    3009.1561    59981 2.9746603e-12        48595        11386 
  170800     3022.117    60154 2.982506e-12        48738        11416 
  171200    3033.7989    60324 2.9903545e-12        48891        11433 
  171600    3045.2095    60492 2.9982034e-12        49032        11460 
  172000    3056.8222    60646 3.0060548e-12        49166        11480 
  172400    3067.2744    60814 3.0139072e-12        49307        11507 
  172800    3079.3516    60989 3.0217625e-12        49458        11531 
  173200    3090.4078    61159 3.0296193e-12        49608        11551 
  173600    3102.5563    61305 3.0374776e-12        49725        11580 
  174000      3114.14    61472 3.0453393e-12        49861        11611 
  174400    3125.8392    61623 3.0532022e-12        49985        11638 
  174800    3138.6367    61782 3.0610658e-12        50122        11660 
  175200     3151.633    61938 3.0689315e-12        50258        11680 
  175600    3164.7647    62123   3.0768e-12        50411        11712 
  176000    3176.6471    62277 3.0846712e-12        50538        11739 
  176400     3188.663    62434 3.0925423e-12        50670        11764 
  176800      3200.09    62582 3.1004158e-12        50801        11781 
  177200    3211.7328    62752 3.1082918e-12        50940        11812 
  177600    3223.8629    62932 3.1161693e-12        51092        11840 
  178000    3235.2802    63097 3.1240489e-12        51235        11862 
  178400    3248.5211    63256 3.1319297e-12        51367        11889 
  178800     3261.024    63410 3.1398118e-12        51502        11908 
  179200    3272.5943    63578 3.1476961e-12        51644        11934 
  179600    3284.0797    63733 3.1555812e-12        51777        11956 
  180000    3295.6254    63890 3.1634685e-12        51915        11975 
  180400     3306.209    64073 3.1713564e-12        52070        12003 
  180800    3316.8175    64224 3.1792449e-12        52202        12022 
  181200    3327.2123    64376 3.1871362e-12        52332        12044 
  181600    3337.8671    64534 3.1950275e-12        52466        12068 
  182000    3348.6317    64673 3.2029197e-12        52581        12092 
  182400    3359.2811    64839 3.210812e-12        52717        12122 
  182800    3369.5303    64971 3.2187091e-12        52830        12141 
  183200    3379.7709    65095 3.2266062e-12        52927        12168 
  183600      3390.48    65251 3.2345067e-12        53057        12194 
  184000    3402.1295    65399 3.2424071e-12        53177        12222 
  184400    3414.5157    65564 3.2503088e-12        53317        12247 
  184800    3426.1333    65723 3.2582135e-12        53449        12274 
  185200    3437.2858    65900 3.2661186e-12        53593        12307 
  185600    3449.0255    66049 3.2740248e-12        53721        12328 
  186000    3460.7737    66228 3.2819322e-12        53866        12362 
  186400    3472.9211    66398 3.2898404e-12        54008        12390 
  186800    3484.4686    66560 3.2977487e-12        54147        12413 
  187200    3496.3856    66718 3.3056581e-12        54284        12434 
  187600    3507.9421    66866 3.3135682e-12        54411        12455 
  188000    3519.8363    67004 3.3214796e-12        54519        12485 
  188400    3531.2113    67160 3.3293932e-12        54652        12508 
  188800    3542.7256    67307 3.3373084e-12        54770        12537 
  189200    3554.6742    67487 3.3452231e-12        54927        12560 
  189600    3566.0671    67644 3.3531405e-12        55056        12588 
  190000    3577.4879    67807 3.3610597e-12        55198        12609 
  190400    3588.9925    67969 3.3689793e-12        55340        12629 
  190800    3600.7721    68144 3.3768999e-12        55477        12667 
  191200    3612.8084    68297 3.3848204e-12        55608        12689 
  191600    3624.1865    68450 3.392742e-12        55735        12715 
  192000    3636.2102    68623 3.4006646e-12        55882        12741 
Loop time of 3636.21 on 1 procs for 192000 steps with 68623 atoms

Performance: 41059011.660 tau/day, 52.802 timesteps/s
100.0% CPU use with 1 MPI tasks x no OpenMP threads

MPI task timing breakdown:
Section |  min time  |  avg time  |  max time  |%varavg| %total
---------------------------------------------------------------
Pair    | 690.73     | 690.73     | 690.73     |   0.0 | 19.00
Neigh   | 597.31     | 597.31     | 597.31     |   0.0 | 16.43
Comm    | 27.191     | 27.191     | 27.191     |  -nan |  0.75
Output  | 2.5508     | 2.5508     | 2.5508     |   0.0 |  0.07
Modify  | 2261       | 2261       | 2261       |   0.0 | 62.18
Other   |            | 57.45      |            |       |  1.58

Nlocal:    68623 ave 68623 max 68623 min
Histogram: 1 0 0 0 0 0 0 0 0 0
Nghost:    0 ave 0 max 0 min
Histogram: 1 0 0 0 0 0 0 0 0 0
Neighs:    442654 ave 442654 max 442654 min
Histogram: 1 0 0 0 0 0 0 0 0 0

Total # of neighbors = 442654
Ave neighs/atom = 6.45052
Neighbor list builds = 13797
Dangerous builds = 0

Total wall time: 1:00:36
