LAMMPS (5 Nov 2016)
# NUFEB simulation

atom_style	bio
atom_modify	map array sort 100 5.0e-7
boundary	ff ff ff
newton		off
#processors  2 1 1

comm_modify	vel yes
read_data_bio atom.in
  orthogonal box = (0 0 0) to (0.0001 4e-05 0.0001)
  1 by 1 by 1 MPI processor grid
  reading atoms ...
  80 atoms
  3 nutrients

group HET type 1 2
80 atoms in group HET

neighbor	5e-7 bin
neigh_modify	delay 0 one 5000

#pair_style none
pair_style  gran/hooke/history 1.e-4 NULL 1.e-5 NULL 0.0 1

pair_coeff  * *
timestep 9

fix 1 all nve/limit 1e-7

fix fv all viscous 1e-5

fix xw all wall/gran hooke/history 2000 NULL 500.0 NULL 1.5 0 xplane  0.0   1.0e-04
fix yw all wall/gran hooke/history 2000 NULL 500.0 NULL 1.5 0 yplane  0.0   4.0e-05
fix zw all wall/gran hooke/history 2000 NULL 500.0 NULL 1.5 0 zplane  0.0   1.0e-04

variable kanc equal 50

fix xwa all walladh v_kanc xplane  0.0   1.0e-04
fix ywa all walladh v_kanc yplane  0.0   4.0e-05
fix zwa all walladh v_kanc zplane  0.0   1.0e-04

##############Ibm Variable Definitions##############

#Defining EPS density and ratio variables
variable EPSdens equal 30
variable EPSratio equal 1.25
variable divMass equal 7.21e-17

variable ke equal 5e+10

#Defining kinetics variables
variable temp equal 298.15
variable gasTran equal 0.08205746
variable gvol equal 8e-14
variable rth equal 0.0083144
variable pressure equal 1
variable ph equal 7.0

#Defining diffusion variables
variable diffT equal 5e-4
variable tol equal 1e-6
variable bl equal -1
variable shearRate equal 0.0

##############Ibm functions##############

fix k1 all kinetics 400 30 12 30 v_temp v_rth v_gvol v_gasTran v_ph v_diffT v_bl
fix ki2 all kinetics/thermo fix open v_pressure
fix ki1 all kinetics/growth/energy v_EPSdens
fix g1 all kinetics/diffusion v_shearRate v_tol pp pp nd mol
fix d1 all divide 400 v_EPSdens v_divMass 31231

##############Ibm compute##############

compute myNtypes all ntypes

##############Simulation outputs##############

dump		id all custom 4000 snapshot.bubblemd id type diameter x y z
dump            d0 all bio 4000 concentration ntypes ave_concentration DGRAn DGRCat
thermo_style    custom step cpu atoms biomass c_myNtypes[*]
thermo		400
thermo_modify	lost ignore

run 192000
Neighbor list info ...
  2 neighbor list requests
  update every 1 steps, delay 0 steps, check yes
  max neighbors/atom: 5000, page size: 100000
  master list distance cutoff = 1.5e-06
  ghost atom cutoff = 1.5e-06
  binsize = 7.5e-07 -> bins = 134 54 134
Memory usage per processor = 13.5504 Mbytes
Step CPU Atoms biomass c_myNtypes[1] c_myNtypes[2] 
       0            0       80 6.2831853e-15           40           40 
     400     37.47694      160 6.7934106e-15           80           80 
     800    49.201118      160 7.346141e-15           80           80 
    1200    61.215622      160 7.9449113e-15           80           80 
    1600    73.893146      160 8.5934658e-15           80           80 
    2000    87.113317      160 9.2958112e-15           80           80 
    2400    101.39759      172 1.0056226e-14           92           80 
    2800    116.55962      194 1.0879264e-14          114           80 
    3200     132.2368      212 1.1769771e-14          132           80 
    3600    148.71042      239 1.2732874e-14          147           92 
    4000    165.74283      268 1.3773948e-14          160          108 
    4400    183.24343      280 1.4898647e-14          160          120 
    4800    201.38885      292 1.6112875e-14          165          127 
    5200    221.17114      322 1.7422765e-14          182          140 
    5600    241.05285      359 1.8834725e-14          210          149 
    6000    261.42741      396 2.0355117e-14          236          160 
    6400    282.31693      434 2.1990484e-14          274          160 
    6800    303.46183      458 2.3747372e-14          298          160 
    7200    325.00386      472 2.5632244e-14          311          161 
    7600    347.00532      494 2.7651558e-14          329          165 
    8000    369.55838      534 2.9811237e-14          355          179 
    8400    392.97206      580 3.2117053e-14          383          197 
    8800    417.37483      636 3.4574238e-14          426          210 
    9200    442.94779      704 3.7187454e-14          472          232 
    9600    467.66147      767 3.9960493e-14          515          252 
   10000    492.49965      835 4.289603e-14          563          272 
   10400    517.14127      901 4.5996389e-14          611          290 
   10800    541.28853      950 4.9262657e-14          650          300 
   11200    565.00383      994 5.2695251e-14          686          308 
   11600    588.19313     1049 5.6293233e-14          735          314 
   12000    611.04422     1113 6.0054577e-14          788          325 
   12400    633.76811     1178 6.3976488e-14          844          334 
   12800    655.38543     1259 6.805412e-14          915          344 
   13200    676.43303     1370 7.2284907e-14         1006          364 
   13600    696.88358     1460 7.6662723e-14         1071          389 
   14000    716.44788     1549 8.1182569e-14         1139          410 
   14400    735.45542     1649 8.5840064e-14         1215          434 
   14800    753.32491     1760 9.0628766e-14         1289          471 
   15200     770.4064     1855 9.5542254e-14         1355          500 
   15600    786.83276     1944 1.0057419e-13         1419          525 
   16000    802.66687     2036 1.0571848e-13         1486          550 
   16400    817.71957     2132 1.1096864e-13         1563          569 
   16800    832.26784     2226 1.1632076e-13         1647          579 
   17200     846.1817     2321 1.2176776e-13         1724          597 
   17600     860.5357     2438 1.2730582e-13         1825          613 
   18000    873.26747     2578 1.3292753e-13         1943          635 
   18400    885.51278     2711 1.3862958e-13         2059          652 
   18800    897.37166     2816 1.4440811e-13         2151          665 
   19200    908.72381     2922 1.5025821e-13         2243          679 
   19600    919.48993     3019 1.5617467e-13         2314          705 
   20000    930.08628     3141 1.6215516e-13         2411          730 
   20400    940.18808     3284 1.6819609e-13         2521          763 
   20800    950.15321     3414 1.7429663e-13         2618          796 
   21200    959.48813     3521 1.8045065e-13         2697          824 
   21600    968.42184     3643 1.8665478e-13         2785          858 
   22000    977.38468     3755 1.9290798e-13         2867          888 
   22400    985.86339     3877 1.992063e-13         2960          917 
   22800    994.13093     4005 2.0554829e-13         3056          949 
   23200    1002.0177     4143 2.1193151e-13         3161          982 
   23600    1009.6934     4270 2.1835438e-13         3265         1005 
   24000    1017.2835     4413 2.2481527e-13         3375         1038 
   24400    1024.4174     4535 2.3131088e-13         3480         1055 
   24800    1031.2732     4662 2.378393e-13         3585         1077 
   25200    1038.0912     4795 2.4440029e-13         3690         1105 
   25600    1044.7833     4953 2.5099233e-13         3816         1137 
   26000    1051.1569     5084 2.5761393e-13         3925         1159 
   26400    1057.4023     5219  2.64263e-13         4037         1182 
   26800    1063.5959     5352 2.7093993e-13         4142         1210 
   27200    1069.4734     5498 2.7764323e-13         4263         1235 
   27600    1075.3541     5668 2.843719e-13         4403         1265 
   28000     1081.152     5777 2.9112389e-13         4492         1285 
   28400    1086.5049     5910 2.9789719e-13         4605         1305 
   28800    1091.9357     6037 3.0469189e-13         4715         1322 
   29200    1097.2069     6179 3.1150698e-13         4826         1353 
   29600    1102.2909     6319 3.1834167e-13         4930         1389 
   30000    1107.3405     6449 3.2519558e-13         5035         1414 
   30400    1112.2028     6570 3.3206708e-13         5138         1432 
   30800    1117.1117     6705 3.3895677e-13         5250         1455 
   31200    1121.7953     6832 3.4586313e-13         5355         1477 
   31600      1126.53     6967 3.5278628e-13         5465         1502 
   32000    1131.2682     7114 3.5972531e-13         5573         1541 
   32400     1135.888     7235 3.6667969e-13         5664         1571 
   32800    1140.2978     7385 3.7364835e-13         5784         1601 
   33200    1144.5451     7518 3.8063213e-13         5887         1631 
   33600    1148.6874     7667 3.8763002e-13         6000         1667 
   34000    1152.7899     7809 3.9464138e-13         6100         1709 
   34400    1156.6298     7962 4.0166566e-13         6222         1740 
   34800    1160.4102     8097 4.0870217e-13         6328         1769 
   35200    1164.1804     8252 4.1575025e-13         6444         1808 
   35600    1168.0638     8414 4.2281054e-13         6570         1844 
   36000    1172.0164     8538 4.2988237e-13         6664         1874 
   36400    1175.9135     8677 4.3696532e-13         6770         1907 
   36800     1179.645     8822 4.4405963e-13         6881         1941 
   37200    1183.5453     8960 4.511645e-13         6988         1972 
   37600    1186.9819     9088 4.5827883e-13         7096         1992 
   38000    1190.5677     9236 4.6540326e-13         7210         2026 
   38400    1193.9522     9385 4.7253691e-13         7339         2046 
   38800    1197.4717     9541 4.7967936e-13         7469         2072 
   39200    1200.9054     9687 4.8683126e-13         7591         2096 
   39600    1204.1461     9837 4.9399145e-13         7708         2129 
   40000    1207.5918     9984 5.0116055e-13         7825         2159 
   40400    1210.9307    10120 5.0833757e-13         7934         2186 
   40800    1214.2158    10269 5.155227e-13         8055         2214 
   41200    1217.7253    10417 5.227165e-13         8165         2252 
   41600    1220.8364    10562 5.2991718e-13         8283         2279 
   42000    1224.0375    10708 5.3712552e-13         8394         2314 
   42400    1227.6113    10858 5.4434065e-13         8521         2337 
   42800    1230.7467    11004 5.5156247e-13         8636         2368 
   43200    1233.9238    11157 5.5879124e-13         8770         2387 
   43600    1236.9709    11322 5.6602616e-13         8904         2418 
   44000    1240.0291    11482 5.7326702e-13         9035         2447 
   44400    1243.1159    11619 5.8051425e-13         9140         2479 
   44800    1246.1878    11744 5.8776825e-13         9238         2506 
   45200    1249.1645    11906 5.9502859e-13         9367         2539 
   45600    1252.2994    12048 6.0229503e-13         9483         2565 
   46000    1255.2463    12192 6.0956768e-13         9598         2594 
   46400    1258.2848    12351 6.1684523e-13         9735         2616 
   46800    1261.4013    12498 6.2412863e-13         9856         2642 
   47200    1264.2303    12650 6.3141793e-13         9982         2668 
   47600    1267.1344    12805 6.3871254e-13        10100         2705 
   48000    1270.2263    12951 6.4601166e-13        10207         2744 
   48400    1273.2102    13096 6.5331629e-13        10326         2770 
   48800    1275.9799    13249 6.6062471e-13        10449         2800 
   49200    1278.8547    13383 6.6793957e-13        10562         2821 
   49600    1281.6371    13530 6.7525892e-13        10680         2850 
   50000    1284.6134    13651 6.8258292e-13        10777         2874 
   50400    1287.5569    13800 6.8991177e-13        10886         2914 
   50800    1290.4535    13942 6.9724517e-13        11007         2935 
   51200    1293.3992    14085 7.0458343e-13        11123         2962 
   51600    1296.2424    14232 7.1192583e-13        11237         2995 
   52000    1299.1292    14385 7.1927326e-13        11367         3018 
   52400    1302.0613    14542 7.2662436e-13        11487         3055 
   52800    1304.9438    14677 7.3397951e-13        11595         3082 
   53200     1307.567    14828 7.4133858e-13        11719         3109 
   53600    1310.5989    14986 7.4870127e-13        11838         3148 
   54000    1313.6863    15123 7.5606828e-13        11944         3179 
   54400    1316.5676    15260 7.6343911e-13        12046         3214 
   54800    1319.4461    15408 7.7081364e-13        12156         3252 
   55200    1322.2888    15544 7.7819203e-13        12268         3276 
   55600    1325.1363    15684 7.8557377e-13        12387         3297 
   56000    1327.9561    15842 7.9295913e-13        12511         3331 
   56400     1331.039    16002 8.0034841e-13        12635         3367 
   56800    1333.9502    16145 8.0774103e-13        12747         3398 
   57200     1336.973    16296 8.1513743e-13        12865         3431 
   57600    1340.0518    16475 8.2253633e-13        13001         3474 
   58000     1342.677    16626 8.2993866e-13        13127         3499 
   58400    1345.6352    16761 8.3734499e-13        13235         3526 
   58800    1348.3895    16890 8.447548e-13        13343         3547 
   59200    1351.7499    17037 8.5216725e-13        13458         3579 
   59600     1354.796    17187 8.5958305e-13        13579         3608 
   60000    1358.0046    17333 8.6700144e-13        13701         3632 
   60400     1361.307    17478 8.7442279e-13        13811         3667 
   60800     1364.587    17628 8.8184803e-13        13927         3701 
   61200    1367.8188    17780 8.8927488e-13        14040         3740 
   61600    1370.9175    17935 8.9670519e-13        14164         3771 
   62000    1373.7581    18086 9.0413795e-13        14281         3805 
   62400    1376.6526    18236 9.1157395e-13        14390         3846 
   62800     1379.559    18385 9.1901256e-13        14513         3872 
   63200    1382.5215    18537 9.2645269e-13        14636         3901 
   63600    1385.3227    18678 9.3389463e-13        14746         3932 
   64000    1388.4598    18823 9.4134008e-13        14863         3960 
   64400    1391.3769    18977 9.4878815e-13        14990         3987 
   64800    1394.4423    19130 9.562385e-13        15111         4019 
   65200    1397.4812    19271 9.6369128e-13        15225         4046 
   65600    1400.5089    19423 9.7114652e-13        15344         4079 
   66000    1403.4335    19575 9.7860457e-13        15466         4109 
   66400    1406.2839    19715 9.8606482e-13        15579         4136 
   66800    1409.2982    19883 9.9352657e-13        15722         4161 
   67200    1412.5039    20048 1.0009904e-12        15852         4196 
   67600    1415.8888    20211 1.0084565e-12        15982         4229 
   68000    1419.0959    20392 1.0159247e-12        16121         4271 
   68400    1422.2084    20571 1.0233948e-12        16265         4306 
   68800    1425.4004    20743 1.0308662e-12        16410         4333 
   69200    1428.4706    20874 1.0383399e-12        16511         4363 
   69600    1431.6272    21033 1.0458156e-12        16638         4395 
   70000    1434.7898    21194 1.0532935e-12        16770         4424 
   70400    1438.2255    21346 1.0607728e-12        16893         4453 
   70800    1441.3735    21487 1.0682543e-12        17002         4485 
   71200    1444.4959    21627 1.0757374e-12        17117         4510 
   71600    1447.6937    21777 1.083222e-12        17233         4544 
   72000    1450.8565    21918 1.0907087e-12        17349         4569 
   72400    1453.8452    22054 1.0981977e-12        17459         4595 
   72800    1456.9524    22194 1.1056887e-12        17575         4619 
   73200    1460.2648    22349 1.1131821e-12        17702         4647 
   73600    1463.3154    22500 1.1206772e-12        17824         4676 
   74000    1466.6631    22669 1.1281729e-12        17961         4708 
   74400    1470.0184    22812 1.1356714e-12        18077         4735 
   74800    1473.1396    22957 1.1431723e-12        18188         4769 
   75200      1476.48    23109 1.1506746e-12        18308         4801 
   75600    1479.9884    23293 1.1581784e-12        18455         4838 
   76000    1483.3234    23448 1.1656839e-12        18576         4872 
   76400    1486.7174    23594 1.1731908e-12        18693         4901 
   76800    1490.0946    23737 1.1806998e-12        18800         4937 
   77200    1493.6046    23882  1.18821e-12        18918         4964 
   77600    1497.0271    24032 1.195723e-12        19032         5000 
   78000    1500.4852    24161 1.203237e-12        19144         5017 
   78400    1503.9554    24300 1.210752e-12        19253         5047 
   78800    1507.3914    24463 1.2182672e-12        19385         5078 
   79200      1510.85    24625 1.2257848e-12        19519         5106 
   79600    1514.2327    24784 1.2333035e-12        19644         5140 
   80000     1517.703    24924 1.2408248e-12        19755         5169 
   80400     1521.389    25087 1.2483479e-12        19898         5189 
   80800    1524.9776    25241 1.2558729e-12        20022         5219 
   81200    1528.5765    25387 1.2633994e-12        20142         5245 
   81600     1532.081    25535 1.2709284e-12        20263         5272 
   82000    1535.6247    25707 1.2784582e-12        20397         5310 
   82400    1539.3803    25848 1.2859894e-12        20514         5334 
   82800    1543.0656    26008 1.2935222e-12        20642         5366 
   83200    1546.9021    26137 1.3010572e-12        20747         5390 
   83600    1550.6235    26294 1.3085925e-12        20879         5415 
   84000     1554.613    26446 1.3161295e-12        21003         5443 
   84400    1558.5172    26594 1.3236677e-12        21126         5468 
   84800    1562.3257    26757 1.3312084e-12        21258         5499 
   85200    1566.3013    26900 1.3387498e-12        21362         5538 
   85600    1569.9631    27069 1.3462931e-12        21502         5567 
   86000    1573.8857    27223 1.3538393e-12        21623         5600 
   86400    1577.6254    27395 1.3613866e-12        21759         5636 
   86800    1581.6388    27539 1.3689346e-12        21875         5664 
   87200    1585.5157    27693 1.3764844e-12        21995         5698 
   87600    1589.7272    27847 1.3840352e-12        22126         5721 
   88000     1593.823    27988 1.3915879e-12        22241         5747 
   88400     1597.694    28143 1.399142e-12        22366         5777 
   88800    1602.0348    28283 1.4066962e-12        22476         5807 
   89200     1606.129    28423 1.4142528e-12        22588         5835 
   89600      1610.17    28582 1.4218103e-12        22717         5865 
   90000    1614.3859    28744 1.4293688e-12        22846         5898 
   90400    1618.6603    28877 1.4369298e-12        22956         5921 
   90800     1622.675    29027 1.4444938e-12        23074         5953 
   91200    1626.9726    29198 1.4520586e-12        23212         5986 
   91600     1631.188    29352 1.4596255e-12        23329         6023 
   92000    1635.5523    29507 1.4671933e-12        23459         6048 
   92400     1639.739    29677 1.474763e-12        23604         6073 
   92800    1644.0732    29824 1.4823337e-12        23725         6099 
   93200    1648.1928    29983 1.4899065e-12        23851         6132 
   93600    1652.4917    30144 1.497481e-12        23976         6168 
   94000    1656.8969    30297 1.5050579e-12        24102         6195 
   94400    1661.2388    30454 1.5126356e-12        24225         6229 
   94800    1665.4903    30596 1.5202149e-12        24339         6257 
   95200    1669.8363    30752 1.5277953e-12        24466         6286 
   95600    1674.3349    30908 1.5353766e-12        24589         6319 
   96000    1678.7752    31058 1.5429605e-12        24711         6347 
   96400    1683.4075    31231 1.5505457e-12        24850         6381 
   96800    1687.7911    31378 1.5581329e-12        24967         6411 
   97200    1692.1608    31531 1.5657213e-12        25093         6438 
   97600    1696.7666    31676 1.5733112e-12        25210         6466 
   98000    1701.2928    31815 1.5809015e-12        25323         6492 
   98400    1706.0179    31957 1.5884921e-12        25440         6517 
   98800    1710.6428    32098 1.5960843e-12        25543         6555 
   99200    1715.1536    32258 1.6036782e-12        25670         6588 
   99600    1719.8692    32414 1.6112736e-12        25801         6613 
  100000    1724.7226    32573 1.6188696e-12        25928         6645 
  100400    1729.3065    32726 1.6264664e-12        26048         6678 
  100800    1734.0662    32859 1.6340655e-12        26149         6710 
  101200    1738.8933    33013 1.641666e-12        26266         6747 
  101600    1743.8317    33162 1.6492674e-12        26386         6776 
  102000    1748.9494    33323 1.656869e-12        26524         6799 
  102400    1753.9856    33470 1.6644724e-12        26642         6828 
  102800    1758.9232    33637 1.6720768e-12        26771         6866 
  103200    1763.7701    33809 1.6796835e-12        26912         6897 
  103600    1768.7211    33977 1.6872918e-12        27056         6921 
  104000    1773.7138    34124 1.6949013e-12        27176         6948 
  104400    1778.5635    34293 1.7025119e-12        27320         6973 
  104800    1783.7379    34433 1.7101255e-12        27427         7006 
  105200    1788.7767    34601 1.7177389e-12        27565         7036 
  105600     1794.069    34755 1.7253541e-12        27689         7066 
  106000     1799.025    34911 1.7329702e-12        27825         7086 
  106400    1804.2567    35078 1.7405863e-12        27959         7119 
  106800    1809.5561    35234 1.7482059e-12        28090         7144 
  107200    1814.6016    35401 1.7558264e-12        28231         7170 
  107600    1819.6719    35524 1.7634478e-12        28330         7194 
  108000    1825.0723    35662 1.7710713e-12        28441         7221 
  108400    1830.2258    35816 1.7786965e-12        28563         7253 
  108800    1835.4701    35965 1.7863255e-12        28681         7284 
  109200    1840.7483    36121 1.7939558e-12        28808         7313 
  109600    1846.4194    36285 1.8015872e-12        28942         7343 
  110000    1851.9192    36421 1.8092195e-12        29054         7367 
  110400    1857.2996    36579 1.8168539e-12        29179         7400 
  110800    1862.5936    36713 1.8244913e-12        29287         7426 
  111200    1868.2715    36871 1.8321307e-12        29419         7452 
  111600    1873.7375    37025 1.8397717e-12        29546         7479 
  112000    1879.4361    37190 1.8474136e-12        29683         7507 
  112400    1884.9533    37348 1.8550583e-12        29818         7530 
  112800    1890.2367    37503 1.8627033e-12        29947         7556 
  113200    1895.0761    37650 1.8703509e-12        30072         7578 
  113600    1900.1091    37827 1.8779976e-12        30206         7621 
  114000    1905.1487    37964 1.8856466e-12        30321         7643 
  114400    1910.2142    38110 1.8932968e-12        30441         7669 
  114800     1915.715    38286 1.9009482e-12        30584         7702 
  115200    1921.0291    38427 1.9086019e-12        30696         7731 
  115600    1926.1568    38585 1.9162572e-12        30827         7758 
  116000    1931.3152    38765 1.9239138e-12        30979         7786 
  116400    1936.5779    38943 1.9315723e-12        31124         7819 
  116800    1942.1394    39102 1.939234e-12        31268         7834 
  117200    1947.6305    39263 1.9468986e-12        31398         7865 
  117600    1952.9361    39416 1.9545634e-12        31521         7895 
  118000    1958.1415    39591 1.9622289e-12        31663         7928 
  118400    1963.8913    39752 1.9698975e-12        31792         7960 
  118800    1969.3297    39912 1.9775675e-12        31925         7987 
  119200    1974.6886    40081 1.9852393e-12        32061         8020 
  119600    1980.3767    40247 1.9929128e-12        32190         8057 
  120000    1986.0575    40423 2.0005888e-12        32329         8094 
  120400    1991.6718    40554 2.0082668e-12        32441         8113 
  120800    1997.0981    40706 2.0159459e-12        32563         8143 
  121200    2002.5671    40853 2.0236275e-12        32676         8177 
  121600    2007.9525    41008 2.0313111e-12        32802         8206 
  122000    2013.4092    41142 2.0389947e-12        32911         8231 
  122400    2018.9704    41288 2.0466792e-12        33027         8261 
  122800    2024.5843    41450 2.0543659e-12        33153         8297 
  123200    2030.4365    41592 2.0620526e-12        33267         8325 
  123600    2036.1779    41725 2.0697418e-12        33376         8349 
  124000     2041.927    41866 2.0774337e-12        33497         8369 
  124400     2047.532    42005 2.0851278e-12        33602         8403 
  124800    2053.3953    42142 2.0928231e-12        33714         8428 
  125200    2059.0044    42279 2.1005201e-12        33826         8453 
  125600    2064.7748    42453 2.1082164e-12        33971         8482 
  126000    2070.6749    42618 2.1159171e-12        34109         8509 
  126400    2076.3886    42773 2.1236182e-12        34237         8536 
  126800    2082.1044    42923 2.131321e-12        34354         8569 
  127200    2087.9145    43099 2.1390261e-12        34491         8608 
  127600    2093.8099    43256 2.1467324e-12        34620         8636 
  128000    2099.7923    43384 2.1544405e-12        34721         8663 
  128400    2105.4159    43534 2.1621501e-12        34836         8698 
  128800    2111.3732    43692 2.1698619e-12        34972         8720 
  129200    2117.3095    43843 2.1775746e-12        35099         8744 
  129600    2123.4761    43975 2.1852884e-12        35214         8761 
  130000    2129.4646    44116 2.1930052e-12        35333         8783 
  130400    2135.3063    44267 2.2007231e-12        35458         8809 
  130800    2141.2734    44413 2.2084411e-12        35573         8840 
  131200    2147.2495    44590 2.216161e-12        35731         8859 
  131600    2153.4654    44735 2.2238838e-12        35855         8880 
  132000    2159.6559    44889 2.2316087e-12        35981         8908 
  132400    2165.6928    45038 2.2393345e-12        36104         8934 
  132800    2171.6789    45185 2.247062e-12        36227         8958 
  133200     2177.738    45366 2.2547915e-12        36370         8996 
  133600    2183.8607    45513 2.2625224e-12        36491         9022 
  134000    2189.9642    45666 2.2702547e-12        36608         9058 
  134400    2195.8877    45803 2.277988e-12        36723         9080 
  134800    2201.9149    45963 2.2857221e-12        36862         9101 
  135200    2208.0097    46114 2.2934587e-12        36983         9131 
  135600    2214.1872    46282 2.3011965e-12        37115         9167 
  136000    2220.6227    46449 2.3089363e-12        37243         9206 
  136400    2226.8938    46591 2.3166792e-12        37358         9233 
  136800    2233.0018    46717 2.3244224e-12        37469         9248 
  137200    2239.2622    46879 2.3321672e-12        37602         9277 
  137600     2245.658    47036 2.3399128e-12        37726         9310 
  138000    2251.9098    47215 2.3476595e-12        37872         9343 
  138400    2258.1717    47382 2.355408e-12        38011         9371 
  138800    2264.5374    47537 2.3631574e-12        38135         9402 
  139200    2270.8516    47706 2.3709088e-12        38273         9433 
  139600    2277.1885    47855 2.3786619e-12        38397         9458 
  140000    2283.7273    48020 2.386417e-12        38536         9484 
  140400    2289.9566    48198 2.3941727e-12        38681         9517 
  140800    2296.5211    48369 2.4019297e-12        38821         9548 
  141200     2302.954    48511 2.4096882e-12        38929         9582 
  141600     2309.353    48676 2.4174476e-12        39061         9615 
  142000    2315.9272    48846 2.4252068e-12        39195         9651 
  142400    2322.4953    48995 2.4329699e-12        39318         9677 
  142800     2328.905    49147 2.4407339e-12        39448         9699 
  143200    2335.3667    49296 2.4484979e-12        39572         9724 
  143600    2341.8938    49472 2.4562627e-12        39725         9747 
  144000     2348.689    49639 2.4640295e-12        39854         9785 
  144400     2355.114    49794 2.4717973e-12        39979         9815 
  144800    2361.6106    49941 2.4795653e-12        40102         9839 
  145200    2368.1717    50101 2.4873333e-12        40236         9865 
  145600    2375.0137    50257 2.4951028e-12        40363         9894 
  146000    2381.5231    50424 2.5028734e-12        40497         9927 
  146400    2388.3208    50584 2.5106444e-12        40635         9949 
  146800    2395.0224    50736 2.518419e-12        40757         9979 
  147200    2401.7214    50888 2.5261932e-12        40872        10016 
  147600    2408.1402    51031 2.5339686e-12        40989        10042 
  148000    2415.0435    51180 2.5417449e-12        41109        10071 
  148400    2421.8449    51327 2.5495222e-12        41230        10097 
  148800    2428.4326    51491 2.5573005e-12        41360        10131 
  149200    2435.3006    51643 2.5650793e-12        41487        10156 
  149600    2442.2251    51816 2.5728609e-12        41631        10185 
  150000    2449.0486    51983 2.5806445e-12        41764        10219 
  150400    2456.0677    52131 2.588429e-12        41880        10251 
  150800    2463.0489    52284 2.596215e-12        41997        10287 
  151200     2470.098    52427 2.6040011e-12        42106        10321 
  151600     2476.976    52582 2.611789e-12        42242        10340 
  152000    2484.2757    52743 2.6195786e-12        42378        10365 
  152400    2491.4246    52888 2.6273686e-12        42494        10394 
  152800    2498.4585    53057 2.6351623e-12        42627        10430 
  153200    2505.8952    53216 2.6429576e-12        42746        10470 
  153600    2513.0723    53360 2.6507536e-12        42863        10497 
  154000    2520.4294    53513 2.6585511e-12        42995        10518 
  154400    2527.9764    53654 2.6663496e-12        43117        10537 
  154800    2535.2361    53816 2.6741506e-12        43256        10560 
  155200    2542.7227    53989 2.681952e-12        43397        10592 
  155600    2550.1004    54160 2.6897544e-12        43532        10628 
  156000    2557.5541    54316 2.6975599e-12        43659        10657 
  156400    2565.2729    54460 2.7053654e-12        43784        10676 
  156800    2572.6054    54634 2.7131743e-12        43926        10708 
  157200    2580.3449    54803 2.720983e-12        44069        10734 
  157600    2588.2587    54932 2.7287936e-12        44174        10758 
  158000    2596.0534    55092 2.7366059e-12        44304        10788 
  158400    2604.1181    55242 2.7444202e-12        44428        10814 
  158800      2612.25    55404 2.7522386e-12        44563        10841 
  159200     2620.366    55587 2.7600585e-12        44720        10867 
  159600     2628.679    55741 2.7678808e-12        44845        10896 
  160000    2637.0087    55899 2.7757059e-12        44976        10923 
  160400    2645.1644    56065 2.7835349e-12        45109        10956 
  160800    2653.2937    56232 2.7913667e-12        45249        10983 
  161200    2661.6349    56400 2.7992008e-12        45394        11006 
  161600    2670.0701    56576 2.8070398e-12        45545        11031 
  162000     2678.573    56731 2.8148828e-12        45675        11056 
  162400    2687.3068    56895 2.8227291e-12        45808        11087 
  162800    2695.8049    57040 2.8305786e-12        45928        11112 
  163200     2704.337    57184 2.8384317e-12        46049        11135 
  163600     2712.786    57340 2.8462853e-12        46182        11158 
  164000    2721.4347    57499 2.854141e-12        46313        11186 
  164400    2730.1416    57654 2.8620018e-12        46450        11204 
  164800    2738.8521    57832 2.8698655e-12        46596        11236 
  165200    2747.4209    57971 2.8777313e-12        46715        11256 
  165600    2755.8967    58144 2.8855985e-12        46857        11287 
  166000    2764.6084    58308 2.8934676e-12        46994        11314 
  166400    2773.2984    58463 2.9013396e-12        47125        11338 
  166800    2781.7977    58613 2.9092141e-12        47253        11360 
  167200    2790.5026    58761 2.9170927e-12        47381        11380 
  167600    2799.1918    58917 2.9249744e-12        47500        11417 
  168000    2808.0246    59091 2.9328581e-12        47649        11442 
  168400    2816.8326    59253 2.9407433e-12        47787        11466 
  168800    2825.6257    59428 2.9486303e-12        47929        11499 
  169200    2834.3686    59590 2.9565195e-12        48058        11532 
  169600    2843.1052    59738 2.9644105e-12        48184        11554 
  170000    2851.8615    59881 2.9723026e-12        48300        11581 
  170400    2860.5272    60035 2.9801981e-12        48428        11607 
  170800     2869.205    60198 2.9880962e-12        48559        11639 
  171200    2878.2316    60328 2.9959963e-12        48669        11659 
  171600    2886.7297    60496 3.0038993e-12        48805        11691 
  172000    2895.7476    60669 3.0118052e-12        48951        11718 
  172400    2904.9711    60842 3.0197121e-12        49092        11750 
  172800    2913.6029    60986 3.0276204e-12        49217        11769 
  173200    2922.1985    61161 3.0355331e-12        49370        11791 
  173600    2931.3137    61324 3.0434466e-12        49506        11818 
  174000     2940.088    61486 3.0513613e-12        49633        11853 
  174400    2948.9995    61635 3.0592788e-12        49759        11876 
  174800    2957.9348    61784 3.0672003e-12        49885        11899 
  175200    2966.5691    61949 3.0751233e-12        50018        11931 
  175600    2975.2081    62123 3.0830479e-12        50157        11966 
  176000     2984.063    62278 3.0909747e-12        50286        11992 
  176400    2992.8703    62424 3.0989044e-12        50400        12024 
  176800    3001.7659    62571 3.106835e-12        50519        12052 
  177200    3010.4344    62742 3.1147685e-12        50660        12082 
  177600    3019.3252    62916 3.122704e-12        50806        12110 
  178000    3028.4073    63069 3.1306407e-12        50925        12144 
  178400    3037.0123    63224 3.1385795e-12        51061        12163 
  178800    3045.9571    63388 3.1465209e-12        51200        12188 
  179200    3054.7895    63530 3.1544642e-12        51317        12213 
  179600    3063.6073    63687 3.1624105e-12        51451        12236 
  180000    3072.7233    63823 3.170358e-12        51567        12256 
  180400    3081.5352    63982 3.1783068e-12        51692        12290 
  180800    3090.7255    64154 3.1862586e-12        51827        12327 
  181200    3099.6758    64335 3.1942104e-12        51983        12352 
  181600    3108.9713    64484 3.2021636e-12        52109        12375 
  182000    3117.8241    64676 3.2101179e-12        52271        12405 
  182400    3126.8566    64859 3.2180748e-12        52409        12450 
  182800    3135.9531    65003 3.2260334e-12        52532        12471 
  183200    3144.9038    65160 3.2339941e-12        52666        12494 
  183600    3154.0212    65321 3.2419562e-12        52808        12513 
  184000    3163.2783    65499 3.2499202e-12        52952        12547 
  184400    3172.3742    65657 3.2578857e-12        53092        12565 
  184800    3181.5531    65851 3.2658526e-12        53256        12595 
  185200    3190.8797    66014 3.273822e-12        53393        12621 
  185600    3199.8228    66176 3.281793e-12        53532        12644 
  186000    3209.1314    66345 3.2897644e-12        53674        12671 
  186400    3218.3395    66510 3.2977372e-12        53812        12698 
  186800    3227.7265    66662 3.3057123e-12        53944        12718 
  187200     3236.876    66801 3.3136897e-12        54065        12736 
  187600    3245.9372    66962 3.3216681e-12        54198        12764 
  188000    3255.0695    67098 3.3296481e-12        54319        12779 
  188400    3264.4487    67252 3.3376292e-12        54454        12798 
  188800    3273.7193    67420 3.3456126e-12        54593        12827 
  189200     3282.886    67572 3.3535967e-12        54715        12857 
  189600    3292.1491    67709 3.3615822e-12        54825        12884 
  190000    3301.5979    67854 3.369568e-12        54947        12907 
  190400    3311.2768    68019 3.3775543e-12        55077        12942 
  190800    3320.7264    68178 3.3855421e-12        55211        12967 
  191200    3330.1997    68350 3.3935333e-12        55366        12984 
  191600    3339.7319    68495 3.4015254e-12        55491        13004 
  192000    3349.4088    68655 3.4095181e-12        55634        13021 
Loop time of 3349.41 on 1 procs for 192000 steps with 68655 atoms

Performance: 44574790.111 tau/day, 57.324 timesteps/s
100.0% CPU use with 1 MPI tasks x no OpenMP threads

MPI task timing breakdown:
Section |  min time  |  avg time  |  max time  |%varavg| %total
---------------------------------------------------------------
Pair    | 660.43     | 660.43     | 660.43     |   0.0 | 19.72
Neigh   | 572.8      | 572.8      | 572.8      |   0.0 | 17.10
Comm    | 25.746     | 25.746     | 25.746     |   0.0 |  0.77
Output  | 4.6889     | 4.6889     | 4.6889     |   0.0 |  0.14
Modify  | 2033.6     | 2033.6     | 2033.6     |   0.0 | 60.72
Other   |            | 52.14      |            |       |  1.56

Nlocal:    68655 ave 68655 max 68655 min
Histogram: 1 0 0 0 0 0 0 0 0 0
Nghost:    0 ave 0 max 0 min
Histogram: 1 0 0 0 0 0 0 0 0 0
Neighs:    443550 ave 443550 max 443550 min
Histogram: 1 0 0 0 0 0 0 0 0 0

Total # of neighbors = 443550
Ave neighs/atom = 6.46056
Neighbor list builds = 13793
Dangerous builds = 0

Total wall time: 0:55:49
