ITEM: TIMESTEP
0
ITEM: NUMBER OF ATOMS
12
ITEM: BOX BOUNDS ff ff ff
0.0000000000000000e+00 1.0000000000000000e-04
0.0000000000000000e+00 1.0000000000000000e-04
0.0000000000000000e+00 1.0000000000000000e-04
ITEM: ATOMS id type diameter x y z 
1 1 9.66e-07 5e-05 1.03e-05 5e-07 
2 2 9.66e-07 5e-05 1.36e-05 5e-07 
3 3 9.66e-07 5e-05 2.49e-05 5e-07 
4 1 9.66e-07 5e-05 3.32e-05 5e-07 
5 2 9.66e-07 5e-05 3.65e-05 5e-07 
6 3 9.66e-07 5e-05 4.9e-05 5e-07 
7 1 9.66e-07 5e-05 5.81e-05 5e-07 
8 2 9.66e-07 5e-05 6.14e-05 5e-07 
9 3 9.66e-07 5e-05 7.47e-05 5e-07 
10 1 9.66e-07 5e-05 8.3e-05 5e-07 
11 2 9.66e-07 5e-05 8.63e-05 5e-07 
12 3 9.66e-07 5e-05 9.4e-05 5e-07 
ITEM: TIMESTEP
20
ITEM: NUMBER OF ATOMS
31
ITEM: BOX BOUNDS ff ff ff
0.0000000000000000e+00 1.0000000000000000e-04
0.0000000000000000e+00 1.0000000000000000e-04
0.0000000000000000e+00 1.0000000000000000e-04
ITEM: ATOMS id type diameter x y z 
1 1 9.88295e-07 5.04422e-05 1.0463e-05 7.7225e-07 
2 2 8.48609e-07 4.97529e-05 1.35803e-05 9.40658e-07 
3 3 9.22746e-07 5.027e-05 2.45455e-05 7.69159e-07 
4 1 9.89207e-07 4.98629e-05 3.30535e-05 1.01465e-06 
5 2 8.39509e-07 5.01333e-05 3.65689e-05 4.14608e-07 
6 3 9.63558e-07 5.00767e-05 4.91105e-05 4.76593e-07 
7 1 8.99127e-07 4.98059e-05 5.77598e-05 9.5106e-07 
8 2 8.03476e-07 5.00963e-05 6.17476e-05 3.92266e-07 
9 3 9.17498e-07 4.97416e-05 7.42476e-05 6.26532e-07 
10 1 7.74977e-07 4.96696e-05 8.3186e-05 5.93443e-07 
11 2 8.19e-07 4.98765e-05 8.62387e-05 9.73114e-07 
12 3 9.90275e-07 4.97595e-05 9.44406e-05 5.69177e-07 
13 1 8.81725e-07 4.96482e-05 1.02116e-05 9.43141e-07 
14 3 7.63247e-07 4.95266e-05 2.50242e-05 7.37904e-07 
15 1 8.28814e-07 5.04786e-05 3.34359e-05 4.14741e-07 
16 3 9.91244e-07 4.9878e-05 4.88243e-05 1.03171e-06 
17 1 9.69918e-07 5.00921e-05 5.85778e-05 7.22222e-07 
18 3 7.60338e-07 4.98804e-05 7.49236e-05 6.22212e-07 
19 1 7.6457e-07 5.07983e-05 8.30047e-05 3.81665e-07 
20 3 9.64569e-07 5.02134e-05 9.36091e-05 4.79001e-07 
21 2 8.17883e-07 5.01877e-05 1.3615e-05 4.03324e-07 
22 2 8.29912e-07 4.98313e-05 3.64128e-05 9.59537e-07 
23 2 8.63737e-07 4.98922e-05 6.10111e-05 7.41386e-07 
24 2 8.49226e-07 5.01e-05 8.63496e-05 4.18753e-07 
25 1 7.99671e-07 5.00365e-05 5.7709e-05 3.925e-07 
26 1 7.93513e-07 4.96767e-05 1.01439e-05 3.82313e-07 
27 1 8.4964e-07 4.97161e-05 3.31626e-05 5.95808e-07 
28 3 8.61029e-07 5.00754e-05 2.53455e-05 4.30128e-07 
29 3 8.69168e-07 5.05777e-05 7.5215e-05 4.34072e-07 
30 1 8.65394e-07 5.01186e-05 8.33207e-05 6.71766e-07 
31 1 8.3881e-07 4.93669e-05 8.24696e-05 4.13893e-07 
ITEM: TIMESTEP
40
ITEM: NUMBER OF ATOMS
56
ITEM: BOX BOUNDS ff ff ff
0.0000000000000000e+00 1.0000000000000000e-04
0.0000000000000000e+00 1.0000000000000000e-04
0.0000000000000000e+00 1.0000000000000000e-04
ITEM: ATOMS id type diameter x y z 
1 1 8.51307e-07 5.01537e-05 1.03148e-05 5.74493e-07 
2 2 9.27074e-07 4.96239e-05 1.357e-05 1.09311e-06 
3 3 9.72963e-07 5.03019e-05 2.48009e-05 7.59863e-07 
4 1 9.83878e-07 4.99061e-05 3.25871e-05 1.35082e-06 
5 2 9.16917e-07 5.01303e-05 3.65673e-05 4.51259e-07 
6 3 9.7772e-07 4.96753e-05 4.92882e-05 4.8142e-07 
7 1 8.95018e-07 4.97572e-05 5.776e-05 1.52057e-06 
8 2 8.77517e-07 5.01036e-05 6.1774e-05 4.39391e-07 
9 3 8.98652e-07 4.95083e-05 7.40654e-05 1.0673e-06 
10 1 1.01027e-06 4.95259e-05 8.32705e-05 5.8147e-07 
11 2 8.94162e-07 4.97998e-05 8.62006e-05 1.15386e-06 
12 3 8.38709e-07 4.96286e-05 9.38884e-05 6.08694e-07 
13 1 8.92642e-07 4.95451e-05 1.0184e-05 7.08591e-07 
14 3 9.70413e-07 4.93761e-05 2.49318e-05 8.26506e-07 
15 1 8.4021e-07 5.08016e-05 3.32891e-05 7.5904e-07 
16 3 8.28812e-07 4.97979e-05 4.84008e-05 4.96648e-07 
17 1 9.69974e-07 4.99068e-05 5.856e-05 1.19763e-06 
18 3 9.66691e-07 4.97385e-05 7.50269e-05 6.32387e-07 
19 1 9.96704e-07 5.07943e-05 8.301e-05 4.92963e-07 
20 3 9.19502e-07 5.02033e-05 9.3305e-05 9.37464e-07 
21 2 8.93506e-07 5.01929e-05 1.36154e-05 4.46245e-07 
22 2 9.06435e-07 4.9735e-05 3.6363e-05 1.1276e-06 
23 2 9.43331e-07 4.98823e-05 6.09753e-05 7.56433e-07 
24 2 9.27162e-07 5.01084e-05 8.63538e-05 4.63159e-07 
25 1 8.21015e-07 5.03377e-05 5.79346e-05 6.55867e-07 
26 1 8.51884e-07 4.93998e-05 1.04255e-05 6.51892e-07 
27 1 9.01334e-07 4.96112e-05 3.31412e-05 9.19298e-07 
28 3 8.31287e-07 4.97171e-05 2.52957e-05 4.33205e-07 
29 3 8.21076e-07 5.07377e-05 7.52926e-05 4.04934e-07 
30 1 9.41817e-07 5.01562e-05 8.29111e-05 6.88992e-07 
31 1 9.15007e-07 4.92433e-05 8.26571e-05 4.52776e-07 
32 1 9.93995e-07 5.10198e-05 1.03824e-05 7.45481e-07 
33 1 8.87039e-07 4.9966e-05 3.38923e-05 7.72928e-07 
34 3 9.69396e-07 4.95793e-05 9.4823e-05 4.83427e-07 
35 3 9.34865e-07 5.00418e-05 4.91673e-05 1.3045e-06 
36 1 8.18258e-07 5.00356e-05 5.83786e-05 4.21472e-07 
37 3 9.66905e-07 5.05381e-05 4.89055e-05 5.40301e-07 
38 3 7.62468e-07 4.9916e-05 9.36143e-05 5.75991e-07 
39 3 8.85253e-07 5.03045e-05 2.40001e-05 8.84197e-07 
40 3 9.51548e-07 4.99044e-05 7.42394e-05 4.62425e-07 
41 1 9.63101e-07 4.96845e-05 5.7718e-05 6.72374e-07 
42 1 9.31077e-07 4.96016e-05 1.01887e-05 1.53607e-06 
43 1 8.43608e-07 5.02452e-05 8.37934e-05 7.86482e-07 
44 3 9.26731e-07 5.04289e-05 7.5138e-05 9.50465e-07 
45 1 8.55676e-07 4.96444e-05 3.30413e-05 4.27848e-07 
46 3 9.03499e-07 5.04972e-05 2.55097e-05 5.28114e-07 
47 1 8.15035e-07 4.95134e-05 8.22905e-05 8.64778e-07 
48 1 8.74214e-07 5.01781e-05 3.35684e-05 4.30043e-07 
49 3 8.50544e-07 4.95054e-05 4.83524e-05 1.25508e-06 
50 1 7.90512e-07 4.98034e-05 3.3167e-05 1.07311e-06 
51 1 8.13908e-07 5.01791e-05 1.0972e-05 1.05739e-06 
52 1 8.33689e-07 4.97314e-05 5.74797e-05 4.17593e-07 
53 3 7.90969e-07 4.99946e-05 9.44626e-05 1.0459e-06 
54 1 7.87594e-07 4.99256e-05 9.89005e-06 3.93305e-07 
55 1 8.24708e-07 5.049e-05 5.90306e-05 5.76754e-07 
56 3 8.54386e-07 5.05397e-05 9.41004e-05 4.37527e-07 
ITEM: TIMESTEP
60
ITEM: NUMBER OF ATOMS
114
ITEM: BOX BOUNDS ff ff ff
0.0000000000000000e+00 1.0000000000000000e-04
0.0000000000000000e+00 1.0000000000000000e-04
0.0000000000000000e+00 1.0000000000000000e-04
ITEM: ATOMS id type diameter x y z 
1 1 8.54332e-07 5.04717e-05 1.0028e-05 5.14517e-07 
2 2 8.39908e-07 4.97508e-05 1.38117e-05 9.6755e-07 
3 3 9.61144e-07 5.04671e-05 2.49005e-05 4.6977e-07 
4 1 9.98215e-07 5.00649e-05 3.2403e-05 9.94958e-07 
5 2 1.00225e-06 5.01305e-05 3.65674e-05 4.91349e-07 
6 3 9.98954e-07 4.97193e-05 4.96496e-05 8.04271e-07 
7 1 9.70481e-07 4.96954e-05 5.8015e-05 1.38154e-06 
8 2 9.59111e-07 5.01116e-05 6.18028e-05 4.73305e-07 
9 3 8.90445e-07 4.95231e-05 7.41376e-05 1.6339e-06 
10 1 9.86297e-07 4.96548e-05 8.36337e-05 7.18691e-07 
11 2 9.76969e-07 4.972e-05 8.61577e-05 1.33153e-06 
12 3 8.35615e-07 4.95272e-05 9.41705e-05 4.104e-07 
13 1 9.48408e-07 4.97951e-05 1.03906e-05 7.59543e-07 
14 3 9.28712e-07 4.93706e-05 2.49245e-05 1.34842e-06 
15 1 8.29162e-07 5.08989e-05 3.33321e-05 1.24404e-06 
16 3 8.41937e-07 4.96309e-05 4.84694e-05 8.06851e-07 
17 1 8.10891e-07 4.95215e-05 5.91037e-05 1.15145e-06 
18 3 9.54417e-07 4.94994e-05 7.542e-05 9.18855e-07 
19 1 9.63095e-07 5.04869e-05 8.31968e-05 4.81413e-07 
20 3 9.08066e-07 4.99127e-05 9.30837e-05 8.56633e-07 
21 2 9.76818e-07 5.01939e-05 1.36154e-05 4.86987e-07 
22 2 9.90789e-07 4.96353e-05 3.63116e-05 1.29318e-06 
23 2 7.95251e-07 4.95884e-05 6.11646e-05 9.11744e-07 
24 2 7.81599e-07 5.02472e-05 8.62303e-05 3.79454e-07 
25 1 8.93558e-07 5.09182e-05 5.78681e-05 5.07653e-07 
26 1 8.52214e-07 4.92292e-05 1.04149e-05 4.26614e-07 
27 1 9.32167e-07 5.00216e-05 3.31156e-05 9.01961e-07 
28 3 8.41977e-07 4.97295e-05 2.56386e-05 7.43177e-07 
29 3 8.69692e-07 5.08136e-05 7.48672e-05 4.64075e-07 
30 1 7.5917e-07 5.01153e-05 8.25595e-05 1.29662e-06 
31 1 1.00253e-06 4.92102e-05 8.24703e-05 9.67069e-07 
32 1 8.43295e-07 5.16399e-05 1.07637e-05 5.56635e-07 
33 1 8.50519e-07 4.96577e-05 3.38047e-05 1.01533e-06 
34 3 1.01172e-06 4.92556e-05 9.52831e-05 6.06968e-07 
35 3 9.28058e-07 5.03456e-05 4.89658e-05 1.76432e-06 
36 1 8.30763e-07 5.02115e-05 5.81585e-05 4.02723e-07 
37 3 9.96606e-07 5.05283e-05 4.85679e-05 9.80775e-07 
38 3 9.68577e-07 4.9974e-05 9.35654e-05 4.83529e-07 
39 3 8.69472e-07 5.00815e-05 2.41516e-05 7.81821e-07 
40 3 9.8241e-07 4.97219e-05 7.39063e-05 4.90994e-07 
41 1 9.47708e-07 5.00592e-05 5.75299e-05 8.76158e-07 
42 1 9.73937e-07 4.94443e-05 9.89102e-06 1.48602e-06 
43 1 8.12809e-07 5.04511e-05 8.39989e-05 4.64856e-07 
44 3 8.84851e-07 5.01141e-05 7.50145e-05 1.23179e-06 
45 1 9.1185e-07 4.98936e-05 3.29523e-05 7.63586e-07 
46 3 9.24893e-07 5.02482e-05 2.55579e-05 7.99045e-07 
47 1 8.56353e-07 4.97395e-05 8.23325e-05 5.59021e-07 
48 1 8.94895e-07 5.03603e-05 3.35999e-05 4.39227e-07 
49 3 8.18464e-07 4.96819e-05 4.84198e-05 1.74356e-06 
50 1 8.52544e-07 4.9767e-05 3.32304e-05 1.64574e-06 
51 1 8.14846e-07 4.99388e-05 1.09063e-05 1.35556e-06 
52 1 8.93877e-07 4.97697e-05 5.71163e-05 7.56739e-07 
53 3 1.00478e-06 5.00542e-05 9.44774e-05 1.2275e-06 
54 1 7.97524e-07 5.01271e-05 1.00137e-05 3.93578e-07 
55 1 8.20574e-07 5.02758e-05 5.89961e-05 6.57616e-07 
56 3 8.90066e-07 5.03509e-05 9.38547e-05 7.41499e-07 
57 1 8.39028e-07 4.96127e-05 8.31438e-05 4.86477e-07 
58 1 8.61112e-07 5.12279e-05 8.28025e-05 4.24807e-07 
59 1 8.60766e-07 5.0692e-05 9.72722e-06 1.17685e-06 
60 1 7.78998e-07 4.99777e-05 3.28082e-05 2.09399e-06 
61 3 9.72267e-07 4.96095e-05 4.90901e-05 4.80578e-07 
62 3 1.00023e-06 5.01953e-05 2.46748e-05 1.22424e-06 
63 3 8.28377e-07 4.92069e-05 2.48009e-05 4.09265e-07 
64 1 9.85468e-07 5.03448e-05 5.86139e-05 1.52458e-06 
65 3 9.94098e-07 4.98121e-05 7.47703e-05 4.89527e-07 
66 3 9.40475e-07 4.98013e-05 9.45385e-05 4.67522e-07 
67 3 9.52156e-07 5.0615e-05 4.91032e-05 4.69526e-07 
68 1 7.76761e-07 4.91152e-05 5.82851e-05 5.0104e-07 
69 1 9.08631e-07 5.02997e-05 8.28411e-05 4.53046e-07 
70 3 9.35217e-07 5.01668e-05 7.44804e-05 7.04472e-07 
71 3 9.56673e-07 4.98774e-05 4.92409e-05 1.17139e-06 
72 1 9.48123e-07 4.98312e-05 1.0521e-05 1.9219e-06 
73 1 8.78573e-07 4.92099e-05 8.28099e-05 4.30047e-07 
74 3 9.79137e-07 5.08494e-05 7.52799e-05 1.03772e-06 
75 3 9.45364e-07 5.06633e-05 9.33348e-05 1.27401e-06 
76 1 9.28809e-07 4.90332e-05 3.31765e-05 9.96073e-07 
77 1 8.72239e-07 4.97711e-05 5.74153e-05 1.92851e-06 
78 3 9.21157e-07 4.93448e-05 7.40127e-05 8.18146e-07 
79 1 8.92974e-07 4.91686e-05 9.77448e-06 7.93657e-07 
80 3 8.96738e-07 5.08645e-05 2.56808e-05 4.47395e-07 
81 1 9.72787e-07 5.01897e-05 3.43568e-05 6.19112e-07 
82 3 9.15173e-07 5.05974e-05 2.34839e-05 9.03561e-07 
83 1 9.09968e-07 5.00259e-05 3.36118e-05 8.60533e-07 
84 1 8.52896e-07 4.93842e-05 3.30743e-05 4.14188e-07 
85 1 9.02075e-07 5.01536e-05 1.07982e-05 5.65249e-07 
86 1 9.05092e-07 4.93715e-05 1.06715e-05 1.05184e-06 
87 1 9.22142e-07 5.02503e-05 8.38469e-05 1.26577e-06 
88 1 9.02516e-07 5.09383e-05 3.31371e-05 4.5074e-07 
89 2 8.40195e-07 5.01722e-05 6.07011e-05 6.21024e-07 
90 3 8.93394e-07 4.91777e-05 4.82664e-05 1.08245e-06 
91 1 8.24658e-07 4.96785e-05 5.77735e-05 4.07252e-07 
92 3 8.30766e-07 5.0748e-05 9.43545e-05 4.15454e-07 
93 1 8.95831e-07 4.88189e-05 8.28408e-05 4.85438e-07 
94 1 8.64895e-07 5.12372e-05 8.26576e-05 1.1289e-06 
95 3 8.55413e-07 4.94104e-05 9.36808e-05 9.86051e-07 
96 1 8.80118e-07 5.09702e-05 5.93819e-05 5.34449e-07 
97 3 8.29275e-07 5.00399e-05 4.81386e-05 4.08177e-07 
98 1 7.95973e-07 5.01802e-05 5.79971e-05 8.45612e-07 
99 3 8.34426e-07 4.96788e-05 2.49852e-05 4.13593e-07 
100 1 8.58246e-07 4.9867e-05 5.86132e-05 7.63848e-07 
101 1 8.25916e-07 4.94931e-05 8.19631e-05 1.25885e-06 
102 1 8.64189e-07 5.04747e-05 1.13514e-05 9.7906e-07 
103 3 7.81278e-07 5.06532e-05 7.5672e-05 5.10106e-07 
104 2 7.65505e-07 4.93176e-05 1.33377e-05 1.41949e-06 
105 2 8.25291e-07 4.99443e-05 8.64778e-05 8.63603e-07 
106 1 8.66513e-07 4.98855e-05 8.32963e-05 1.1006e-06 
107 1 7.76038e-07 4.98981e-05 3.31723e-05 8.65855e-07 
108 1 7.80253e-07 5.12455e-05 1.02744e-05 9.89393e-07 
109 1 8.56508e-07 4.95529e-05 3.22349e-05 1.72024e-06 
110 1 8.6441e-07 4.91604e-05 5.75579e-05 8.4052e-07 
111 1 8.03058e-07 4.94583e-05 5.83349e-05 9.37482e-07 
112 1 7.65515e-07 5.08498e-05 1.07432e-05 4.46744e-07 
113 1 8.28057e-07 4.97133e-05 9.77925e-06 8.39483e-07 
114 3 7.95982e-07 4.92835e-05 2.50285e-05 8.89107e-07 
ITEM: TIMESTEP
80
ITEM: NUMBER OF ATOMS
230
ITEM: BOX BOUNDS ff ff ff
0.0000000000000000e+00 1.0000000000000000e-04
0.0000000000000000e+00 1.0000000000000000e-04
0.0000000000000000e+00 1.0000000000000000e-04
ITEM: ATOMS id type diameter x y z 
1 1 8.90977e-07 5.07533e-05 1.01999e-05 4.46739e-07 
2 2 9.84284e-07 4.9673e-05 1.3954e-05 1.07153e-06 
3 3 9.8088e-07 5.05153e-05 2.45979e-05 4.81077e-07 
4 1 9.84883e-07 5.01765e-05 3.22339e-05 1.41854e-06 
5 2 9.56839e-07 5.01346e-05 3.61187e-05 4.79127e-07 
6 3 1.01122e-06 4.94263e-05 4.96548e-05 1.17354e-06 
7 1 8.02653e-07 4.93808e-05 5.76811e-05 1.12304e-06 
8 2 9.24617e-07 4.9873e-05 6.20417e-05 4.55434e-07 
9 3 9.27518e-07 4.97699e-05 7.43845e-05 2.00455e-06 
10 1 9.54987e-07 4.94711e-05 8.34385e-05 9.51901e-07 
11 2 8.72337e-07 5.00967e-05 8.61668e-05 1.39118e-06 
12 3 8.60103e-07 4.94151e-05 9.4039e-05 8.82627e-07 
13 1 1.01002e-06 4.96935e-05 1.04637e-05 4.98964e-07 
14 3 9.58872e-07 4.97146e-05 2.51955e-05 1.51323e-06 
15 1 8.84884e-07 5.08968e-05 3.36435e-05 1.05465e-06 
16 3 8.7783e-07 4.96232e-05 4.81369e-05 1.16611e-06 
17 1 8.16572e-07 4.98233e-05 5.93718e-05 1.27139e-06 
18 3 1.00902e-06 4.92726e-05 7.51746e-05 1.21077e-06 
19 1 8.60865e-07 5.05985e-05 8.31928e-05 6.56454e-07 
20 3 8.54816e-07 5.01671e-05 9.29485e-05 6.01939e-07 
21 2 9.38345e-07 5.04572e-05 1.3878e-05 4.648e-07 
22 2 9.36752e-07 4.96628e-05 3.67471e-05 1.42474e-06 
23 2 9.31772e-07 4.95435e-05 6.11977e-05 9.34577e-07 
24 2 9.18297e-07 5.0236e-05 8.62406e-05 4.61116e-07 
25 1 8.97737e-07 5.1476e-05 5.78648e-05 5.99254e-07 
26 1 8.56377e-07 4.95101e-05 1.04662e-05 4.30419e-07 
27 1 9.55776e-07 5.04923e-05 3.2905e-05 9.9444e-07 
28 3 8.74345e-07 4.92059e-05 2.56927e-05 6.69699e-07 
29 3 8.41566e-07 5.10718e-05 7.50555e-05 4.15231e-07 
30 1 9.86228e-07 5.01523e-05 8.24364e-05 1.4174e-06 
31 1 8.75167e-07 4.94329e-05 8.23518e-05 8.24023e-07 
32 1 9.16063e-07 5.21837e-05 1.09686e-05 4.58513e-07 
33 1 9.14559e-07 4.95059e-05 3.39335e-05 1.4629e-06 
34 3 9.77215e-07 4.90382e-05 9.53045e-05 4.77497e-07 
35 3 8.9813e-07 5.04261e-05 4.8956e-05 1.55713e-06 
36 1 8.24915e-07 5.0184e-05 5.8505e-05 6.39206e-07 
37 3 1.01177e-06 5.09261e-05 4.86008e-05 7.99427e-07 
38 3 9.70914e-07 5.01521e-05 9.35084e-05 4.77161e-07 
39 3 9.09131e-07 5.0135e-05 2.40725e-05 4.44776e-07 
40 3 9.54823e-07 4.93363e-05 7.39285e-05 4.74505e-07 
41 1 9.20274e-07 5.0212e-05 5.73166e-05 4.90333e-07 
42 1 8.65203e-07 4.94651e-05 9.97204e-06 1.69679e-06 
43 1 7.98309e-07 5.04138e-05 8.37559e-05 7.12436e-07 
44 3 8.92012e-07 5.01526e-05 7.47957e-05 1.61075e-06 
45 1 9.09972e-07 4.97444e-05 3.24205e-05 8.15201e-07 
46 3 9.33382e-07 5.0505e-05 2.54018e-05 1.19501e-06 
47 1 8.97402e-07 5.01436e-05 8.2239e-05 6.66521e-07 
48 1 8.92696e-07 5.05478e-05 3.37871e-05 4.35679e-07 
49 3 8.57901e-07 4.95517e-05 4.82945e-05 2.32338e-06 
50 1 8.60856e-07 4.99398e-05 3.36023e-05 1.70791e-06 
51 1 8.02147e-07 4.99383e-05 1.11139e-05 1.03659e-06 
52 1 9.65452e-07 4.96717e-05 5.73353e-05 8.1527e-07 
53 3 9.4908e-07 4.97024e-05 9.45646e-05 1.22449e-06 
54 1 7.67197e-07 4.9999e-05 1.03338e-05 3.83662e-07 
55 1 8.28588e-07 5.07154e-05 5.9129e-05 4.85016e-07 
56 3 9.11739e-07 5.06172e-05 9.37676e-05 1.1157e-06 
57 1 8.66731e-07 4.98644e-05 8.31704e-05 7.82819e-07 
58 1 8.56824e-07 5.12507e-05 8.24311e-05 5.23582e-07 
59 1 8.5107e-07 5.08233e-05 9.73354e-06 1.70651e-06 
60 1 1.01197e-06 5.01042e-05 3.27435e-05 2.21649e-06 
61 3 7.92253e-07 5.00292e-05 4.92855e-05 4.40275e-07 
62 3 8.52156e-07 4.99491e-05 2.44921e-05 1.26184e-06 
63 3 8.35704e-07 4.9377e-05 2.48495e-05 8.81356e-07 
64 1 8.59424e-07 5.04104e-05 5.93933e-05 1.791e-06 
65 3 8.58463e-07 4.95009e-05 7.5159e-05 5.33691e-07 
66 3 9.94611e-07 4.98025e-05 9.44335e-05 4.96428e-07 
67 3 1.00578e-06 5.06158e-05 4.90958e-05 5.00984e-07 
68 1 1.00894e-06 4.90704e-05 5.82947e-05 5.04184e-07 
69 1 9.39634e-07 5.02143e-05 8.28813e-05 4.71967e-07 
70 3 9.66772e-07 5.00647e-05 7.44277e-05 1.15879e-06 
71 3 9.75441e-07 4.97221e-05 4.89007e-05 1.2549e-06 
72 1 9.93305e-07 4.98144e-05 1.05073e-05 2.52682e-06 
73 1 9.14395e-07 4.93218e-05 8.26767e-05 4.52319e-07 
74 3 9.95948e-07 5.12477e-05 7.53728e-05 1.48113e-06 
75 3 8.92234e-07 5.0358e-05 9.32478e-05 1.29043e-06 
76 1 9.7524e-07 4.89361e-05 3.31599e-05 6.8274e-07 
77 1 9.23245e-07 4.93681e-05 5.7042e-05 2.03884e-06 
78 3 9.1132e-07 4.90831e-05 7.43287e-05 7.98506e-07 
79 1 9.12412e-07 4.89598e-05 9.90699e-06 4.44609e-07 
80 3 9.13971e-07 5.10982e-05 2.55517e-05 4.56509e-07 
81 1 8.57873e-07 5.01315e-05 3.45938e-05 5.96249e-07 
82 3 8.57477e-07 5.05182e-05 2.36908e-05 1.00986e-06 
83 1 9.70025e-07 5.00811e-05 3.34924e-05 4.86192e-07 
84 1 8.51481e-07 4.90704e-05 3.29095e-05 4.27499e-07 
85 1 9.01447e-07 4.99543e-05 1.12486e-05 4.84779e-07 
86 1 9.23057e-07 4.9244e-05 1.09385e-05 1.46535e-06 
87 1 9.84481e-07 5.00762e-05 8.43617e-05 1.49872e-06 
88 1 9.22994e-07 5.1092e-05 3.31543e-05 4.47595e-07 
89 2 9.84432e-07 5.0216e-05 6.06325e-05 5.90957e-07 
90 3 9.16504e-07 4.88591e-05 4.85815e-05 1.06356e-06 
91 1 8.20643e-07 4.97413e-05 5.79417e-05 4.04493e-07 
92 3 8.4359e-07 5.10516e-05 9.41083e-05 4.16187e-07 
93 1 9.44426e-07 4.87343e-05 8.27778e-05 9.5456e-07 
94 1 8.78834e-07 5.13514e-05 8.23205e-05 1.06902e-06 
95 3 8.68838e-07 4.88839e-05 9.36068e-05 8.80223e-07 
96 1 8.84882e-07 5.0773e-05 5.92898e-05 4.41511e-07 
97 3 7.79977e-07 4.98726e-05 4.79941e-05 8.03167e-07 
98 1 8.64264e-07 5.01808e-05 5.82803e-05 6.57408e-07 
99 3 8.0629e-07 4.99677e-05 2.48411e-05 6.55335e-07 
100 1 8.42018e-07 5.00628e-05 5.89654e-05 7.50836e-07 
101 1 8.3098e-07 4.98105e-05 8.16067e-05 1.0883e-06 
102 1 9.33576e-07 5.09365e-05 1.12575e-05 1.15909e-06 
103 3 9.91379e-07 5.06484e-05 7.57572e-05 4.93494e-07 
104 2 8.97092e-07 4.92465e-05 1.32376e-05 1.49172e-06 
105 2 9.6963e-07 4.98582e-05 8.66476e-05 8.43722e-07 
106 1 8.56324e-07 5.00263e-05 8.34177e-05 8.93493e-07 
107 1 1.00813e-06 4.98639e-05 3.31641e-05 9.91143e-07 
108 1 8.02099e-07 5.13653e-05 1.0307e-05 1.54412e-06 
109 1 8.23532e-07 4.94261e-05 3.18999e-05 1.49888e-06 
110 1 9.39523e-07 4.87377e-05 5.72049e-05 1.09947e-06 
111 1 7.84879e-07 4.93994e-05 5.80451e-05 1.12229e-06 
112 1 9.94351e-07 5.09168e-05 1.0753e-05 4.94254e-07 
113 1 8.29247e-07 4.99054e-05 9.55803e-06 4.58949e-07 
114 3 1.01009e-06 4.91404e-05 2.51215e-05 9.83644e-07 
115 2 9.12371e-07 5.01233e-05 3.70248e-05 5.44013e-07 
116 1 1.00929e-06 4.90119e-05 8.26766e-05 9.60567e-07 
117 3 8.13622e-07 4.97929e-05 9.52651e-05 8.14986e-07 
118 3 8.41913e-07 5.08409e-05 9.42606e-05 1.69059e-06 
119 1 8.56727e-07 5.04687e-05 3.21146e-05 5.62638e-07 
120 3 1.00094e-06 4.99704e-05 4.98988e-05 4.92545e-07 
121 3 9.95591e-07 5.03537e-05 4.82516e-05 1.2855e-06 
122 3 1.0009e-06 5.02619e-05 2.43811e-05 1.72278e-06 
123 3 9.41938e-07 5.01327e-05 7.48424e-05 4.69435e-07 
124 1 8.95834e-07 4.97754e-05 8.39699e-05 4.37056e-07 
125 2 9.21696e-07 4.95917e-05 3.58711e-05 1.18699e-06 
126 3 8.35208e-07 5.02835e-05 7.33619e-05 7.28109e-07 
127 1 9.8136e-07 5.02693e-05 5.8451e-05 1.43161e-06 
128 3 9.76112e-07 5.06446e-05 7.52803e-05 9.16856e-07 
129 1 9.81035e-07 4.95989e-05 5.81467e-05 1.89916e-06 
130 1 9.52543e-07 5.08097e-05 8.34529e-05 7.79235e-07 
131 3 9.80039e-07 4.98027e-05 9.3627e-05 9.15752e-07 
132 1 9.67112e-07 4.92533e-05 9.62694e-06 1.9741e-06 
133 3 9.15945e-07 4.93159e-05 4.92061e-05 7.62314e-07 
134 1 9.50333e-07 5.04375e-05 3.42014e-05 4.76275e-07 
135 3 9.54894e-07 5.0484e-05 2.52004e-05 6.38035e-07 
136 2 9.46703e-07 4.92156e-05 8.59737e-05 1.48192e-06 
137 3 9.08155e-07 4.95851e-05 7.58973e-05 6.79957e-07 
138 2 8.76706e-07 4.99508e-05 1.32327e-05 6.35893e-07 
139 3 9.51308e-07 5.01824e-05 4.96701e-05 1.32575e-06 
140 1 9.43245e-07 5.00756e-05 1.03665e-05 1.15528e-06 
141 1 8.02648e-07 5.01771e-05 5.74796e-05 1.00041e-06 
142 3 9.07091e-07 5.06089e-05 4.92018e-05 9.82126e-07 
143 1 9.61124e-07 4.98539e-05 1.04726e-05 1.71404e-06 
144 3 1.00529e-06 5.12231e-05 9.32465e-05 1.48977e-06 
145 2 8.56654e-07 5.04128e-05 6.14982e-05 7.86248e-07 
146 1 9.66429e-07 4.95934e-05 3.31629e-05 1.03977e-06 
147 3 8.94487e-07 4.98618e-05 9.47261e-05 8.60518e-07 
148 3 9.15631e-07 5.02888e-05 7.43563e-05 4.55626e-07 
149 1 9.39429e-07 4.88201e-05 3.3261e-05 1.49675e-06 
150 3 9.10679e-07 4.90407e-05 2.45911e-05 1.53426e-06 
151 3 9.68624e-07 5.03844e-05 4.89643e-05 2.36825e-06 
152 3 9.29711e-07 5.00785e-05 2.5922e-05 5.25747e-07 
153 3 9.43591e-07 4.94501e-05 7.35382e-05 1.06977e-06 
154 1 9.16577e-07 5.04424e-05 8.36191e-05 1.26906e-06 
155 1 9.68569e-07 4.99411e-05 3.32485e-05 5.63072e-07 
156 1 9.34105e-07 5.04637e-05 8.27799e-05 9.77807e-07 
157 3 9.78793e-07 5.09452e-05 2.29674e-05 8.79209e-07 
158 1 9.04147e-07 5.0132e-05 3.39816e-05 1.21627e-06 
159 1 9.56911e-07 5.03269e-05 1.05558e-05 4.71008e-07 
160 1 9.42963e-07 4.92503e-05 1.06251e-05 7.85604e-07 
161 1 9.38004e-07 5.08675e-05 3.31e-05 8.60132e-07 
162 3 9.67366e-07 4.95833e-05 9.28411e-05 1.21891e-06 
163 1 9.4354e-07 5.06084e-05 5.78198e-05 4.66791e-07 
164 1 9.50874e-07 5.02246e-05 3.34405e-05 8.36846e-07 
165 1 8.72982e-07 4.98162e-05 5.65502e-05 6.90328e-07 
166 1 9.28689e-07 4.90968e-05 9.40234e-06 1.07797e-06 
167 1 9.01956e-07 4.87528e-05 8.29096e-05 4.51343e-07 
168 3 8.63829e-07 4.92493e-05 7.39576e-05 1.61658e-06 
169 3 8.8057e-07 5.03552e-05 9.40678e-05 4.40648e-07 
170 1 8.97212e-07 4.91127e-05 8.30199e-05 8.91075e-07 
171 3 8.92149e-07 5.06616e-05 2.58754e-05 8.06523e-07 
172 3 8.82642e-07 4.91669e-05 4.78065e-05 1.23401e-06 
173 1 9.28761e-07 5.15068e-05 5.96583e-05 5.84223e-07 
174 3 8.90326e-07 5.00502e-05 7.54218e-05 1.14407e-06 
175 1 8.73858e-07 5.01043e-05 5.75386e-05 2.04501e-06 
176 1 9.27724e-07 4.97883e-05 8.31759e-05 1.66888e-06 
177 3 9.07742e-07 5.0609e-05 7.46358e-05 7.6626e-07 
178 3 8.39565e-07 4.98019e-05 2.4053e-05 1.12776e-06 
179 1 8.68059e-07 4.94365e-05 8.21553e-05 4.2289e-07 
180 1 9.16906e-07 5.11852e-05 8.32023e-05 4.48642e-07 
181 1 9.2101e-07 5.05869e-05 9.52317e-06 9.22621e-07 
182 1 9.04364e-07 5.11232e-05 8.29835e-05 1.55583e-06 
183 1 9.23809e-07 4.95515e-05 5.84689e-05 5.71309e-07 
184 1 8.43794e-07 5.02732e-05 1.16914e-05 9.30008e-07 
185 1 9.35902e-07 4.93531e-05 3.24491e-05 2.0958e-06 
186 1 8.36882e-07 4.92129e-05 5.77419e-05 6.84455e-07 
187 1 8.7035e-07 5.04724e-05 9.83592e-06 8.61817e-07 
188 1 8.99754e-07 4.8891e-05 1.03585e-05 8.25672e-07 
189 1 8.35797e-07 4.95153e-05 3.39276e-05 6.54388e-07 
190 1 8.96492e-07 4.94989e-05 3.30033e-05 1.79766e-06 
191 1 9.05646e-07 4.96722e-05 3.32505e-05 6.62472e-07 
192 1 8.17569e-07 5.14733e-05 1.06914e-05 5.82301e-07 
193 1 8.63485e-07 4.93281e-05 8.3094e-05 4.30816e-07 
194 3 8.54086e-07 4.9626e-05 9.37368e-05 1.28465e-06 
195 1 8.22706e-07 5.09844e-05 3.31641e-05 1.73722e-06 
196 3 8.1584e-07 4.95345e-05 4.85328e-05 4.74812e-07 
197 3 8.19986e-07 4.99503e-05 2.57979e-05 8.86992e-07 
198 1 8.85857e-07 5.02554e-05 5.77848e-05 4.35116e-07 
199 1 8.77788e-07 4.95921e-05 5.75779e-05 8.91373e-07 
200 1 8.7125e-07 4.92668e-05 8.19905e-05 1.5706e-06 
201 1 8.76819e-07 4.95965e-05 9.66065e-06 1.17558e-06 
202 3 8.53151e-07 5.01438e-05 9.45829e-05 1.50784e-06 
203 1 8.41749e-07 4.99018e-05 3.26894e-05 4.33023e-07 
204 1 8.05333e-07 4.94798e-05 8.42398e-05 8.71313e-07 
205 3 8.22214e-07 4.96217e-05 9.43097e-05 4.04971e-07 
206 1 7.9928e-07 4.92975e-05 8.21774e-05 1.56114e-06 
207 1 8.79017e-07 5.05293e-05 8.43909e-05 4.32421e-07 
208 1 8.74859e-07 5.00978e-05 1.10014e-05 1.79049e-06 
209 1 8.62657e-07 5.00098e-05 5.90634e-05 8.61908e-07 
210 3 8.32969e-07 4.90586e-05 2.47319e-05 4.11043e-07 
211 3 8.13728e-07 4.94084e-05 7.43991e-05 6.70973e-07 
212 3 8.29697e-07 5.0468e-05 9.45945e-05 6.31519e-07 
213 3 8.83993e-07 5.02214e-05 4.82871e-05 4.29215e-07 
214 3 8.72004e-07 4.93398e-05 2.51426e-05 4.22413e-07 
215 3 8.6359e-07 4.92153e-05 9.55499e-05 1.32245e-06 
216 1 8.54532e-07 4.90528e-05 5.9127e-05 1.24873e-06 
217 3 7.87768e-07 4.97134e-05 4.84226e-05 1.55241e-06 
218 1 8.02812e-07 5.07858e-05 5.87027e-05 1.96222e-06 
219 1 8.08509e-07 4.96488e-05 3.49014e-05 1.16653e-06 
220 1 8.66876e-07 4.92775e-05 5.88113e-05 9.96363e-07 
221 1 7.69836e-07 5.00297e-05 8.27258e-05 3.8403e-07 
222 1 7.78842e-07 4.95148e-05 1.01431e-05 9.23945e-07 
223 1 8.7072e-07 5.02754e-05 9.66651e-06 6.86152e-07 
224 3 8.49135e-07 4.95273e-05 4.8693e-05 5.85028e-07 
225 1 7.71725e-07 5.04833e-05 5.77916e-05 1.21171e-06 
226 1 8.28579e-07 5.00514e-05 5.74793e-05 1.77319e-06 
227 1 8.15219e-07 4.99336e-05 5.82607e-05 1.17258e-06 
228 3 7.50902e-07 5.02785e-05 2.50787e-05 8.36353e-07 
229 1 8.06711e-07 5.12272e-05 1.01908e-05 7.66852e-07 
230 3 7.852e-07 5.00225e-05 7.4072e-05 4.54034e-07 
ITEM: TIMESTEP
100
ITEM: NUMBER OF ATOMS
497
ITEM: BOX BOUNDS ff ff ff
0.0000000000000000e+00 1.0000000000000000e-04
0.0000000000000000e+00 1.0000000000000000e-04
0.0000000000000000e+00 1.0000000000000000e-04
ITEM: ATOMS id type diameter x y z 
1 1 8.81894e-07 5.10744e-05 1.0439e-05 4.36985e-07 
2 2 9.31813e-07 4.96746e-05 1.40333e-05 6.49408e-07 
3 3 9.22356e-07 5.02739e-05 2.48345e-05 4.51978e-07 
4 1 9.69295e-07 5.03731e-05 3.24052e-05 1.40783e-06 
5 2 8.71825e-07 5.01873e-05 3.60765e-05 1.00103e-06 
6 3 9.47223e-07 4.96431e-05 4.97215e-05 9.8846e-07 
7 1 7.83656e-07 4.92685e-05 5.76674e-05 8.9268e-07 
8 2 8.26072e-07 4.99225e-05 6.24375e-05 7.40554e-07 
9 3 9.78067e-07 4.97814e-05 7.43388e-05 2.60438e-06 
10 1 7.61499e-07 4.98861e-05 8.35246e-05 7.83567e-07 
11 2 8.30091e-07 4.99845e-05 8.58487e-05 1.62053e-06 
12 3 8.78025e-07 4.91669e-05 9.36152e-05 8.0799e-07 
13 1 8.7125e-07 4.99487e-05 1.00397e-05 1.14025e-06 
14 3 9.3434e-07 4.96858e-05 2.55044e-05 1.39917e-06 
15 1 9.49755e-07 5.09746e-05 3.37875e-05 1.59628e-06 
16 3 8.48547e-07 4.95544e-05 4.84214e-05 1.29334e-06 
17 1 8.92649e-07 4.98408e-05 5.95704e-05 9.59074e-07 
18 3 8.04559e-07 4.91354e-05 7.50117e-05 1.15069e-06 
19 1 8.34175e-07 5.05727e-05 8.35475e-05 6.68236e-07 
20 3 8.62618e-07 5.02293e-05 9.28201e-05 4.30142e-07 
21 2 8.3793e-07 5.05239e-05 1.41981e-05 4.18354e-07 
22 2 9.19244e-07 4.96215e-05 3.66735e-05 1.08237e-06 
23 2 9.14128e-07 4.94301e-05 6.08345e-05 8.80619e-07 
24 2 9.12185e-07 5.00283e-05 8.62576e-05 4.43867e-07 
25 1 8.59992e-07 5.16901e-05 5.7854e-05 1.0768e-06 
26 1 8.53973e-07 4.96998e-05 1.04405e-05 8.22866e-07 
27 1 8.33508e-07 5.09228e-05 3.31367e-05 4.46556e-07 
28 3 8.91911e-07 4.94015e-05 2.59756e-05 9.47102e-07 
29 3 8.7418e-07 5.12495e-05 7.4992e-05 8.78465e-07 
30 1 8.23702e-07 4.99717e-05 8.26927e-05 2.15731e-06 
31 1 9.13353e-07 4.92316e-05 8.18702e-05 8.8674e-07 
32 1 8.78228e-07 5.22707e-05 1.12582e-05 8.88686e-07 
33 1 9.20603e-07 4.95453e-05 3.42371e-05 1.27386e-06 
34 3 9.88356e-07 4.91439e-05 9.54263e-05 4.9273e-07 
35 3 9.28929e-07 5.01977e-05 4.90263e-05 1.39531e-06 
36 1 8.01587e-07 4.98946e-05 5.86272e-05 7.1512e-07 
37 3 7.94556e-07 5.10823e-05 4.82772e-05 3.97323e-07 
38 3 7.9289e-07 5.01524e-05 9.39468e-05 3.96364e-07 
39 3 8.59134e-07 5.04376e-05 2.38902e-05 4.21711e-07 
40 3 9.71082e-07 4.90224e-05 7.40539e-05 7.63192e-07 
41 1 9.91083e-07 5.02388e-05 5.71836e-05 4.87141e-07 
42 1 8.85215e-07 4.89831e-05 1.02319e-05 1.80077e-06 
43 1 8.10151e-07 5.02178e-05 8.38662e-05 4.03545e-07 
44 3 8.65974e-07 5.02097e-05 7.48135e-05 2.11886e-06 
45 1 9.01747e-07 4.96111e-05 3.23305e-05 1.20497e-06 
46 3 9.41787e-07 5.04826e-05 2.55864e-05 1.74838e-06 
47 1 9.70964e-07 5.01729e-05 8.22353e-05 4.79039e-07 
48 1 9.34351e-07 5.04755e-05 3.39919e-05 9.04666e-07 
49 3 8.19642e-07 4.96053e-05 4.85851e-05 2.41447e-06 
50 1 8.74659e-07 4.99533e-05 3.36415e-05 2.2908e-06 
51 1 8.37888e-07 4.993e-05 1.11383e-05 7.84799e-07 
52 1 9.79744e-07 4.97031e-05 5.75808e-05 6.93189e-07 
53 3 9.87887e-07 4.95562e-05 9.42974e-05 1.05554e-06 
54 1 9.9492e-07 4.99964e-05 1.03343e-05 4.91491e-07 
55 1 8.49263e-07 5.07255e-05 5.9038e-05 4.15824e-07 
56 3 8.69403e-07 5.07564e-05 9.37343e-05 1.48619e-06 
57 1 9.09782e-07 5.01118e-05 8.32895e-05 5.60004e-07 
58 1 8.93657e-07 5.08564e-05 8.23835e-05 4.35456e-07 
59 1 8.69742e-07 5.08225e-05 9.67867e-06 2.28304e-06 
60 1 8.48825e-07 5.0649e-05 3.27224e-05 2.26336e-06 
61 3 1.0044e-06 4.99907e-05 4.92707e-05 4.9716e-07 
62 3 8.42097e-07 5.02241e-05 2.45608e-05 1.65425e-06 
63 3 7.98761e-07 4.91053e-05 2.49748e-05 7.58893e-07 
64 1 8.31564e-07 5.02278e-05 5.92696e-05 1.87867e-06 
65 3 9.04067e-07 4.96189e-05 7.52756e-05 8.11914e-07 
66 3 8.42159e-07 4.9899e-05 9.43451e-05 1.44251e-06 
67 3 7.54548e-07 5.02245e-05 4.94466e-05 3.72833e-07 
68 1 7.71078e-07 4.9258e-05 5.81973e-05 3.80577e-07 
69 1 9.75975e-07 5.0126e-05 8.27587e-05 9.92817e-07 
70 3 9.20547e-07 5.00176e-05 7.46763e-05 1.36047e-06 
71 3 9.80729e-07 4.98076e-05 4.89246e-05 1.00791e-06 
72 1 7.88143e-07 4.97775e-05 1.00476e-05 2.50426e-06 
73 1 9.22867e-07 4.92976e-05 8.27147e-05 4.48955e-07 
74 3 7.74937e-07 5.16226e-05 7.52309e-05 1.55108e-06 
75 3 9.47736e-07 5.01854e-05 9.31919e-05 1.68906e-06 
76 1 8.71451e-07 4.88367e-05 3.29496e-05 7.06987e-07 
77 1 9.87877e-07 4.92076e-05 5.68441e-05 2.57331e-06 
78 3 9.65789e-07 4.90493e-05 7.43434e-05 4.69315e-07 
79 1 9.21428e-07 4.9062e-05 9.90488e-06 8.52927e-07 
80 3 9.70439e-07 5.14511e-05 2.5278e-05 7.33745e-07 
81 1 9.26346e-07 5.00855e-05 3.47493e-05 1.00282e-06 
82 3 8.59686e-07 5.07804e-05 2.33363e-05 1.1384e-06 
83 1 8.47113e-07 5.02715e-05 3.36093e-05 9.03072e-07 
84 1 9.07287e-07 4.88443e-05 3.27066e-05 8.34738e-07 
85 1 9.44253e-07 4.98537e-05 1.13404e-05 4.74395e-07 
86 1 9.08096e-07 4.91397e-05 1.10567e-05 1.1424e-06 
87 1 9.53018e-07 5.0118e-05 8.44781e-05 1.19877e-06 
88 1 9.39612e-07 5.10036e-05 3.29373e-05 4.61908e-07 
89 2 9.31688e-07 5.02942e-05 6.05693e-05 4.68903e-07 
90 3 9.12219e-07 4.85702e-05 4.82577e-05 1.20162e-06 
91 1 8.00891e-07 4.97501e-05 5.79316e-05 3.85516e-07 