LAMMPS (5 Nov 2016)
# NUFEB simulation

atom_style	bio
atom_modify	map array sort 1000 5.0e-7
boundary	ff ff ff
newton		off
#processors  2 1 1

comm_modify	vel yes
read_data_bio atom.in
  orthogonal box = (0 0 0) to (0.0001 0.0001 0.0001)
  1 by 1 by 1 MPI processor grid
  reading atoms ...
  3 atoms
  10 nutrients

group AOB type 1
1 atoms in group AOB
group NOB type 2
1 atoms in group NOB
group COMM type 3
1 atoms in group COMM

neighbor	5.0e-7 bin
neigh_modify	delay 0 one 5000

#pair_style none
pair_style  gran/hooke/history 0.000200 NULL 0.000050 NULL 0.0 1

pair_coeff  * *
timestep 36

fix 1 all nve/limit 1e-8

#fix	 2 all gravity 1.47 vector 0 0 -1 # spherical 90.0 -180.0
#fix     3 all fdrag
fix 10 all viscous 0.1


fix xw all wall/gran hooke/history 2000 NULL 500.0 NULL 1.5 0 xplane  0.0   1.0e-04
fix yw all wall/gran hooke/history 2000 NULL 500.0 NULL 1.5 0 yplane  0.0   1.0e-04
fix zw all wall/gran hooke/history 2000 NULL 500.0 NULL 1.5 0 zplane  0.0   1.0e-04

variable kanc equal 50

fix xwa all walladh v_kanc xplane  0.0   1.0e-04
fix ywa all walladh v_kanc yplane  0.0   1.0e-04
fix zwa all walladh v_kanc zplane  0.0   1.0e-04

##############Ibm Variable Definitions##############

#Defining EPS density and ratio variables
variable EPSdens equal 30
variable EPSratio equal 1.25

variable ke equal 5e+10

#Defining kinetics variables
variable temp equal 298.15
variable gasTran equal 0.08205746
variable gvol equal 8e-14
variable rth equal 0.0083144
variable pressure equal 1
variable ph equal 7.0

#Defining diffusion variables
variable diffT equal 1e-6
variable tol equal 4e-11

##############Ibm functions##############

fix k1 all kinetics 25 25 25 v_temp v_rth v_gvol v_gasTran v_ph
fix g1 all diffusion exp v_diffT v_tol pp pp nd
#fix ki3 all kinetics/ph 1
fix ki2 all kinetics/thermo 1 fix open v_pressure
fix ki1 all kinetics/monod 1 v_EPSdens
fix d1 all divide 1 v_EPSdens 1 31231

#fix j1 all epsadh 1 v_ke 1
#fix e1 HET eps_extract 16 v_EPSratio v_EPSdens 1242242

##############Ibm compute##############

compute myMass all biomass
compute myNtypes all ntypes

##############Simulation outputs##############

#dump		id all custom 250 snapshot.bubblemd id type diameter x y z
dump            d0 all bio 500 biomass
thermo_style    custom step cpu atoms biomass c_myNtypes[*] c_myMass[2]
thermo		5
thermo_modify	lost ignore

run  5000
Neighbor list info ...
  2 neighbor list requests
  update every 1 steps, delay 0 steps, check yes
  max neighbors/atom: 5000, page size: 100000
  master list distance cutoff = 1.466e-06
  ghost atom cutoff = 1.466e-06
  binsize = 7.33e-07 -> bins = 137 137 137
Memory usage per processor = 18.9946 Mbytes
Step CPU Atoms biomass c_myNtypes[1] c_myNtypes[2] c_myNtypes[3] c_myMass[2] 
       0            0        3 4.1062866e-16            1            1            1 1.3687622e-16 
       5    835.11359        3 4.1157981e-16            1            1            1 1.3687183e-16 
      10    836.22339        3 4.1247763e-16            1            1            1 1.3681076e-16 
      15    839.55959        3 4.1338971e-16            1            1            1 1.367606e-16 
      20    842.67456        3 4.1433311e-16            1            1            1 1.3673842e-16 
      25    845.13551        3 4.152832e-16            1            1            1 1.3671953e-16 
      30    849.14063        3 4.1621672e-16            1            1            1 1.3668071e-16 
      35    851.62071        3 4.1715673e-16            1            1            1 1.3664497e-16 
      40    854.38983        3 4.1808864e-16            1            1            1 1.3659774e-16 
      45    857.78454        3 4.190249e-16            1            1            1 1.3655142e-16 
      50    861.47448        3 4.1996884e-16            1            1            1 1.3650936e-16 
      55    864.11161        3 4.2090823e-16            1            1            1 1.364593e-16 
      60    867.67447        3 4.2184898e-16            1            1            1 1.3640715e-16 
      65    868.28926        3 4.2278007e-16            1            1            1 1.3634188e-16 
      70    872.07864        3 4.237285e-16            1            1            1 1.3629046e-16 
      75    875.87287        3 4.2468922e-16            1            1            1 1.3624784e-16 
      80    878.35709        3 4.256494e-16            1            1            1 1.3620118e-16 
      85    878.99759        3  4.26607e-16            1            1            1 1.3614841e-16 
      90    882.73698        3 4.2757109e-16            1            1            1 1.3609862e-16 
      95    883.85076        3 4.2854536e-16            1            1            1 1.3605546e-16 
     100    886.03542        3 4.2951525e-16            1            1            1 1.3600437e-16 
     105    890.01637        3 4.3049972e-16            1            1            1 1.3596429e-16 
     110    891.94927        3 4.3148547e-16            1            1            1 1.3592192e-16 
     115    896.16182        3 4.3248077e-16            1            1            1 1.358855e-16 
     120    896.30659        3 4.3345114e-16            1            1            1 1.3582055e-16 
     125    899.45864        3 4.3445697e-16            1            1            1 1.3578744e-16 
     130    899.89672        3 4.354352e-16            1            1            1 1.3572311e-16 
     135    903.05749        3 4.3643147e-16            1            1            1 1.3567318e-16 
     140    907.81039        3 4.3746186e-16            1            1            1 1.3565372e-16 
     145    907.95035        3 4.384509e-16            1            1            1 1.3558923e-16 
     150    909.17497        4 4.3948581e-16            2            1            1 1.3556694e-16 
     155    911.10612        5 4.4049788e-16            2            1            2 1.3551811e-16 
     160     913.0867        5 4.4151562e-16            2            1            2 1.3547125e-16 
     165    914.75878        5 4.4254716e-16            2            1            2 1.3543448e-16 
     170    918.21888        5 4.4359662e-16            2            1            2 1.3541188e-16 
     175    918.48063        5 4.4461104e-16            2            1            2 1.3535051e-16 
     180    919.93138        5 4.4568105e-16            2            1            2 1.3534097e-16 
     185    924.37507        5 4.4674263e-16            2            1            2 1.3531923e-16 
     190    924.51158        5 4.4776931e-16            2            1            2 1.3525881e-16 
     195    926.13243        5 4.4882784e-16            2            1            2 1.3522644e-16 
     200    929.34936        5 4.4987834e-16            2            1            2 1.3518224e-16 
     205    929.83923        5 4.5092918e-16            2            1            2 1.3513454e-16 
     210    932.64438        5 4.5199566e-16            2            1            2 1.3509866e-16 
     215    934.10058        5 4.5305602e-16            2            1            2 1.350528e-16 
     220    934.81487        5 4.5412882e-16            2            1            2 1.3501551e-16 
     225    938.61357        5 4.5520757e-16            2            1            2 1.3498031e-16 
     230     938.8927        5 4.5626768e-16            2            1            2 1.3492256e-16 
     235    940.63793        5 4.5736727e-16            2            1            2 1.349004e-16 
     240    942.19698        5 4.5845409e-16            2            1            2 1.3486155e-16 
     245    945.03329        5 4.5954844e-16            2            1            2 1.348263e-16 
     250    945.58423        5 4.6063584e-16            2            1            2 1.3478015e-16 
     255    947.13865        5 4.6172323e-16            2            1            2 1.3473003e-16 
     260    950.58589        5  4.62835e-16            2            1            2 1.3470032e-16 
     265    950.71165        5 4.6392004e-16            2            1            2 1.3463991e-16 
     270    953.74064        5 4.650468e-16            2            1            2 1.3461719e-16 
     275    954.07855        5 4.6613997e-16            2            1            2 1.3455689e-16 
     280    956.88214        5 4.672889e-16            2            1            2 1.3454831e-16 
     285     957.2709        5 4.6839029e-16            2            1            2 1.3448815e-16 
     290     959.7412        5 4.6952112e-16            2            1            2 1.3445337e-16 
     295     960.6233        5 4.7064319e-16            2            1            2 1.3440576e-16 
     300    963.45041        5 4.7176888e-16            2            1            2 1.3435769e-16 
     305    964.82523        5 4.7290281e-16            2            1            2 1.3431375e-16 
     310    965.96181        5 4.7404855e-16            2            1            2 1.3427752e-16 
     315    969.06553        5 4.7518679e-16            2            1            2 1.3422966e-16 
     320    969.89955        5 4.7633506e-16            2            1            2 1.3418768e-16 
     325    972.44017        5 4.7748177e-16            2            1            2 1.3413999e-16 
     330    974.79998        5 4.7864082e-16            2            1            2 1.3410046e-16 
     335    975.21778        5 4.7979303e-16            2            1            2 1.3404991e-16 
     340    977.11784        5 4.8095317e-16            2            1            2 1.3400309e-16 
     345    978.66525        5 4.8212566e-16            2            1            2 1.339644e-16 
     350    980.55199        5 4.8330228e-16            2            1            2 1.3392562e-16 
     355     981.4188        5 4.844757e-16            2            1            2 1.3387938e-16 
     360    983.40628        5 4.8565211e-16            2            1            2 1.3383188e-16 
     365    986.25512        5 4.8684544e-16            2            1            2 1.3379703e-16 
     370    986.75019        5 4.8802661e-16            2            1            2 1.3374573e-16 
     375    988.76023        5 4.8923291e-16            2            1            2 1.3371524e-16 
     380    989.68599        5 4.9042613e-16            2            1            2 1.3366736e-16 
     385    992.77776        5 4.9163122e-16            2            1            2 1.3362702e-16 
     390    993.39827        5 4.9283885e-16            2            1            2 1.3358486e-16 
     395    995.20539        5 4.9404393e-16            2            1            2 1.3353579e-16 
     400    997.73288        5 4.9525943e-16            2            1            2 1.3349277e-16 
     405    998.25686        5 4.9647852e-16            2            1            2 1.3344893e-16 
     410    1000.6472        5 4.9769699e-16            2            1            2 1.3340007e-16 
     415    1003.0802        5 4.9892547e-16            2            1            2 1.3335679e-16 
     420    1003.5932        5 5.0015119e-16            2            1            2 1.3330631e-16 
     425    1006.1499        5 5.0138572e-16            2            1            2 1.3326017e-16 
     430    1008.5799        5 5.0264124e-16            2            1            2 1.3323056e-16 
     435    1008.9093        5 5.0386989e-16            2            1            2 1.3316959e-16 
     440    1011.1809        5 5.0511729e-16            2            1            2 1.3312286e-16 
     445    1015.2404        5 5.063833e-16            2            1            2 1.3309023e-16 
     450    1015.6778        5 5.0763064e-16            2            1            2 1.3303438e-16 
     455    1017.5388        5 5.0890376e-16            2            1            2 1.3299977e-16 
     460    1019.0226        5 5.1019501e-16            2            1            2 1.3297872e-16 
     465    1021.6378        5 5.1146527e-16            2            1            2 1.329321e-16 
     470    1022.0971        5 5.1274531e-16            2            1            2 1.3289066e-16 
     475    1024.2332        5 5.1403305e-16            2            1            2 1.328523e-16 
     480    1024.8756        5 5.1533284e-16            2            1            2 1.3282136e-16 
     485    1027.3222        5 5.1667082e-16            2            1            2 1.3282396e-16 
     490    1027.4807        5 5.1795022e-16            2            1            2 1.3276331e-16 
     495    1028.8089        5 5.1925591e-16            2            1            2 1.3272429e-16 
     500    1030.3114        5 5.2056598e-16            2            1            2 1.3268493e-16 
     505    1032.3395        5 5.2191498e-16            2            1            2 1.326798e-16 
     510     1034.408        5 5.2323311e-16            2            1            2 1.3263908e-16 
     515    1034.9817        5 5.2455114e-16            2            1            2 1.325935e-16 
     520    1037.4361        5 5.2588523e-16            2            1            2 1.3255922e-16 
     525    1038.3723        5 5.2722658e-16            2            1            2 1.3252742e-16 
     530    1041.3401        5 5.2857484e-16            2            1            2 1.3249773e-16 
     535    1041.5966        5 5.2989737e-16            2            1            2 1.324375e-16 
     540    1044.5222        5 5.3128104e-16            2            1            2 1.3243359e-16 
     545    1044.6771        5 5.3261332e-16            2            1            2 1.3237343e-16 
     550     1046.817        5 5.3396899e-16            2            1            2 1.3233181e-16 
     555    1049.1242        5 5.3534161e-16            2            1            2 1.3230225e-16 
     560    1049.3351        5 5.3668865e-16            2            1            2 1.3224222e-16 
     565     1050.603        5 5.3807035e-16            2            1            2 1.3221193e-16 
     570    1052.5193        5 5.394419e-16            2            1            2 1.3216655e-16 
     575    1054.9126        5 5.4083196e-16            2            1            2 1.3213474e-16 
     580    1055.5147        5 5.4221694e-16            2            1            2 1.3209288e-16 
     585    1056.8122        5 5.4360588e-16            2            1            2   1.3205e-16 
     590    1058.9424        5 5.4499746e-16            2            1            2 1.3200477e-16 
     595     1061.214        5 5.4640305e-16            2            1            2 1.3196852e-16 
     600     1062.543        5 5.4783166e-16            2            1            2 1.3195025e-16 
     605    1064.3208        5 5.4923615e-16            2            1            2 1.3190281e-16 
     610    1066.2619        5 5.506542e-16            2            1            2 1.3186386e-16 
     615    1066.8677        5 5.5208622e-16            2            1            2 1.3183379e-16 
     620    1068.3511        5  5.53506e-16            2            1            2 1.3178637e-16 
     625    1069.6519        5 5.5494555e-16            2            1            2 1.3175361e-16 
     630    1071.6159        5 5.5643091e-16            2            1            2 1.317615e-16 
     635     1073.413        5 5.5788034e-16            2            1            2 1.3172831e-16 
     640    1073.7678        5 5.5931357e-16            2            1            2 1.3167373e-16 
     645    1075.2561        5 5.6076207e-16            2            1            2 1.3162924e-16 
     650    1076.6248        5 5.6222389e-16            2            1            2 1.3159285e-16 
     655    1078.6832        5 5.6369641e-16            2            1            2 1.3156191e-16 
     660    1081.0139        5 5.6516638e-16            2            1            2 1.3152319e-16 
     665    1081.3936        5 5.6662105e-16            2            1            2 1.3146389e-16 
     670    1083.9988        5 5.6810944e-16            2            1            2 1.3143302e-16 
     675    1084.7976        5 5.6959001e-16            2            1            2 1.3138904e-16 
     680     1086.824        5 5.7107493e-16            2            1            2 1.3134407e-16 
     685    1088.9208        5 5.7256942e-16            2            1            2 1.3130332e-16 
     690    1089.9291        5 5.7406689e-16            2            1            2 1.3126021e-16 
     695    1092.2647        5 5.7557988e-16            2            1            2 1.3122722e-16 
     700    1092.7958        5 5.7708373e-16            2            1            2 1.3117969e-16 
     705    1094.6033        5 5.7862327e-16            2            1            2 1.3116244e-16 
     710     1095.833        5 5.8017983e-16            2            1            2 1.3115677e-16 
     715    1097.9101        5 5.8170296e-16            2            1            2 1.3111221e-16 
     720    1100.4138        5 5.8324924e-16            2            1            2 1.3108533e-16 
     725    1100.6451        5  5.84769e-16            2            1            2 1.3102643e-16 
     730    1103.6251        5 5.863437e-16            2            1            2 1.3101696e-16 
     735    1103.9961        5 5.8787774e-16            2            1            2 1.3096129e-16 
     740    1105.7785        5  5.89441e-16            2            1            2 1.309293e-16 
     745    1108.1736        5 5.9101245e-16            2            1            2 1.3089992e-16 
     750    1108.3132        5 5.9256012e-16            2            1            2 1.3084116e-16 
     755    1110.5905        5 5.9414295e-16            2            1            2 1.3081196e-16 
     760    1110.9365        5 5.9571093e-16            2            1            2 1.3076228e-16 
     765    1112.4418        5 5.9729054e-16            2            1            2 1.3071858e-16 
     770    1113.5237        5 5.989021e-16            2            1            2 1.3070115e-16 
     775    1115.8485        5 6.0050484e-16            2            1            2 1.3066921e-16 
     780    1117.4635        5 6.021066e-16            2            1            2 1.3063059e-16 
     785    1117.9153        5 6.0370569e-16            2            1            2 1.3058357e-16 
     790    1120.0848        5 6.0533304e-16            2            1            2 1.3055906e-16 
     795    1121.4675        5 6.0696275e-16            2            1            2 1.3053113e-16 
     800    1121.9636        5 6.0858127e-16            2            1            2 1.3048622e-16 
     805    1123.4222        5 6.1020435e-16            2            1            2 1.3044008e-16 
     810    1125.0953        5 6.1183554e-16            2            1            2 1.303962e-16 
     815     1126.751        5 6.1349774e-16            2            1            2 1.3037748e-16 
     820    1128.8905        5 6.1514076e-16            2            1            2 1.3033372e-16 
     825    1130.4214        5 6.1681689e-16            2            1            2 1.3031717e-16 
     830    1133.4972        5 6.1847253e-16            2            1            2 1.3027422e-16 
     835    1134.1492        5 6.2013592e-16            2            1            2 1.3023309e-16 
     840    1135.5831        5 6.2180263e-16            2            1            2 1.3018931e-16 
     845    1136.7108        5 6.2348918e-16            2            1            2 1.3015941e-16 
     850    1139.9278        5 6.2520353e-16            2            1            2 1.3015131e-16 
     855    1140.0501        5 6.2687374e-16            2            1            2 1.3009306e-16 
     860    1141.4183        5 6.2858316e-16            2            1            2 1.3006798e-16 
     865    1142.2465        5 6.3027672e-16            2            1            2 1.3002098e-16 
     870    1144.0286        5 6.3197977e-16            2            1            2 1.2997738e-16 
     875    1145.0774        5 6.3369158e-16            2            1            2 1.2993646e-16 
     880    1147.5435        5 6.3542041e-16            2            1            2 1.2990642e-16 
     885    1147.8257        5 6.371312e-16            2            1            2 1.298522e-16 
     890    1150.1352        5 6.3887184e-16            2            1            2 1.2982166e-16 
     895    1151.0569        5 6.4062094e-16            2            1            2 1.2979341e-16 
     900    1153.6864        5 6.4235905e-16            2            1            2 1.2974794e-16 
     905    1156.1897        5 6.4412262e-16            2            1            2 1.2972171e-16 
     910    1156.3739        5 6.4586109e-16            2            1            2 1.2966413e-16 
     915    1158.0662        5 6.4763159e-16            2            1            2 1.2963231e-16 
     920    1159.6502        5 6.4941326e-16            2            1            2 1.2960536e-16 
     925    1160.2667        5 6.5119446e-16            2            1            2 1.2957161e-16 
     930    1161.5895        5 6.5302384e-16            2            1            2 1.2957972e-16 
     935    1163.5727        5 6.5480913e-16            2            1            2 1.2953737e-16 
     940    1164.6647        5 6.5660483e-16            2            1            2 1.2949905e-16 
     945    1167.0074        5 6.5841623e-16            2            1            2 1.2947001e-16 
     950    1167.2157        5 6.6020581e-16            2            1            2 1.2941274e-16 
     955    1169.3382        6 6.6204144e-16            2            1            3 1.2939505e-16 
     960    1169.8017        6 6.6386006e-16            2            1            3 1.2935388e-16 
     965     1171.657        6 6.6568145e-16            2            1            3  1.29309e-16 
     970     1172.556        6 6.675383e-16            2            1            3 1.2929305e-16 
     975    1174.7922        6 6.6940072e-16            2            1            3 1.2927613e-16 
     980    1175.2162        6 6.7124443e-16            2            1            3 1.2923393e-16 
     985    1177.1346        6 6.7310581e-16            2            1            3 1.2920282e-16 
     990    1179.0612        7 6.7497185e-16            3            1            3 1.2916974e-16 
     995    1180.8829        7 6.7686324e-16            3            1            3 1.2915539e-16 
    1000    1181.5501        7 6.7874214e-16            3            1            3 1.291219e-16 
    1005    1183.8499        7 6.8063624e-16            3            1            3 1.2909692e-16 
    1010    1184.5233        7 6.8253484e-16            3            1            3 1.2906974e-16 
    1015    1185.8815        7 6.8442286e-16            3            1            3 1.2902525e-16 
    1020    1187.2163        7 6.863201e-16            3            1            3 1.2898323e-16 
    1025    1188.4397        7 6.8823616e-16            3            1            3 1.2895326e-16 
    1030     1190.628        7 6.9015932e-16            3            1            3 1.2892358e-16 
    1035    1192.1149        7 6.9209095e-16            3            1            3 1.2889557e-16 
    1040    1192.5573        7 6.9401255e-16            3            1            3 1.2885067e-16 
    1045    1194.1194        7 6.9595583e-16            3            1            3 1.2882057e-16 
    1050    1195.5901        7 6.9792239e-16            3            1            3 1.2880688e-16 
    1055    1197.4222        7 6.9987802e-16            3            1            3 1.2877533e-16 
    1060    1197.8757        7 7.0183129e-16            3            1            3 1.2873448e-16 
    1065    1199.7227        7 7.0378823e-16            3            1            3 1.2869033e-16 
    1070    1201.3481        7 7.0575477e-16            3            1            3 1.286488e-16 
    1075    1203.4062        7 7.0774064e-16            3            1            3 1.2861958e-16 
    1080    1204.1082        7 7.0972181e-16            3            1            3 1.2857862e-16 
    1085    1205.7534        7 7.1170951e-16            3            1            3 1.2853712e-16 
    1090    1207.9679        7 7.1371922e-16            3            1            3 1.2851055e-16 
    1095    1208.4539        7 7.1572249e-16            3            1            3 1.2847042e-16 
    1100    1210.3629        7 7.1772917e-16            3            1            3 1.2842657e-16 
    1105    1213.5726        7 7.1976317e-16            3            1            3 1.2840287e-16 
    1110    1213.9378        7 7.2177193e-16            3            1            3 1.2834674e-16 
    1115    1217.0548        7 7.238143e-16            3            1            3 1.2831702e-16 
    1120    1218.1686        7 7.2585359e-16            3            1            3 1.2827697e-16 
    1125    1220.6984        7 7.2789902e-16            3            1            3 1.282358e-16 
    1130    1223.8208        7 7.2996623e-16            3            1            3 1.2820912e-16 
    1135    1224.4105        7 7.3202824e-16            3            1            3 1.2816992e-16 
    1140    1226.5078        7 7.3409331e-16            3            1            3 1.2812645e-16 
    1145    1229.4943        7 7.3618494e-16            3            1            3 1.2810217e-16 
    1150    1229.8532        7 7.3825245e-16            3            1            3 1.2804638e-16 
    1155    1232.7768        7 7.4035552e-16            3            1            3 1.2801872e-16 
    1160    1233.6464        7 7.4245391e-16            3            1            3 1.2797896e-16 
    1165    1235.6166        7 7.4455881e-16            3            1            3 1.2793822e-16 
    1170    1237.6914        7 7.466851e-16            3            1            3 1.2791139e-16 
    1175    1238.7646        7 7.4880802e-16            3            1            3 1.2787366e-16 
    1180    1241.8343        7 7.5094752e-16            3            1            3 1.2784496e-16 
    1185    1242.0292        7 7.5306772e-16            3            1            3 1.2778939e-16 
    1190    1244.1006        7 7.5521603e-16            3            1            3 1.2775432e-16 
    1195    1246.2743        7 7.5738184e-16            3            1            3 1.2772914e-16 
    1200    1247.9536        7 7.5955285e-16            3            1            3 1.2770149e-16 
    1205      1248.43        7 7.6171442e-16            3            1            3 1.2765672e-16 
    1210    1250.0513        7 7.6389989e-16            3            1            3 1.2762815e-16 
    1215    1251.1382        7 7.6610714e-16            3            1            3 1.2761363e-16 
    1220    1253.5099        7 7.6829417e-16            3            1            3 1.2757111e-16 
    1225    1254.8218        7 7.7050456e-16            3            1            3 1.2754418e-16 
    1230    1256.8263        7 7.7270975e-16            3            1            3 1.2750422e-16 
    1235    1259.9988        7 7.7496251e-16            3            1            3  1.27504e-16 
    1240    1260.2781        7 7.7716832e-16            3            1            3 1.2744896e-16 
    1245    1262.6979        7 7.7940963e-16            3            1            3 1.2742151e-16 
    1250     1264.656        7 7.8164918e-16            3            1            3 1.2738438e-16 
    1255    1266.0501        7 7.8390261e-16            3            1            3 1.2735318e-16 
    1260    1268.5575        7 7.8615569e-16            3            1            3 1.2731364e-16 
    1265    1271.5365        7 7.884326e-16            3            1            3 1.2728993e-16 
    1270    1272.4613        7 7.907049e-16            3            1            3 1.2725357e-16 
    1275    1275.3197        8  7.93005e-16            4            1            3 1.2723694e-16 
    1280    1275.5213        8 7.9527489e-16            4            1            3 1.2718201e-16 
    1285    1277.1488        8 7.9759404e-16            4            1            3 1.2716821e-16 
    1290    1278.7469        8 7.9989421e-16            4            1            3 1.271273e-16 
    1295    1281.6964        8 8.0221982e-16            4            1            3 1.2710364e-16 
    1300    1282.1219        8 8.0452496e-16            4            1            3 1.270513e-16 
    1305     1283.972        8 8.0685194e-16            4            1            3 1.2701256e-16 
    1310    1286.2109        8 8.0920317e-16            4            1            3 1.2698982e-16 
    1315     1287.006        8 8.1155748e-16            4            1            3 1.2696185e-16 
    1320    1288.7108        8 8.1390645e-16            4            1            3 1.2692023e-16 
    1325     1291.284        8 8.1629397e-16            4            1            3 1.2690881e-16 
    1330    1291.6643        8  8.18647e-16            4            1            3 1.2685451e-16 
    1335    1293.0402        8  8.21036e-16            4            1            3 1.2682777e-16 
    1340      1295.87        8 8.2344602e-16            4            1            3 1.2681362e-16 
    1345    1296.4986        8 8.2584195e-16            4            1            3 1.2677691e-16 
    1350    1298.2793        8 8.2824171e-16            4            1            3 1.2673552e-16 
    1355    1299.9371        8 8.3066223e-16            4            1            3 1.2670637e-16 
    1360    1302.2402        8 8.3309922e-16            4            1            3 1.2668513e-16 
    1365    1302.7274        8 8.3552507e-16            4            1            3 1.2664416e-16 
    1370    1304.6549        8 8.3795936e-16            4            1            3 1.2660302e-16 
    1375    1305.7707        8 8.4040685e-16            4            1            3 1.2656642e-16 
    1380    1307.2422        8 8.4286045e-16            4            1            3 1.2652727e-16 
    1385    1308.8939        8 8.4532763e-16            4            1            3 1.2649297e-16 
    1390    1311.1233        8 8.478144e-16            4            1            3 1.2646953e-16 
    1395    1311.8882        8 8.502939e-16            4            1            3 1.2643005e-16 
    1400    1313.7933        8 8.5278394e-16            4            1            3 1.2639232e-16 
    1405     1315.537        8 8.5528479e-16            4            1            3 1.2635655e-16 
    1410    1317.5829        8 8.578035e-16            4            1            3 1.2632979e-16 
    1415     1318.504        8 8.6033044e-16            4            1            3 1.2630237e-16 
    1420    1320.1965        8 8.6285608e-16            4            1            3 1.2626472e-16 
    1425    1322.5562        8 8.654173e-16            4            1            3 1.2625369e-16 
    1430    1323.3044        9 8.6796696e-16            4            1            4 1.2622213e-16 
    1435    1325.2855        9 8.705205e-16            4            1            4 1.2618541e-16 
    1440    1327.3877        9 8.7310895e-16            4            1            4 1.2617457e-16 
    1445    1329.9979        9 8.7569307e-16            4            1            4 1.2615032e-16 
    1450    1330.3798        9 8.7825728e-16            4            1            4 1.2609703e-16 
    1455    1331.7874        9 8.8085812e-16            4            1            4 1.2607123e-16 
    1460     1333.529        9 8.8345686e-16            4            1            4 1.2603416e-16 
    1465    1335.8084        9 8.8608064e-16            4            1            4 1.2601292e-16 
    1470    1336.8568        9 8.8870743e-16            4            1            4 1.2598545e-16 
    1475    1338.6771        9 8.9134389e-16            4            1            4 1.2595838e-16 
    1480    1340.4418        9 8.9398013e-16            4            1            4 1.2592177e-16 
    1485    1342.5555        9 8.9663684e-16            4            1            4 1.2589631e-16 
    1490    1343.4555        9 8.9930124e-16            4            1            4 1.2586916e-16 
    1495    1345.1189        9 9.0196552e-16            4            1            4 1.2583248e-16 
    1500    1347.6988        9 9.046655e-16            4            1            4 1.2582208e-16 
    1505    1348.4445        9 9.0734444e-16            4            1            4 1.2578116e-16 
    1510     1350.163        9 9.1003729e-16            4            1            4 1.2574465e-16 
    1515    1351.6627        9 9.1274833e-16            4            1            4 1.257168e-16 
    1520     1353.743        9 9.1548613e-16            4            1            4 1.2570613e-16 
    1525    1355.1667        9 9.1820774e-16            4            1            4 1.2566968e-16 
    1530    1356.5469        9 9.2093698e-16            4            1            4 1.2563121e-16 
    1535    1359.8397        9 9.2369114e-16            4            1            4  1.25608e-16 
    1540    1360.5341        9 9.2644423e-16            4            1            4 1.2557402e-16 
    1545    1362.8425        9 9.2920182e-16            4            1            4 1.2553479e-16 
    1550    1364.4466        9 9.3201007e-16            4            1            4 1.2553646e-16 
    1555    1367.3257        9 9.3478754e-16            4            1            4 1.2549754e-16 
    1560    1370.2922        9 9.3759706e-16            4            1            4 1.2548082e-16 
    1565     1370.819        9 9.403915e-16            4            1            4 1.2543917e-16 
    1570    1374.6921        9 9.4322593e-16            4            1            4 1.2542758e-16 
    1575    1375.3647        9 9.4604867e-16            4            1            4 1.2539437e-16 
    1580    1377.8628        9 9.4887575e-16            4            1            4 1.2535551e-16 
    1585    1381.1481        9 9.5174463e-16            4            1            4 1.2534845e-16 
    1590    1381.6858        9 9.5458889e-16            4            1            4 1.2530671e-16 
    1595    1384.8899        9 9.5747317e-16            4            1            4 1.2529491e-16 
    1600    1386.1997        9 9.6034693e-16            4            1            4 1.2526248e-16 
    1605    1388.0404        9 9.6323768e-16            4            1            4 1.2523688e-16 
    1610    1391.9485        9 9.6616063e-16            4            1            4 1.2523329e-16 
    1615    1392.2184        9 9.6904546e-16            4            1            4 1.2518136e-16 
    1620    1394.6102        9 9.7196984e-16            4            1            4 1.2515872e-16 
    1625    1397.5107        9 9.7490716e-16            4            1            4 1.2513871e-16 
    1630    1398.1663        9 9.7783256e-16            4            1            4 1.2509647e-16 
    1635    1401.0797        9 9.8078824e-16            4            1            4 1.2507413e-16 
    1640    1402.0213        9 9.837501e-16            4            1            4 1.2504756e-16 
    1645    1403.9038        9 9.8671423e-16            4            1            4 1.2501282e-16 
    1650    1406.2525        9 9.8971585e-16            4            1            4 1.250051e-16 
    1655    1407.0828        9 9.9269707e-16            4            1            4 1.2496646e-16 
    1660    1408.8028        9 9.9569297e-16            4            1            4 1.2493195e-16 
    1665    1412.1211        9 9.9872478e-16            4            1            4 1.2492277e-16 
    1670     1413.201        9 1.0017509e-15            4            1            4 1.2489722e-16 
    1675    1415.9902        9 1.004782e-15            4            1            4 1.2486612e-16 
    1680    1417.7141        9 1.0078319e-15            4            1            4 1.2484303e-16 
    1685    1419.9689        9 1.0108972e-15            4            1            4 1.2482459e-16 
    1690    1420.7782        9 1.0139546e-15            4            1            4 1.2478752e-16 
    1695    1422.5234        9 1.017026e-15            4            1            4 1.2475361e-16 
    1700    1425.3675        9 1.0201332e-15            4            1            4 1.2474463e-16 
    1705     1426.063        9 1.0232354e-15            4            1            4 1.2471982e-16 
    1710    1428.0981        9 1.0263363e-15            4            1            4 1.2468268e-16 
    1715    1431.2644        9 1.0294813e-15            4            1            4 1.2467875e-16 
    1720    1431.7721        9 1.0326029e-15            4            1            4 1.2464045e-16 
    1725    1433.8925        9 1.0357369e-15            4            1            4 1.2460345e-16 
    1730    1435.6241        9 1.0389244e-15            4            1            4 1.2460896e-16 
    1735    1439.0089        9 1.0420979e-15            4            1            4 1.2458928e-16 
    1740    1439.3777        9 1.0452514e-15            4            1            4 1.2453844e-16 
    1745    1442.6394        9 1.0484446e-15            4            1            4 1.2451617e-16 
    1750    1445.7406        9 1.0516562e-15            4            1            4  1.24501e-16 
    1755     1446.192        9 1.0548515e-15            4            1            4 1.244582e-16 
    1760    1447.8866        9 1.0581021e-15            4            1            4 1.2445951e-16 
    1765    1450.0983        9 1.0613429e-15            4            1            4 1.2443955e-16 
    1770    1451.4005        9 1.0645927e-15            4            1            4 1.2441729e-16 
    1775    1453.3741        9 1.0678847e-15            4            1            4 1.2442575e-16 
    1780    1455.2301        9 1.0711785e-15            4            1            4 1.2442461e-16 
    1785    1457.6216        9 1.0744747e-15            4            1            4 1.2441432e-16 
    1790    1458.5234        9 1.0777583e-15            4            1            4 1.2437982e-16 
    1795    1460.3757        9 1.0810575e-15            4            1            4 1.2434933e-16 
    1800    1464.0334        9 1.0843916e-15            4            1            4 1.2434219e-16 
    1805    1465.2127        9 1.0877059e-15            4            1            4 1.2430349e-16 
    1810    1467.7443        9 1.0910383e-15            4            1            4 1.2427123e-16 
    1815    1470.2601        9 1.0943945e-15            4            1            4 1.2425105e-16 
    1820    1471.3074        9 1.0977784e-15            4            1            4 1.2424666e-16 
    1825    1473.7421        9 1.1011645e-15            4            1            4 1.2423267e-16 
    1830    1476.5055        9 1.1045844e-15            4            1            4 1.242406e-16 
    1835    1477.0717       10 1.1080012e-15            4            1            5 1.2423362e-16 
    1840    1479.5586       10 1.1114243e-15            4            1            5 1.2422088e-16 
    1845    1482.4902       10 1.1148632e-15            4            1            5 1.2421196e-16 
    1850    1483.3293       10 1.1183287e-15            4            1            5 1.2421754e-16 
    1855    1485.4381       10 1.1218161e-15            4            1            5 1.2423292e-16 
    1860    1488.2961       10 1.1252931e-15            4            1            5 1.2422583e-16 
    1865    1488.9423       10 1.1288023e-15            4            1            5 1.242388e-16 
    1870    1491.3111       10 1.1323081e-15            4            1            5 1.2423611e-16 
    1875    1493.8039       10 1.1358276e-15            4            1            5 1.2423484e-16 
    1880    1494.5937       10 1.1393804e-15            4            1            5 1.2425459e-16 
    1885    1497.1135       10 1.1429192e-15            4            1            5 1.2424794e-16 
    1890     1499.626       10 1.1464833e-15            4            1            5 1.2425427e-16 
    1895     1500.486       10 1.1500816e-15            4            1            5 1.242824e-16 
    1900    1502.9609       10 1.1536598e-15            4            1            5 1.2427782e-16 
    1905    1505.4361       11 1.1572498e-15            5            1            5 1.2427265e-16 
    1910    1506.2556       11 1.1608735e-15            5            1            5 1.2428861e-16 
    1915    1507.8868       11 1.1645016e-15            5            1            5 1.2429632e-16 
    1920    1511.1733       11 1.1681371e-15            5            1            5 1.2429882e-16 
    1925    1514.0264       11 1.1718031e-15            5            1            5 1.2431902e-16 
    1930    1514.9272       11 1.1754639e-15            5            1            5 1.2432142e-16 
    1935    1518.7566       11 1.1791327e-15            5            1            5 1.2431895e-16 
    1940    1520.9181       11 1.1828362e-15            5            1            5 1.2433833e-16 
    1945    1521.5131       11 1.1865403e-15            5            1            5 1.2434552e-16 
    1950    1523.3074       11 1.1902556e-15            5            1            5  1.24351e-16 
    1955    1527.0671       11 1.1939733e-15            5            1            5 1.2434586e-16 
    1960    1527.5128       11 1.1977519e-15            5            1            5 1.243886e-16 
    1965     1530.123       11 1.2015001e-15            5            1            5 1.2438795e-16 
    1970    1533.6545       11 1.205261e-15            5            1            5 1.2438688e-16 
    1975    1534.2994       11 1.2090535e-15            5            1            5 1.2440424e-16 
    1980     1536.768       11 1.2128631e-15            5            1            5 1.2442544e-16 
    1985    1539.8659       11 1.2166664e-15            5            1            5 1.2442723e-16 
    1990    1542.5526       11 1.2205033e-15            5            1            5 1.2444929e-16 
    1995    1543.0665       11 1.2243516e-15            5            1            5 1.2446945e-16 
    2000    1545.6009       11 1.2281976e-15            5            1            5 1.2447383e-16 
    2005    1548.9151       11 1.232056e-15            5            1            5 1.2447727e-16 
    2010     1549.645       11 1.2359478e-15            5            1            5 1.2450067e-16 
    2015    1552.2677       11 1.2398573e-15            5            1            5 1.2452823e-16 
    2020    1555.4948       12 1.2437587e-15            6            1            5 1.2453408e-16 
    2025    1558.8168       12 1.2476954e-15            6            1            5 1.2456167e-16 
    2030    1559.3625       12 1.2516315e-15            6            1            5 1.2457494e-16 
    2035    1564.7796       12  1.25557e-15            6            1            5 1.2457694e-16 
    2040     1579.668       12 1.2595582e-15            6            1            5 1.2461489e-16 
    2045    1593.1363       12 1.2635284e-15            6            1            5 1.2462105e-16 
    2050    1608.1898       13 1.267547e-15            7            1            5 1.2466177e-16 
    2055    1621.2301       13 1.2715462e-15            7            1            5 1.2466918e-16 
    2060      1638.15       13 1.275596e-15            7            1            5 1.2471318e-16 
    2065    1652.7295       13 1.2796254e-15            7            1            5 1.2472287e-16 
    2070    1670.4884       13 1.2837067e-15            7            1            5 1.2477039e-16 
    2075    1684.5787       13 1.2877667e-15            7            1            5 1.2478244e-16 
    2080    1704.1276       13 1.2918797e-15            7            1            5 1.2483344e-16 
    2085    1719.8455       13 1.2959702e-15            7            1            5 1.2484775e-16 
    2090    1738.3198       13 1.300115e-15            7            1            5 1.2490208e-16 
    2095    1754.3627       13 1.3042363e-15            7            1            5 1.2491856e-16 
    2100    1774.7872       13 1.308413e-15            7            1            5 1.2497614e-16 
    2105    1790.5801       13 1.312565e-15            7            1            5 1.2499472e-16 
    2110    1811.7258       13 1.3167737e-15            7            1            5 1.2505539e-16 
    2115    1827.4096       13 1.3209567e-15            7            1            5 1.2507601e-16 
    2120    1847.2515       13 1.3251974e-15            7            1            5 1.251397e-16 
    2125    1864.9908       13 1.3294115e-15            7            1            5 1.2516226e-16 
    2130    1885.1266       14 1.3336844e-15            7            1            6 1.2522889e-16 
    2135    1900.8434       14 1.3379298e-15            7            1            6 1.2525337e-16 
    2140    1919.9988       14 1.3422349e-15            7            1            6 1.2532285e-16 
    2145    1938.5531       14 1.3465117e-15            7            1            6 1.2534919e-16 
    2150    1961.2441       14 1.3508493e-15            7            1            6 1.2542146e-16 
    2155    1979.7882       14 1.3551577e-15            7            1            6 1.2544965e-16 
    2160    2002.8461       14 1.3595279e-15            7            1            6 1.2552465e-16 
    2165    2021.1499       14 1.363868e-15            7            1            6 1.2555461e-16 
    2170    2043.4309       14 1.368271e-15            7            1            6 1.2563231e-16 
    2175    2062.2986       14 1.3726431e-15            7            1            6 1.2566404e-16 
    2180    2086.5147       14 1.3770789e-15            7            1            6 1.2574439e-16 
    2185    2108.7628       14 1.3814831e-15            7            1            6 1.2577784e-16 
    2190     2134.452       14 1.3859521e-15            7            1            6 1.258608e-16 
    2195    2152.9294       14 1.3903886e-15            7            1            6 1.2589596e-16 
    2200    2172.9973       14 1.3948909e-15            7            1            6 1.2598149e-16 
    2205    2191.7956       14 1.3993599e-15            7            1            6 1.2601835e-16 
    2210    2215.9338       15 1.4038956e-15            7            1            7 1.2610643e-16 
    2215    2236.3082       15 1.4083973e-15            7            1            7 1.2614495e-16 
    2220    2261.7756       15 1.4129667e-15            7            1            7 1.2623554e-16 
    2225    2282.9155       15 1.4175013e-15            7            1            7 1.2627571e-16 
    2230    2307.6608       15 1.4221045e-15            7            1            7 1.2636879e-16 
    2235    2331.1885       15 1.4266722e-15            7            1            7 1.2641059e-16 
    2240    2354.3511       15 1.4313095e-15            7            1            7 1.2650614e-16 
    2245    2374.6584       15 1.4359105e-15            7            1            7 1.2654955e-16 
    2250    2400.8158       15 1.440582e-15            7            1            7 1.2664754e-16 
    2255    2423.2661       15 1.4452164e-15            7            1            7 1.2669254e-16 
    2260    2448.1832       15 1.4499224e-15            7            1            7 1.2679295e-16 
    2265    2471.7676       15 1.4545906e-15            7            1            7 1.2683953e-16 
    2270     2497.878       15 1.4593311e-15            7            1            7 1.2694233e-16 
    2275    2524.4058       15 1.4640333e-15            7            1            7 1.2699047e-16 
    2280    2551.0399       15 1.4688086e-15            7            1            7 1.2709562e-16 
    2285    2572.5414       15 1.4735449e-15            7            1            7 1.2714531e-16 
    2290    2599.0571       15 1.4783553e-15            7            1            7 1.2725281e-16 
    2295    2622.4332       15 1.4831259e-15            7            1            7 1.2730402e-16 
    2300    2652.2833       15 1.4879716e-15            7            1            7 1.2741383e-16 
    2305    2676.5136       15 1.4927767e-15            7            1            7 1.2746656e-16 
    2310    2701.4863       15 1.4976578e-15            7            1            7 1.2757866e-16 
    2315    2723.8419       15 1.5024977e-15            7            1            7 1.2763288e-16 
    2320    2752.6921       15 1.5074145e-15            7            1            7 1.2774725e-16 
    2325    2775.8653       15 1.5122893e-15            7            1            7 1.2780293e-16 
    2330    2802.7434       15 1.517242e-15            7            1            7 1.2791955e-16 
    2335    2829.6821       15 1.522152e-15            7            1            7 1.2797669e-16 
    2340     2857.823       15 1.5271407e-15            7            1            7 1.2809551e-16 
    2345    2882.7099       15 1.5320862e-15            7            1            7 1.2815408e-16 
    2350     2907.509       15 1.5371112e-15            7            1            7 1.282751e-16 
    2355     2930.228       15 1.5420923e-15            7            1            7 1.2833509e-16 
    2360     2955.951       15 1.5471538e-15            7            1            7 1.2845827e-16 
    2365     2985.755       15 1.5521707e-15            7            1            7 1.2851966e-16 
    2370    3013.6158       15 1.5572689e-15            7            1            7 1.2864497e-16 
    2375    3039.3248       15 1.5623219e-15            7            1            7 1.2870775e-16 
    2380     3070.169       15 1.567457e-15            7            1            7 1.2883515e-16 
    2385     3094.142       15 1.5725464e-15            7            1            7 1.2889929e-16 
    2390    3120.7335       15 1.5777186e-15            7            1            7 1.2902877e-16 
    2395    3146.4111       15 1.5828444e-15            7            1            7 1.2909425e-16 
    2400    3175.2306       15 1.588054e-15            7            1            7 1.2922576e-16 
    2405    3200.9565       15 1.5932166e-15            7            1            7 1.2929256e-16 
    2410    3231.9574       15 1.5984637e-15            7            1            7 1.2942609e-16 
    2415    3259.7441       15 1.6036633e-15            7            1            7 1.2949418e-16 
    2420    3291.4785       15 1.6089482e-15            7            1            7 1.2962969e-16 
    2425    3315.3629       15 1.614185e-15            7            1            7 1.2969907e-16 
    2430    3344.0095       15 1.6195079e-15            7            1            7 1.2983653e-16 
    2435    3372.6973       15 1.6247821e-15            7            1            7 1.2990715e-16 
    2440    3399.5283       15 1.6301433e-15            7            1            7 1.3004655e-16 
    2445     3428.195       15 1.6354552e-15            7            1            7 1.3011841e-16 
    2450    3459.6117       15 1.6408548e-15            7            1            7 1.3025969e-16 
    2455    3488.9046       15 1.6462046e-15            7            1            7 1.3033277e-16 
    2460    3516.7341       15 1.6516428e-15            7            1            7 1.3047592e-16 
    2465    3542.3454       15 1.6570308e-15            7            1            7 1.3055019e-16 
    2470    3573.4544       15 1.6625079e-15            7            1            7 1.3069516e-16 
    2475    3598.9258       15 1.6679342e-15            7            1            7 1.307706e-16 
    2480    3626.2816       16 1.6734505e-15            8            1            7 1.3091737e-16 
    2485    3654.0904       16 1.6789154e-15            8            1            7 1.3099397e-16 
    2490    3681.5551       16 1.6844711e-15            8            1            7 1.3114251e-16 
    2495    3707.3692       16 1.6899749e-15            8            1            7 1.3122023e-16 
    2500    3738.0666       16 1.6955701e-15            8            1            7 1.3137051e-16 
    2505    3767.4736       16 1.701113e-15            8            1            7 1.3144935e-16 
    2510    3796.5828       16 1.7067481e-15            8            1            7 1.3160133e-16 
    2515    3823.3668       16 1.7123303e-15            8            1            7 1.3168126e-16 
    2520    3851.1517       16 1.7180054e-15            8            1            7 1.3183492e-16 
    2525    3876.2019       16 1.7236272e-15            8            1            7 1.3191592e-16 
    2530    3909.0541       16 1.7293427e-15            8            1            7 1.3207122e-16 
    2535    3937.3128       16 1.7350043e-15            8            1            7 1.3215327e-16 
    2540    3967.6108       16 1.7407604e-15            8            1            7 1.323102e-16 
    2545    3996.7237       16 1.7464621e-15            8            1            7 1.3239328e-16 
    2550     4027.089       16 1.7522589e-15            8            1            7 1.325518e-16 
    2555    4054.4372       16 1.758001e-15            8            1            7 1.3263588e-16 
    2560    4082.8247       16 1.7638388e-15            8            1            7 1.3279597e-16 
    2565    4110.9554       16 1.7696215e-15            8            1            7 1.3288105e-16 
    2570    4142.1718       16 1.7755006e-15            8            1            7 1.3304268e-16 
    2575    4170.9076       16 1.7813242e-15            8            1            7 1.3312873e-16 
    2580    4200.5825       16 1.7872449e-15            8            1            7 1.3329186e-16 
    2585    4222.7261       16 1.7931095e-15            8            1            7 1.3337887e-16 
    2590    4246.5316       16 1.799072e-15            8            1            7 1.3354348e-16 
    2595    4268.7776       16 1.8049781e-15            8            1            7 1.3363143e-16 
    2600     4292.624       16 1.8109826e-15            8            1            7 1.337975e-16 
    2605    4315.0355       16 1.8169303e-15            8            1            7 1.3388637e-16 
    2610    4338.9264       16 1.8229771e-15            8            1            7 1.3405387e-16 
    2615    4361.3368       16 1.8289668e-15            8            1            7 1.3414364e-16 
    2620    4385.4404       16 1.8350562e-15            8            1            7 1.3431255e-16 
    2625    4408.0448       16 1.841088e-15            8            1            7 1.3440321e-16 
    2630     4432.231       16 1.8472203e-15            8            1            7 1.345735e-16 
    2635     4454.769       16 1.8532946e-15            8            1            7 1.3466503e-16 
    2640    4478.9652       16 1.8594699e-15            8            1            7 1.3483668e-16 
    2645    4501.8195       16 1.865587e-15            8            1            7 1.3492907e-16 
    2650    4526.0184       16 1.8718057e-15            8            1            7 1.3510206e-16 
    2655    4548.8111       16 1.8779657e-15            8            1            7 1.3519528e-16 
    2660    4572.9298       16 1.8842281e-15            8            1            7 1.3536959e-16 
    2665    4595.9163       16 1.8904315e-15            8            1            7 1.3546364e-16 
    2670    4620.3575       16 1.8967377e-15            8            1            7 1.3563924e-16 
    2675    4643.4049       16 1.9029847e-15            8            1            7 1.357341e-16 
    2680    4667.9649       16 1.9093352e-15            8            1            7 1.3591098e-16 
    2685    4691.2423       16 1.915626e-15            8            1            7 1.3600664e-16 
    2690    4715.7664       16 1.922021e-15            8            1            7 1.3618477e-16 
    2695    4739.1639       16 1.9283559e-15            8            1            7 1.3628122e-16 
    2700    4763.7282       16 1.9347957e-15            8            1            7 1.3646058e-16 
    2705    4787.0685       16 1.9411751e-15            8            1            7 1.365578e-16 
    2710    4811.7983       16 1.9476599e-15            8            1            7 1.3673838e-16 
    2715    4835.2301       16 1.9540841e-15            8            1            7 1.3683636e-16 
    2720    4860.0294       16 1.9606142e-15            8            1            7 1.3701816e-16 
    2725    4883.4537       17 1.9670834e-15            8            1            8 1.371169e-16 
    2730    4908.3828       17 1.9736592e-15            8            1            8 1.3729994e-16 
    2735    4932.0441       17 1.9801739e-15            8            1            8 1.3739946e-16 
    2740     4957.022       17 1.9867956e-15            8            1            8 1.3758371e-16 
    2745    4980.7519       17 1.9933559e-15            8            1            8 1.3768399e-16 
    2750    5005.5693       17 2.000024e-15            8            1            8 1.3786945e-16 
    2755    5029.4277       17 2.0066303e-15            8            1            8 1.3797048e-16 
    2760    5054.4867       17 2.0133449e-15            8            1            8 1.3815712e-16 
    2765    5078.3642       17 2.0199975e-15            8            1            8 1.3825888e-16 
    2770     5103.548       17 2.026759e-15            8            1            8 1.3844669e-16 
    2775     5127.448       17 2.0334582e-15            8            1            8 1.3854918e-16 
    2780    5152.6675       17 2.0402668e-15            8            1            8 1.3873814e-16 
    2785    5176.7105       17 2.0470129e-15            8            1            8 1.3884134e-16 
    2790     5201.954       17 2.0538691e-15            8            1            8 1.3903144e-16 
    2795    5226.0812       17 2.0606623e-15            8            1            8 1.3913535e-16 
    2800    5251.3196       17 2.0675663e-15            8            1            8 1.3932657e-16 
    2805    5275.5001       17 2.0744071e-15            8            1            8 1.3943116e-16 
    2810    5300.9835       17 2.0813592e-15            8            1            8 1.3962349e-16 
    2815    5325.3198       17 2.0882478e-15            8            1            8 1.3972877e-16 
    2820    5350.8229       18 2.0952483e-15            9            1            8 1.3992219e-16 
    2825    5375.1974       19 2.1021852e-15            9            1            9 1.4002815e-16 
    2830    5400.7604       19 2.1092344e-15            9            1            9 1.4022267e-16 
    2835    5425.2391       19 2.1162198e-15            9            1            9 1.4032932e-16 
    2840    5450.7886       19 2.1233182e-15            9            1            9 1.4052491e-16 
    2845    5475.4253       19 2.1303523e-15            9            1            9 1.4063221e-16 
    2850    5501.0651       19 2.1375001e-15            9            1            9 1.4082884e-16 
    2855    5524.6965       19 2.1445834e-15            9            1            9 1.4093677e-16 
    2860    5548.2461       19 2.1517808e-15            9            1            9 1.4113444e-16 
    2865    5570.9792       19 2.1589136e-15            9            1            9 1.4124301e-16 
    2870    5594.5879       19 2.1661611e-15            9            1            9 1.414417e-16 
    2875    5617.3348       19 2.1733437e-15            9            1            9 1.415509e-16 
    2880    5641.0455       20 2.1806415e-15            9            1           10 1.4175061e-16 
    2885    5663.8266       20 2.1878742e-15            9            1           10 1.4186043e-16 
    2890     5687.652       20 2.1952228e-15            9            1           10 1.4206114e-16 
    2895    5710.5199       20 2.202506e-15            9            1           10 1.4217158e-16 
    2900    5734.3926       20 2.2099056e-15            9            1           10 1.4237329e-16 
    2905    5757.3811       20 2.2172397e-15            9            1           10 1.4248433e-16 
    2910     5781.163       20 2.2246906e-15            9            1           10 1.4268703e-16 
    2915    5804.0973       20 2.2320759e-15            9            1           10 1.4279867e-16 
    2920    5828.0302       21 2.2395786e-15           10            1           10 1.4300235e-16 
    2925    5851.0577       21 2.2470154e-15           10            1           10 1.4311458e-16 
    2930    5875.0572       21 2.2545701e-15           10            1           10 1.4331922e-16 
    2935    5898.1835       22 2.2620588e-15           11            1           10 1.4343205e-16 
    2940    5922.1258       22 2.269666e-15           11            1           10 1.4363762e-16 
    2945    5945.3289       22 2.2772068e-15           11            1           10 1.4375096e-16 
    2950    5969.4046       22 2.2848666e-15           11            1           10 1.4395731e-16 
    2955    5992.6735       22 2.2924599e-15           11            1           10 1.4407112e-16 
    2960    6016.7383       22 2.3001728e-15           11            1           10 1.4427831e-16 
    2965    6040.0362       22 2.307819e-15           11            1           10 1.4439265e-16 
    2970    6064.2108       22 2.3155853e-15           11            1           10 1.4460072e-16 
    2975    6087.6064       22 2.3232847e-15           11            1           10 1.4471561e-16 
    2980    6111.8347       22 2.3311048e-15           11            1           10 1.4492458e-16 
    2985    6135.2874       22 2.338858e-15           11            1           10 1.4504002e-16 
    2990    6159.5051       22 2.3467323e-15           11            1           10 1.4524989e-16 
    2995    6183.0757       23 2.3545395e-15           11            1           11 1.4536588e-16 
    3000    6207.3635       24 2.3624683e-15           12            1           11 1.4557666e-16 
    3005    6230.9709       24 2.3703299e-15           12            1           11 1.456932e-16 
    3010    6255.3393       24 2.3783137e-15           12            1           11 1.4590489e-16 
    3015    6279.0241       24 2.3862301e-15           12            1           11 1.4602198e-16 
    3020    6303.4797       24 2.3942692e-15           12            1           11 1.4623457e-16 
    3025     6327.196       24 2.4022408e-15           12            1           11 1.463522e-16 
    3030    6351.6792       24 2.4103356e-15           12            1           11 1.4656569e-16 
    3035    6375.4618       24 2.4183626e-15           12            1           11 1.4668386e-16 
    3040    6400.0259       24 2.4265136e-15           12            1           11 1.4689824e-16 
    3045    6423.9408       24 2.4345965e-15           12            1           11 1.4701695e-16 
    3050    6448.5926       25 2.4428039e-15           13            1           11 1.4723222e-16 
    3055    6472.5648       25 2.4509432e-15           13            1           11 1.4735146e-16 
    3060    6497.1715       25 2.4592074e-15           13            1           11 1.4756761e-16 
    3065    6521.1971       25 2.4674034e-15           13            1           11 1.4768739e-16 
    3070    6545.9471       25 2.4757248e-15           13            1           11 1.4790442e-16 
    3075    6569.9898       26 2.4839779e-15           14            1           11 1.4802472e-16 
    3080    6594.7231       26 2.4923569e-15           14            1           11 1.4824262e-16 
    3085    6618.7855       26 2.5006674e-15           14            1           11 1.4836345e-16 
    3090    6643.5806       26 2.5091045e-15           14            1           11 1.4858222e-16 
    3095    6667.7507       26 2.5174729e-15           14            1           11 1.4870356e-16 
    3100    6692.5786       26 2.5259684e-15           14            1           11 1.489232e-16 
    3105    6716.8697       26 2.5343951e-15           14            1           11 1.4904506e-16 
    3110    6741.7757       26 2.5429494e-15           14            1           11 1.4926556e-16 
    3115     6766.062       26 2.5514347e-15           14            1           11 1.4938794e-16 
    3120    6791.0959       26 2.5600482e-15           14            1           11 1.4960929e-16 
    3125     6815.456       26 2.5685926e-15           14            1           11 1.4973218e-16 
    3130    6840.6514       26 2.5772657e-15           14            1           11 1.4995439e-16 
    3135     6865.104       26 2.5858696e-15           14            1           11 1.5007778e-16 
    3140    6890.1864       26 2.5946027e-15           14            1           11 1.5030084e-16 
    3145    6914.6141       26 2.6032665e-15           14            1           11 1.5042474e-16 
    3150    6939.7457       27 2.6120601e-15           14            1           12 1.5064864e-16 
    3155    6964.2755       27 2.6207841e-15           14            1           12 1.5077305e-16 
    3160    6989.3941       27 2.6296386e-15           14            1           12 1.5099778e-16 
    3165    7014.0087       27 2.6384233e-15           14            1           12 1.5112269e-16 
    3170    7039.2107       27 2.647339e-15           14            1           12 1.5134827e-16 
    3175    7063.8675       27 2.6561849e-15           14            1           12 1.5147368e-16 
    3180     7089.171       27 2.6651623e-15           14            1           12 1.5170009e-16 
    3185    7113.8855       27 2.6740698e-15           14            1           12 1.5182599e-16 
    3190    7139.2297       27 2.6831093e-15           14            1           12 1.5205324e-16 
    3195    7164.0079       28 2.6920788e-15           14            2           12 1.5217963e-16 
    3200    7189.4147       28 2.7011808e-15           14            2           12 1.5240771e-16 
    3205    7214.2971       28 2.7102127e-15           14            2           12 1.525346e-16 
    3210    7239.6953       28 2.7193777e-15           14            2           12 1.5276349e-16 
    3215    7264.5773       28 2.7284724e-15           14            2           12 1.5289088e-16 
    3220    7290.0597       28 2.7377008e-15           14            2           12 1.531206e-16 
    3225    7315.0606       28 2.7468588e-15           14            2           12 1.5324847e-16 
    3230    7340.5816       29 2.756151e-15           15            2           12 1.5347901e-16 
    3235    7365.6272       29 2.7653727e-15           15            2           12 1.5360737e-16 
    3240    7391.2307       29 2.7747292e-15           15            2           12 1.5383873e-16 
    3245    7416.3007       29 2.7840151e-15           15            2           12 1.5396757e-16 
    3250    7441.9051       29 2.7934363e-15           15            2           12 1.5419975e-16 
    3255    7466.9708       29 2.8027868e-15           15            2           12 1.5432908e-16 
    3260    7492.7473       29 2.8122732e-15           15            2           12 1.5456207e-16 
    3265    7517.9884       29 2.8216887e-15           15            2           12 1.5469188e-16 
    3270    7543.7134       29 2.8312407e-15           15            2           12 1.5492569e-16 
    3275    7568.9289       29 2.8407218e-15           15            2           12 1.5505598e-16 
    3280    7594.6107       29 2.8503398e-15           15            2           12 1.5529059e-16 
    3285    7619.9343       29 2.8598868e-15           15            2           12 1.5542136e-16 
    3290    7645.7433       29 2.8695714e-15           15            2           12 1.5565679e-16 
    3295    7671.1034       29 2.8791848e-15           15            2           12 1.5578803e-16 
    3300    7696.9035       29 2.8889363e-15           15            2           12 1.5602427e-16 
    3305    7722.3067       29 2.8986166e-15           15            2           12 1.5615599e-16 
    3310    7748.2112       31 2.9084356e-15           15            2           14 1.5639303e-16 
    3315    7773.7481       31 2.9181832e-15           15            2           14 1.5652523e-16 
    3320    7799.7387       31 2.9280701e-15           15            2           14 1.5676307e-16 
    3325    7825.3366       31 2.9378855e-15           15            2           14 1.5689574e-16 
    3330    7851.4324       31 2.9478408e-15           15            2           14 1.5713439e-16 
    3335    7877.1299       31 2.9577245e-15           15            2           14 1.5726754e-16 
    3340    7903.1421       31 2.9677486e-15           15            2           14 1.5750699e-16 
    3345    7928.8679       31 2.977701e-15           15            2           14 1.576406e-16 
    3350     7954.969       31 2.9877944e-15           15            2           14 1.5788085e-16 
    3355    7980.7716       31 2.9978161e-15           15            2           14 1.5801494e-16 
    3360    8006.9439       31 3.0079793e-15           15            2           14 1.5825599e-16 
    3365    8032.7484       31 3.0180707e-15           15            2           14 1.5839055e-16 
    3370    8058.9979       31 3.0283042e-15           15            2           14 1.586324e-16 
    3375    8084.8783       31 3.0384658e-15           15            2           14 1.5876743e-16 
    3380    8111.1709       31 3.0487701e-15           15            2           14 1.5901009e-16 
    3385    8137.0565       31 3.0590024e-15           15            2           14 1.5914559e-16 
    3390    8163.4202       31 3.0693779e-15           15            2           14 1.5938904e-16 
    3395     8189.381       31 3.0796814e-15           15            2           14 1.5952501e-16 
    3400    8215.7533       31 3.0901287e-15           15            2           14 1.5976926e-16 
    3405    8241.7489       31 3.1005038e-15           15            2           14 1.5990569e-16 
    3410    8268.2729       31 3.1110234e-15           15            2           14 1.6015073e-16 
    3415    8294.3497       31 3.1214707e-15           15            2           14 1.6028763e-16 
    3420    8320.8145       31 3.1320629e-15           15            2           14 1.6053346e-16 
    3425    8347.0641       31 3.1425829e-15           15            2           14 1.6067083e-16 
    3430    8373.6798       31 3.1532484e-15           15            2           14 1.6091745e-16 
    3435     8399.954       31 3.1638415e-15           15            2           14 1.6105528e-16 
    3440    8426.5498       31 3.1745808e-15           15            2           14 1.613027e-16 
    3445    8452.8798       31 3.1852476e-15           15            2           14  1.61441e-16 
    3450    8479.5416       31 3.1960612e-15           15            2           14 1.6168921e-16 
    3455    8505.8401       31 3.2068022e-15           15            2           14 1.6182797e-16 
    3460    8532.5777       31 3.2176905e-15           15            2           14 1.6207697e-16 
    3465    8558.8942       31 3.2285062e-15           15            2           14 1.6221619e-16 
    3470    8585.6146       31 3.2394698e-15           15            2           14 1.6246599e-16 
    3475    8612.0095       31 3.2503607e-15           15            2           14 1.6260568e-16 
    3480    8638.7993       31 3.2614002e-15           15            2           14 1.6285627e-16 
    3485    8665.2598       31 3.2723669e-15           15            2           14 1.6299642e-16 
    3490    8692.1465       31 3.2834826e-15           15            2           14 1.632478e-16 
    3495    8718.7543       31 3.2945256e-15           15            2           14 1.6338841e-16 
    3500    8745.5735       31 3.3057182e-15           15            2           14 1.6364058e-16 
    3505    8772.0933       31 3.316838e-15           15            2           14 1.6378166e-16 
    3510    8799.0215       31 3.3281081e-15           15            2           14 1.6403462e-16 
    3515    8825.7533       31 3.3393052e-15           15            2           14 1.6417616e-16 
    3520    8852.7198       31 3.3506532e-15           15            2           14 1.6442991e-16 
    3525    8879.4404       32 3.3619282e-15           15            2           15 1.6457191e-16 
    3530    8906.4524       32 3.3733546e-15           15            2           15 1.6482646e-16 
    3535    8933.2063       32 3.3847081e-15           15            2           15 1.6496892e-16 
    3540    8960.3676       32 3.3962136e-15           15            2           15 1.6522426e-16 
    3545    8987.1862       32 3.407646e-15           15            2           15 1.6536718e-16 
    3550    9014.3073       32 3.419231e-15           15            2           15 1.6562331e-16 
    3555    9041.1984       32 3.4307429e-15           15            2           15 1.6576669e-16 
    3560    9068.4035       32 3.4424081e-15           15            2           15 1.6602362e-16 
    3565    9095.2931       32 3.4540001e-15           15            2           15 1.6616746e-16 
    3570    9122.5171       32 3.465746e-15           15            2           15 1.6642518e-16 
    3575    9149.3684       32 3.4774186e-15           15            2           15 1.6656948e-16 
    3580    9176.7268       32 3.4892457e-15           15            2           15 1.6682799e-16 
    3585     9203.915       32 3.5009995e-15           15            2           15 1.6697275e-16 
    3590    9231.4049       32 3.5129085e-15           15            2           15 1.6723205e-16 
    3595    9258.5563       32 3.524744e-15           15            2           15 1.6737728e-16 
    3600    9286.0311       33 3.5367353e-15           15            2           16 1.6763737e-16 
    3605    9313.2538       33 3.5486532e-15           15            2           16 1.6778306e-16 
    3610    9340.7961       33 3.5607275e-15           15            2           16 1.6804394e-16 
    3615    9368.1133       33 3.5727283e-15           15            2           16 1.6819009e-16 
    3620    9395.7278       33 3.584886e-15           15            2           16 1.6845177e-16 
    3625    9423.0809       33 3.5969703e-15           15            2           16 1.6859838e-16 
    3630    9450.7672       34 3.6092122e-15           15            2           17 1.6886085e-16 
    3635    9478.2358       34 3.6213805e-15           15            2           17 1.6900793e-16 
    3640    9505.9216       34 3.6337071e-15           15            2           17 1.692712e-16 
    3645    9533.3775       34 3.6459601e-15           15            2           17 1.6941873e-16 
    3650    9561.0698       34 3.6583719e-15           15            2           17 1.696828e-16 
    3655    9588.6229       35 3.6707102e-15           16            2           17 1.6983079e-16 
    3660    9616.3914       35 3.6832079e-15           16            2           17 1.7009565e-16 
    3665    9643.9297       35 3.695632e-15           16            2           17 1.7024408e-16 
    3670    9671.7578       35 3.7082162e-15           16            2           17 1.7050968e-16 
    3675    9699.3039       35 3.7207267e-15           16            2           17 1.7065854e-16 
    3680    9727.1762       35 3.7333979e-15           16            2           17 1.7092491e-16 
    3685    9754.8539       35 3.7459954e-15           16            2           17 1.7107422e-16 
    3690    9782.9317       35 3.7587542e-15           16            2           17 1.7134136e-16 
    3695     9810.645       35 3.7714394e-15           16            2           17 1.7149113e-16 
    3700    9838.6105       35 3.7842865e-15           16            2           17 1.7175907e-16 
    3705    9866.2626       35 3.7970599e-15           16            2           17 1.7190929e-16 
    3710    9894.2723       35 3.8099959e-15           16            2           17 1.7217803e-16 
    3715    9922.0041       35 3.8228581e-15           16            2           17 1.7232871e-16 
    3720    9950.0553       35 3.8358836e-15           16            2           17 1.7259824e-16 
    3725    9977.8725       36 3.8488353e-15           17            2           17 1.7274939e-16 
    3730    10005.988       36 3.861951e-15           17            2           17 1.7301972e-16 
    3735    10033.878       36 3.8749928e-15           17            2           17 1.7317133e-16 
    3740    10062.021       36 3.8881992e-15           17            2           17 1.7344245e-16 
    3745    10089.939       37 3.9013318e-15           18            2           17 1.7359453e-16 
    3750    10118.028       38 3.9146295e-15           19            2           17 1.7386646e-16 
    3755    10145.987       38 3.9278535e-15           19            2           17 1.7401899e-16 
    3760     10174.22       38 3.9412433e-15           19            2           17 1.7429172e-16 
    3765     10200.64       38 3.9545592e-15           19            2           17 1.7444473e-16 
    3770    10227.151       38 3.9680417e-15           19            2           17 1.7471826e-16 
    3775     10253.49       38 3.9814503e-15           19            2           17 1.7487173e-16 
    3780    10280.098       38 3.995026e-15           19            2           17 1.7514607e-16 
    3785    10306.481       38 4.0085279e-15           19            2           17    1.753e-16 
    3790     10333.23       38 4.0221976e-15           19            2           17 1.7557514e-16 
    3795    10359.804       38 4.0357934e-15           19            2           17 1.7572954e-16 
    3800    10386.564       38 4.0495578e-15           19            2           17 1.7600549e-16 
    3805     10413.11       38 4.0632482e-15           19            2           17 1.7616035e-16 
    3810    10439.932       38 4.0771078e-15           19            2           17 1.7643711e-16 
    3815    10466.554       39 4.0908935e-15           20            2           17 1.7659244e-16 
    3820    10493.441       39 4.104849e-15           20            2           17   1.7687e-16 
    3825    10520.039       40 4.1187306e-15           21            2           17 1.770258e-16 
    3830    10546.862       40 4.1327827e-15           21            2           17 1.7730417e-16 
    3835    10573.554       40 4.1467609e-15           21            2           17 1.7746044e-16 
    3840    10600.474       40 4.1609103e-15           21            2           17 1.7773962e-16 
    3845    10627.307       40 4.1749858e-15           21            2           17 1.7789635e-16 
    3850    10654.338       41 4.1892331e-15           22            2           17 1.7817635e-16 
    3855     10681.18       41 4.2034065e-15           22            2           17 1.7833355e-16 
    3860    10708.252       41 4.2177525e-15           22            2           17 1.7861435e-16 
    3865    10735.084       41 4.2320245e-15           22            2           17 1.7877202e-16 
    3870    10762.097       41 4.2464698e-15           22            2           17 1.7905364e-16 
    3875    10789.002       41 4.2608411e-15           22            2           17 1.7921178e-16 
    3880    10816.014       41 4.2753864e-15           22            2           17 1.7949421e-16 
    3885    10842.929       41 4.2898577e-15           22            2           17 1.7965282e-16 
    3890    10870.032       41 4.3045037e-15           22            2           17 1.7993607e-16 
    3895    10897.025       42 4.3190758e-15           22            2           18 1.8009514e-16 
    3900    10924.213       42 4.3338232e-15           22            2           18 1.8037921e-16 
[...]
    4045    11723.975       46 4.7824931e-15           24            2           20 1.8688432e-16 
    4050    11752.081       46 4.798849e-15           24            2           20 1.8718072e-16 
    4055    11779.989       46 4.8151313e-15           24            2           20 1.8734736e-16 
    4060    11808.088       46 4.8316005e-15           24            2           20 1.8764459e-16 
    4065    11836.002       46 4.8479962e-15           24            2           20 1.8781172e-16 
    4070    11864.113       46 4.8645795e-15           24            2           20 1.8810979e-16 
    4075     11892.18       46 4.8810893e-15           24            2           20 1.882774e-16 
    4080    11920.379       46 4.8977875e-15           24            2           20 1.8857631e-16 
    4085    11948.446       47 4.9144122e-15           25            2           20 1.887444e-16 
    4090    11976.626       47 4.9312261e-15           25            2           20 1.8904415e-16 
    4095    12004.734       47 4.9479666e-15           25            2           20 1.8921272e-16 
    4100    12033.074       47 4.964897e-15           25            2           20 1.8951332e-16 
    4105    12061.244       47 4.981754e-15           25            2           20 1.8968237e-16 
    4110    12089.568       47 4.9988017e-15           25            2           20 1.8998381e-16 
    4115     12117.95       47 5.015776e-15           25            2           20 1.9015335e-16 
    4120    12146.324       47 5.0329419e-15           25            2           20 1.9045564e-16 
    4125      12174.6       47 5.0500344e-15           25            2           20 1.9062566e-16 
    4130    12203.049       49 5.0673192e-15           25            2           22 1.9092879e-16 
    4135    12231.395       50 5.0845307e-15           25            2           23 1.910993e-16 
    4140    12259.884       51 5.1019353e-15           26            2           23 1.9140328e-16 
    4145    12288.704       51 5.1192666e-15           26            2           23 1.9157428e-16 
    4150    12317.751       52 5.1367918e-15           27            2           23 1.9187911e-16 
    4155    12346.805       52 5.1542438e-15           27            2           23 1.9205059e-16 
    4160    12375.936       52 5.1718905e-15           27            2           23 1.9235627e-16 
    4165    12404.949       52 5.189464e-15           27            2           23 1.9252825e-16 
    4170    12434.051       52 5.2072329e-15           27            2           23 1.9283478e-16 
    4175    12463.046       52 5.2249288e-15           27            2           23 1.9300724e-16 
    4180    12492.227       53 5.2428209e-15           28            2           23 1.9331463e-16 
    4185    12521.238       53  5.26064e-15           28            2           23 1.9348758e-16 
    4190    12550.357       53 5.2786561e-15           28            2           23 1.9379583e-16 
    4195    12579.428       53 5.2965992e-15           28            2           23 1.9396927e-16 
    4200    12608.612       53 5.3147402e-15           28            2           23 1.9427837e-16 
    4205    12637.755       53 5.3328083e-15           28            2           23 1.9445231e-16 
    4210    12667.117       54 5.351075e-15           28            2           24 1.9476227e-16 
    4215    12696.344       54 5.3692689e-15           28            2           24 1.9493669e-16 
    4220    12725.663       55 5.3876622e-15           28            2           25 1.9524751e-16 
    4225    12754.979       55 5.4059829e-15           28            2           25 1.9542243e-16 
    4230    12784.428       55 5.4245037e-15           28            2           25 1.9573412e-16 
    4235    12813.872       55 5.4429519e-15           28            2           25 1.9590953e-16 
    4240    12843.707       55 5.4616011e-15           28            2           25 1.9622208e-16 
    4245    12873.394       55 5.4801777e-15           28            2           25 1.9639799e-16 
    4250    12903.005       55 5.4989562e-15           28            2           25 1.967114e-16 
    4255    12932.496       55 5.5176622e-15           28            2           25 1.9688781e-16 
    4260    12962.158       55 5.5365709e-15           28            2           25 1.9720209e-16 
    4265    12991.608       55 5.5554072e-15           28            2           25 1.9737899e-16 
    4270    13021.329       55 5.574447e-15           28            2           25 1.9769414e-16 
    4275     13051.16       55 5.5934144e-15           28            2           25 1.9787154e-16 
    4280    13080.821       55 5.6125862e-15           28            2           25 1.9818756e-16 
    4285    13110.499       55 5.6316858e-15           28            2           25 1.9836545e-16 
    4290    13140.447       55 5.6509905e-15           28            2           25 1.9868234e-16 
    4295     13170.16       55 5.670223e-15           28            2           25 1.9886074e-16 
    4300    13199.994       55 5.6896616e-15           28            2           25 1.9917851e-16 
    4305    13229.981       55 5.7090281e-15           28            2           25 1.993574e-16 
    4310    13259.932       55 5.7286014e-15           28            2           25 1.9967605e-16 
    4315    13289.683       56 5.7481028e-15           28            2           26 1.9985544e-16 
    4320    13319.679       56 5.7678119e-15           28            2           26 2.0017496e-16 
    4325    13349.603       56 5.7874491e-15           28            2           26 2.0035486e-16 
    4330     13379.89       56 5.8072949e-15           28            2           26 2.0067526e-16 
    4335    13410.053       57 5.8270689e-15           29            2           26 2.0085566e-16 
    4340    13440.273       57 5.8470522e-15           29            2           26 2.0117694e-16 
    4345    13470.189       57 5.8669639e-15           29            2           26 2.0135785e-16 
    4350    13500.475       57 5.8870859e-15           29            2           26 2.0168001e-16 
    4355    13530.623       57 5.9071363e-15           29            2           26 2.0186142e-16 
    4360    13560.798       57 5.9273978e-15           29            2           26 2.0218447e-16 
    4365    13591.001       57 5.9475878e-15           29            2           26 2.0236638e-16 
    4370    13621.226       57 5.9679898e-15           29            2           26 2.0269031e-16 
    4375    13651.325       57 5.9883205e-15           29            2           26 2.0287274e-16 
    4380    13681.514       57 6.0088641e-15           29            2           26 2.0319756e-16 
    4385    13711.565       57 6.0293364e-15           29            2           26 2.0338049e-16 
    4390    13741.837       58 6.0500224e-15           29            2           27 2.037062e-16 
    4395    13771.994       58 6.0706373e-15           29            2           27 2.0388964e-16 
    4400    13802.428       59 6.0914668e-15           30            2           27 2.0421624e-16 
    4405    13832.764       59 6.1122254e-15           30            2           27 2.0440019e-16 
    4410    13863.121       59 6.1331995e-15           30            2           27 2.0472768e-16 
    4415    13893.392       59 6.1541027e-15           30            2           27 2.0491214e-16 
    4420    13923.786       59 6.1752222e-15           30            2           27 2.0524053e-16 
    4425    13954.217       60 6.196271e-15           30            2           28 2.054255e-16 
    4430     13984.71       60 6.217537e-15           30            2           28 2.0575478e-16 
    4435    14015.234       60 6.2387325e-15           30            2           28 2.0594026e-16 
    4440    14045.773       60 6.2601461e-15           30            2           28 2.0627044e-16 
    4445    14076.107       61 6.2814891e-15           31            2           28 2.0645644e-16 
    4450    14106.723       61 6.3030513e-15           31            2           28 2.0678752e-16 
    4455    14137.191       61 6.3245431e-15           31            2           28 2.0697404e-16 
    4460    14167.719       62 6.3462548e-15           31            2           29 2.0730602e-16 
    4465     14198.26       62 6.3678963e-15           31            2           29 2.0749305e-16 
    4470    14229.199       62 6.3897587e-15           31            2           29 2.0782593e-16 
    4475    14259.792       62 6.4115509e-15           31            2           29 2.0801348e-16 
    4480    14290.644       62 6.433565e-15           31            2           29 2.0834727e-16 
    4485    14321.373       62 6.4555091e-15           31            2           29 2.0853533e-16 
    4490    14352.305       62 6.4776759e-15           31            2           29 2.0887003e-16 
    4495    14383.032       62 6.4997729e-15           31            2           29 2.0905862e-16 
    4500    14413.863       63 6.5220935e-15           32            2           29 2.0939423e-16 
    4505    14444.655       63 6.5443444e-15           32            2           29 2.0958333e-16 
    4510    14475.689       63 6.5668198e-15           32            2           29 2.0991985e-16 
    4515    14506.606       63 6.5892257e-15           32            2           29 2.1010948e-16 
    4520    14537.649       63 6.6118571e-15           32            2           29 2.1044693e-16 
    4525    14568.594       64 6.6344192e-15           32            2           30 2.1063708e-16 
    4530    14599.638       64 6.6572076e-15           32            2           30 2.1097545e-16 
    4535     14630.51       64 6.6799269e-15           32            2           30 2.1116613e-16 
    4540    14661.604       64 6.7028735e-15           32            2           30 2.1150542e-16 
    4545     14692.83       65 6.725751e-15           32            2           31 2.1169662e-16 
    4550    14723.906       65 6.7488569e-15           32            2           31 2.1203683e-16 
    4555    14754.912       66 6.7718939e-15           33            2           31 2.1222856e-16 
    4560    14786.116       66 6.7951601e-15           33            2           31 2.1256969e-16 
    4565     14817.26       66 6.8183575e-15           33            2           31 2.1276195e-16 
    4570    14848.517       66 6.8417852e-15           33            2           31  2.13104e-16 
    4575    14879.806       66 6.8651444e-15           33            2           31 2.1329678e-16 
    4580    14911.127       66 6.8887347e-15           33            2           31 2.1363976e-16 
    4585     14942.44       66 6.9122566e-15           33            2           31 2.1383307e-16 
    4590    14973.826       67 6.9360106e-15           34            2           31 2.1417698e-16 
    4595    15005.207       67 6.9596964e-15           34            2           31 2.1437082e-16 
    4600    15036.576       68 6.9836153e-15           35            2           31 2.1471566e-16 
    4605    15067.901       68 7.0074662e-15           35            2           31 2.1491003e-16 
    4610    15099.355       68 7.0315511e-15           35            2           31 2.1525579e-16 
    4615    15130.759       68 7.0555682e-15           35            2           31 2.154507e-16 
    4620    15162.168       68 7.0798203e-15           35            2           31 2.157974e-16 
    4625    15193.586       68 7.1040047e-15           35            2           31 2.1599283e-16 
    4630    15225.058       68 7.1284252e-15           35            2           31 2.1634047e-16 
    4635    15256.536       68 7.1527782e-15           35            2           31 2.1653643e-16 
    4640    15288.131       68 7.1773682e-15           35            2           31 2.1688501e-16 
    4645    15319.645       68 7.2018909e-15           35            2           31 2.1708151e-16 
    4650    15351.298       68 7.2266517e-15           35            2           31 2.1743103e-16 
    4655     15382.87       68 7.2513452e-15           35            2           31 2.1762806e-16 
    4660    15415.082       68 7.2762779e-15           35            2           31 2.1797852e-16 
    4665    15446.974       68 7.3011436e-15           35            2           31 2.1817609e-16 
    4670    15478.761       68 7.3262493e-15           35            2           31 2.1852749e-16 
    4675    15510.409       68 7.3512883e-15           35            2           31 2.1872561e-16 
    4680    15542.223       68 7.3765683e-15           35            2           31 2.1907795e-16 
    4685    15574.022       68 7.4017818e-15           35            2           31 2.192766e-16 
    4690    15606.396       68 7.4272374e-15           35            2           31 2.1962989e-16 
    4695    15638.152       68 7.4526266e-15           35            2           31 2.1982909e-16 
    4700    15670.366       68 7.4782589e-15           35            2           31 2.2018333e-16 
    4705    15702.229       69 7.5038251e-15           36            2           31 2.2038306e-16 
    4710    15734.252       70 7.5296354e-15           36            2           32 2.2073826e-16 
    4715    15766.423       71 7.5553797e-15           36            2           33 2.2093853e-16 
    4720    15798.605       71 7.5813692e-15           36            2           33 2.2129468e-16 
    4725    15830.714       71 7.607293e-15           36            2           33 2.214955e-16 
    4730    15862.895       71 7.6334629e-15           36            2           33 2.218526e-16 
    4735    15894.926       71 7.6595674e-15           36            2           33 2.2205397e-16 
    4740    15927.163       71 7.6859191e-15           36            2           33 2.2241203e-16 
    4745    15959.573       72 7.7122055e-15           37            2           33 2.2261394e-16 
    4750    15991.798       72 7.7387402e-15           37            2           33 2.2297297e-16 
    4755    16024.004       72 7.7652098e-15           37            2           33 2.2317542e-16 
    4760    16056.299       72 7.7919288e-15           37            2           33 2.2353541e-16 
    4765    16088.594       72 7.818583e-15           37            2           33 2.2373842e-16 
    4770    16121.046       72 7.8454876e-15           37            2           33 2.2409937e-16 
    4775    16153.481       72 7.8723275e-15           37            2           33 2.2430293e-16 
    4780    16185.849       72 7.899419e-15           37            2           33 2.2466484e-16 
    4785    16218.265       72 7.926446e-15           37            2           33 2.2486895e-16 
    4790    16250.745       72 7.9537256e-15           37            2           33 2.2523184e-16 
    4795    16283.187       72 7.9809411e-15           37            2           33 2.254365e-16 
    4800    16315.926       72 8.0084102e-15           37            2           33 2.2580036e-16 
    4805    16348.426       72 8.0358154e-15           37            2           33 2.2600557e-16 
    4810     16381.02       73 8.0634752e-15           38            2           33 2.263704e-16 
    4815    16413.568       75 8.0910715e-15           39            2           34 2.2657617e-16 
    4820    16446.304       75 8.1189235e-15           39            2           34 2.2694198e-16 
    4825    16478.948       75 8.1467121e-15           39            2           34 2.271483e-16 
    4830    16511.585       75 8.1747576e-15           39            2           34 2.2751508e-16 
    4835    16544.087       75 8.2027399e-15           39            2           34 2.2772196e-16 
    4840    16576.929       76 8.2309802e-15           40            2           34 2.2808973e-16 
    4845    16609.754       76 8.2591576e-15           40            2           34 2.2829717e-16 
    4850     16642.58       77 8.2875941e-15           41            2           34 2.2866591e-16 
    4855    16675.296       78 8.315968e-15           42            2           34 2.2887391e-16 
    4860    16708.065       78 8.344602e-15           42            2           34 2.2924364e-16 
    4865    16740.782       78 8.3731737e-15           42            2           34 2.294522e-16 
    4870    16773.594       78 8.4020066e-15           42            2           34 2.2982292e-16 
    4875    16806.282       79 8.4307775e-15           43            2           34 2.3003204e-16 
    4880    16839.282       79 8.4598108e-15           43            2           34 2.3040374e-16 
    4885    16872.106       80 8.4887822e-15           43            2           35 2.3061343e-16 
    4890    16905.076       80 8.5180172e-15           43            2           35 2.3098612e-16 
    4895    16938.145       80 8.5471907e-15           43            2           35 2.3119637e-16 
    4900    16971.422       80 8.5766288e-15           43            2           35 2.3157006e-16 
    4905    17004.635       82 8.6060057e-15           44            2           36 2.3178088e-16 
    4910    17037.983       84 8.6356483e-15           45            2           37 2.3215556e-16 
    4915    17071.509       85  8.66523e-15           46            2           37 2.3236694e-16 
    4920    17104.716       85 8.6950786e-15           46            2           37 2.3274263e-16 
    4925    17137.918       85 8.7248665e-15           46            2           37 2.3295457e-16 
    4930    17171.313       85 8.7549225e-15           46            2           37 2.3333126e-16 
    4935    17204.506       86 8.7849181e-15           46            2           38 2.3354378e-16 
    4940    17237.868       86 8.8151829e-15           46            2           38 2.3392146e-16 
    4945    17271.396       86 8.8453876e-15           46            2           38 2.3413455e-16 
    4950    17304.797       86 8.8758628e-15           46            2           38 2.3451324e-16 
    4955    17338.247       86 8.9062781e-15           46            2           38 2.347269e-16 
    4960    17371.725       86 8.936965e-15           46            2           38 2.351066e-16 
    4965    17405.112       86 8.9675925e-15           46            2           38 2.3532083e-16 
    4970    17438.578       86 8.9984927e-15           46            2           38 2.3570154e-16 
    4975    17471.921       86 9.0293338e-15           46            2           38 2.3591635e-16 
    4980    17505.391       86 9.0604488e-15           46            2           38 2.3629806e-16 
    4985     17538.93       86 9.0915049e-15           46            2           38 2.3651344e-16 
    4990    17572.681       87 9.1228361e-15           47            2           38 2.3689617e-16 
    4995     17606.15       87 9.1541087e-15           47            2           38 2.3711212e-16 
    5000      17639.8       87 9.1856577e-15           47            2           38 2.3749587e-16 
Loop time of 17639.8 on 1 procs for 5000 steps with 87 atoms

Performance: 881642.632 tau/day, 0.283 timesteps/s
99.9% CPU use with 1 MPI tasks x no OpenMP threads

MPI task timing breakdown:
Section |  min time  |  avg time  |  max time  |%varavg| %total
---------------------------------------------------------------
Pair    | 0.040992   | 0.040992   | 0.040992   |   0.0 |  0.00
Neigh   | 9.4733     | 9.4733     | 9.4733     |   0.0 |  0.05
Comm    | 0.060401   | 0.060401   | 0.060401   |   0.0 |  0.00
Output  | 0.035806   | 0.035806   | 0.035806   |   0.0 |  0.00
Modify  | 17630      | 17630      | 17630      |   0.0 | 99.95
Other   |            | 0.02316    |            |       |  0.00

Nlocal:    87 ave 87 max 87 min
Histogram: 1 0 0 0 0 0 0 0 0 0
Nghost:    0 ave 0 max 0 min
Histogram: 1 0 0 0 0 0 0 0 0 0
Neighs:    382 ave 382 max 382 min
Histogram: 1 0 0 0 0 0 0 0 0 0

Total # of neighbors = 382
Ave neighs/atom = 4.3908
Neighbor list builds = 5000
Dangerous builds = 0


Total wall time: 4:54:04
