ITEM: TIMESTEP
0
ITEM: NUMBER OF ATOMS
0
ITEM: BOX BOUNDS pp pp fm
-0.15 0.15
-0.15 0.15
-1 0.5
ITEM: ATOMS id type diameter mass x y z vx vy vz 
ITEM: TIMESTEP
1000
ITEM: NUMBER OF ATOMS
687
ITEM: BOX BOUNDS pp pp fm
-0.15 0.15
-0.15 0.15
-1 0.500106
ITEM: ATOMS id type diameter mass x y z vx vy vz 
1 1 0.005 6.54498e-08 0.113066 0.0927066 0.499667 0 0 -0.0258057 
2 1 0.005 6.54498e-08 0.123892 -0.0416278 0.499449 0 0 -0.0331961 
3 1 0.005 6.54498e-08 -0.0385109 0.147258 0.498671 0 0 -0.0515603 
4 1 0.005 6.54498e-08 0.129677 -0.0116559 0.499317 0 0 -0.0369749 
5 1 0.005 6.54498e-08 0.0809472 -0.0203111 0.498714 0 0 -0.050718 
6 1 0.005 6.54498e-08 -0.148523 0.0814621 0.499758 0 0 -0.0219914 
7 1 0.005 6.54498e-08 -0.145716 -0.14219 0.499123 0 0 -0.041884 
8 1 0.005 6.54498e-08 -0.144408 -0.0630236 0.499819 0 0 -0.0190062 
9 1 0.005 6.54498e-08 -0.104665 0.103205 0.49994 0 0 -0.0109298 
10 1 0.005 6.54498e-08 -0.0975806 0.0630203 0.499759 0 0 -0.0219371 
11 1 0.005 6.54498e-08 0.0785703 -0.0697994 0.49987 0 0 -0.0161146 
12 1 0.005 6.54498e-08 -0.107671 -0.0327854 0.499816 0 0 -0.0191852 
13 1 0.005 6.54498e-08 0.0599156 -0.0987718 0.4996 0 0 -0.0282956 
14 1 0.005 6.54498e-08 -0.103661 -0.124373 0.498963 0 0 -0.0455362 
15 1 0.005 6.54498e-08 0.00426863 0.0429413 0.49891 0 0 -0.0467019 
16 1 0.005 6.54498e-08 0.117589 -0.0834662 0.499529 0 0 -0.0307037 
17 1 0.005 6.54498e-08 -0.133787 -0.0569293 0.498737 0 0 -0.0502559 
18 1 0.005 6.54498e-08 0.111963 -0.1389 0.49861 0 0 -0.0527381 
19 1 0.005 6.54498e-08 0.101041 -0.0984332 0.49942 0 0 -0.034054 
20 1 0.005 6.54498e-08 -0.0373037 0.0370645 0.499048 0 0 -0.043628 
21 1 0.005 6.54498e-08 0.0631967 0.146886 0.498802 0 0 -0.0489518 
22 1 0.005 6.54498e-08 0.0320277 0.0889642 0.49902 0 0 -0.0442676 
23 1 0.005 6.54498e-08 0.0761089 -0.0378295 0.499556 0 0 -0.0297924 
24 1 0.005 6.54498e-08 -0.0787805 0.136851 0.499898 0 0 -0.0142608 
25 1 0.005 6.54498e-08 0.115198 -0.0622444 0.49975 0 0 -0.0223838 
26 1 0.005 6.54498e-08 0.136239 -0.138673 0.499627 0 0 -0.0273204 
27 1 0.005 6.54498e-08 -0.0449852 -0.0663503 0.499947 0 0 -0.0103201 
28 1 0.005 6.54498e-08 0.0134463 0.0913864 0.498718 0 0 -0.0506466 
29 1 0.005 6.54498e-08 0.142399 -0.0979565 0.499758 0 0 -0.0219944 
30 1 0.005 6.54498e-08 0.113785 -0.110547 0.499156 0 0 -0.0410819 
31 1 0.005 6.54498e-08 0.14568 0.147807 0.499235 0 0 -0.0391182 
32 1 0.005 6.54498e-08 -0.0154241 -0.0325367 0.499252 0 0 -0.0386741 
33 1 0.005 6.54498e-08 0.084244 -0.111232 0.499243 0 0 -0.0389227 
34 1 0.005 6.54498e-08 0.0242672 -0.140788 0.499436 0 0 -0.0335773 
35 1 0.005 6.54498e-08 -0.138865 0.0994441 0.499081 0 0 -0.0428831 
36 1 0.005 6.54498e-08 0.0856483 0.0906009 0.499014 0 0 -0.0444011 
37 1 0.005 6.54498e-08 0.0795375 -0.0125576 0.499246 0 0 -0.0388374 
38 1 0.005 6.54498e-08 -0.0820172 0.0364768 0.499671 0 0 -0.0256407 
39 1 0.005 6.54498e-08 0.00658717 0.0105849 0.499595 0 0 -0.028463 
40 1 0.005 6.54498e-08 0.0696819 -0.0560898 0.498532 0 0 -0.0541798 
41 1 0.005 6.54498e-08 -0.128229 0.0557669 0.499139 0 0 -0.0414998 
42 1 0.005 6.54498e-08 -0.0637323 -0.149344 0.499645 0 0 -0.0266552 
43 1 0.005 6.54498e-08 0.134963 0.0281154 0.499118 0 0 -0.0420035 
44 1 0.005 6.54498e-08 -0.0275728 0.0838866 0.499494 0 0 -0.0318211 
45 1 0.005 6.54498e-08 0.00147734 -0.070307 0.499458 0 0 -0.0329385 
46 1 0.005 6.54498e-08 0.0198489 0.000441083 0.499754 0 0 -0.0222016 
47 1 0.005 6.54498e-08 0.140567 0.00197384 0.499703 0 0 -0.0243622 
48 1 0.005 6.54498e-08 -0.127369 0.108233 0.499884 0 0 -0.0152368 
49 1 0.005 6.54498e-08 -0.015962 -0.0736343 0.499098 0 0 -0.0424716 
50 1 0.005 6.54498e-08 -0.11274 -0.0171462 0.499638 0 0 -0.0269224 
51 1 0.005 6.54498e-08 0.0868364 -0.040169 0.499582 0 0 -0.0289036 
52 1 0.005 6.54498e-08 -0.0861724 0.10043 0.499516 0 0 -0.0311238 
53 1 0.005 6.54498e-08 0.0573867 -0.00162709 0.499233 0 0 -0.0391722 
54 1 0.005 6.54498e-08 0.14647 -0.074455 0.499849 0 0 -0.01736 
55 1 0.005 6.54498e-08 0.0966104 0.131695 0.499898 0 0 -0.0142804 
56 1 0.005 6.54498e-08 0.00769451 0.0215862 0.499789 0 0 -0.0205313 
57 1 0.005 6.54498e-08 0.0366421 -0.0561642 0.499487 0 0 -0.0320405 
58 1 0.005 6.54498e-08 -0.112661 0.107517 0.498631 0 0 -0.0523221 
59 1 0.005 6.54498e-08 0.0892163 0.0578951 0.499721 0 0 -0.0236328 
60 1 0.005 6.54498e-08 -0.0352041 -0.0756843 0.498608 0 0 -0.0527745 
61 1 0.005 6.54498e-08 -0.0695261 -0.0247147 0.499852 0 0 -0.0172215 
62 1 0.005 6.54498e-08 -0.0840793 -0.120912 0.499921 0 0 -0.0125824 
63 1 0.005 6.54498e-08 -0.0334994 0.0751665 0.49868 0 0 -0.0513807 
64 1 0.005 6.54498e-08 0.0319581 0.119444 0.498671 0 0 -0.0515661 
65 1 0.005 6.54498e-08 -0.0561393 -0.0327247 0.499802 0 0 -0.0198914 
66 1 0.005 6.54498e-08 -0.00334454 -0.111697 0.499904 0 0 -0.0138804 
67 1 0.005 6.54498e-08 0.00833135 -0.0750024 0.499103 0 0 -0.0423648 
68 1 0.005 6.54498e-08 0.0677697 -0.0953656 0.499651 0 0 -0.0264111 
69 1 0.005 6.54498e-08 0.109931 -0.0899338 0.499742 0 0 -0.0227023 
70 1 0.005 6.54498e-08 -0.0182387 0.0629192 0.49915 0 0 -0.0412277 
71 1 0.005 6.54498e-08 -0.0987279 -0.0197981 0.499915 0 0 -0.0130023 
72 1 0.005 6.54498e-08 0.0923453 0.147206 0.49893 0 0 -0.046272 
73 1 0.005 6.54498e-08 0.0998785 -0.14198 0.499747 0 0 -0.0224856 
74 1 0.005 6.54498e-08 -0.0725777 -0.0129943 0.499801 0 0 -0.0199671 
75 1 0.005 6.54498e-08 -0.0680007 0.111435 0.49971 0 0 -0.0240837 
76 1 0.005 6.54498e-08 0.0300327 -0.140075 0.499583 0 0 -0.0288835 
77 1 0.005 6.54498e-08 -0.109933 0.0538042 0.499893 0 0 -0.0146025 
78 1 0.005 6.54498e-08 0.0414724 0.126002 0.499908 0 0 -0.0135444 
79 1 0.005 6.54498e-08 0.109186 -0.00583145 0.499858 0 0 -0.0168651 
80 1 0.005 6.54498e-08 0.124394 -0.00895128 0.499578 0 0 -0.029045 
81 1 0.005 6.54498e-08 -0.0852872 -0.0220311 0.49928 0 0 -0.0379562 
82 1 0.005 6.54498e-08 0.134693 -0.0144368 0.498983 0 0 -0.0451035 
83 1 0.005 6.54498e-08 -0.0896509 0.136721 0.499439 0 0 -0.0335056 
84 1 0.005 6.54498e-08 -0.114998 0.125288 0.499052 0 0 -0.0435471 
85 1 0.005 6.54498e-08 0.0552522 0.123792 0.498596 0 0 -0.0530037 
86 1 0.005 6.54498e-08 -0.0840308 0.094468 0.499861 0 0 -0.0166924 
87 1 0.005 6.54498e-08 0.148683 -0.0868307 0.498955 0 0 -0.0457208 
88 1 0.005 6.54498e-08 0.0823496 -0.149609 0.499696 0 0 -0.0246562 
89 1 0.005 6.54498e-08 -0.0226222 -0.110492 0.499579 0 0 -0.0290046 
90 1 0.005 6.54498e-08 0.0936479 0.140497 0.499629 0 0 -0.0272499 
91 1 0.005 6.54498e-08 -0.0574296 -0.118858 0.49987 0 0 -0.0161217 
92 1 0.005 6.54498e-08 -0.0107999 -0.0146402 0.498921 0 0 -0.0464566 
93 1 0.005 6.54498e-08 0.138881 -0.128707 0.499714 0 0 -0.0239027 
94 1 0.005 6.54498e-08 0.12876 -0.12345 0.499287 0 0 -0.0377581 
95 1 0.005 6.54498e-08 0.0734819 -0.0891013 0.499769 0 0 -0.0214851 
96 1 0.005 6.54498e-08 -0.125668 -0.108038 0.499717 0 0 -0.0238068 
97 1 0.005 6.54498e-08 0.112076 -0.0448334 0.499063 0 0 -0.0432849 
98 1 0.005 6.54498e-08 0.110952 -0.0373256 0.499524 0 0 -0.0308663 
99 1 0.005 6.54498e-08 0.09028 -0.0645229 0.49948 0 0 -0.0322507 
100 1 0.005 6.54498e-08 0.119613 0.0290995 0.499577 0 0 -0.0290826 
101 1 0.005 6.54498e-08 0.148621 0.0677151 0.498969 0 0 -0.0454154 
102 1 0.005 6.54498e-08 -0.0845289 0.122647 0.49992 0 0 -0.0126797 
103 1 0.005 6.54498e-08 0.0795269 0.109309 0.498745 0 0 -0.0501135 
104 1 0.005 6.54498e-08 0.149587 0.100316 0.498885 0 0 -0.0472172 
105 1 0.005 6.54498e-08 0.0211511 -0.0136518 0.498927 0 0 -0.0463188 
106 1 0.005 6.54498e-08 -0.00333693 0.0162359 0.499279 0 0 -0.0379904 
107 1 0.005 6.54498e-08 -0.114049 -0.125985 0.499864 0 0 -0.0164815 
108 1 0.005 6.54498e-08 -0.117865 -0.0540849 0.49949 0 0 -0.0319557 
109 1 0.005 6.54498e-08 -0.0699562 -0.0538287 0.498864 0 0 -0.0476599 
110 1 0.005 6.54498e-08 0.124912 0.0011309 0.499841 0 0 -0.0178491 
111 1 0.005 6.54498e-08 -0.0356418 0.0685695 0.499013 0 0 -0.0444365 
112 1 0.005 6.54498e-08 0.0481663 0.130436 0.499945 0 0 -0.0104947 
113 1 0.005 6.54498e-08 0.0301156 0.0525435 0.499147 0 0 -0.0412985 
114 1 0.005 6.54498e-08 0.0136529 -0.0358446 0.49881 0 0 -0.0487827 
115 1 0.005 6.54498e-08 -0.105295 0.00260593 0.499575 0 0 -0.0291684 
116 1 0.005 6.54498e-08 -0.117698 0.0443477 0.499077 0 0 -0.0429757 
117 1 0.005 6.54498e-08 0.119423 0.137112 0.499443 0 0 -0.0333697 
118 1 0.005 6.54498e-08 0.0877842 -0.0107191 0.499821 0 0 -0.0189391 
119 1 0.005 6.54498e-08 0.0452161 0.0473083 0.498545 0 0 -0.0539467 
120 1 0.005 6.54498e-08 -0.0209552 0.0058031 0.498735 0 0 -0.0502969 
121 1 0.005 6.54498e-08 0.0552851 0.0765041 0.499672 0 0 -0.0256094 
122 1 0.005 6.54498e-08 0.0914466 0.0427297 0.499045 0 0 -0.0437171 
123 1 0.005 6.54498e-08 -0.00664187 -0.0299329 0.499433 0 0 -0.0336677 
124 1 0.005 6.54498e-08 -0.0066594 -0.0244712 0.499197 0 0 -0.0400708 
125 1 0.005 6.54498e-08 0.11155 0.112888 0.499287 0 0 -0.0377618 
126 1 0.005 6.54498e-08 0.121285 -0.0676318 0.499617 0 0 -0.0276715 
127 1 0.005 6.54498e-08 0.0123734 0.059434 0.499924 0 0 -0.0123258 
128 1 0.005 6.54498e-08 -0.0392457 0.0980383 0.499589 0 0 -0.0286776 
129 1 0.005 6.54498e-08 -0.118498 0.0983487 0.499509 0 0 -0.0313297 
130 1 0.005 6.54498e-08 -0.114225 -0.0754401 0.498876 0 0 -0.0474193 
131 1 0.005 6.54498e-08 -0.00838495 0.0740785 0.499856 0 0 -0.0169872 
132 1 0.005 6.54498e-08 0.0429839 0.0302345 0.498697 0 0 -0.0510472 
133 1 0.005 6.54498e-08 -0.040405 0.112623 0.498735 0 0 -0.0503105 
134 1 0.005 6.54498e-08 0.0795235 0.0517474 0.499087 0 0 -0.0427318 
135 1 0.005 6.54498e-08 0.0458432 0.086096 0.499461 0 0 -0.0328351 
136 1 0.005 6.54498e-08 -0.149807 0.0867148 0.498952 0 0 -0.0457921 
137 1 0.005 6.54498e-08 -0.0291819 0.0402911 0.498936 0 0 -0.0461255 
138 1 0.005 6.54498e-08 -0.0247381 0.0271357 0.498602 0 0 -0.0528886 
139 1 0.005 6.54498e-08 0.0622724 -0.0871808 0.499936 0 0 -0.0112814 
140 1 0.005 6.54498e-08 0.0418188 -0.0511841 0.499826 0 0 -0.0186383 
141 1 0.005 6.54498e-08 -0.0245769 0.0361997 0.498876 0 0 -0.0474209 
142 1 0.005 6.54498e-08 0.0538832 -0.0845551 0.498528 0 0 -0.0542632 
143 1 0.005 6.54498e-08 0.0292178 -0.0360985 0.499198 0 0 -0.04006 
144 1 0.005 6.54498e-08 0.050292 -0.142539 0.499896 0 0 -0.0144496 
145 1 0.005 6.54498e-08 0.0908314 -0.0959784 0.499579 0 0 -0.0290057 
146 1 0.005 6.54498e-08 0.108415 -0.0701307 0.498686 0 0 -0.0512715 
147 1 0.005 6.54498e-08 0.106899 -0.0522506 0.498954 0 0 -0.0457419 
148 1 0.005 6.54498e-08 0.073174 0.135519 0.49938 0 0 -0.0352133 
149 1 0.005 6.54498e-08 -0.140142 -0.0700258 0.499222 0 0 -0.0394459 
150 1 0.005 6.54498e-08 -0.0499418 0.028491 0.499099 0 0 -0.042448 
151 1 0.005 6.54498e-08 0.0984378 -0.05666 0.498734 0 0 -0.0503308 
152 1 0.005 6.54498e-08 0.0246615 -0.114425 0.49976 0 0 -0.0219171 
153 1 0.005 6.54498e-08 -0.107792 0.0396856 0.499187 0 0 -0.0403152 
154 1 0.005 6.54498e-08 -0.0660486 -0.0792001 0.499621 0 0 -0.0275444 
155 1 0.005 6.54498e-08 -0.0763137 -0.104635 0.499407 0 0 -0.0344445 
156 1 0.005 6.54498e-08 -0.00475293 -0.0825329 0.499844 0 0 -0.0176392 
157 1 0.005 6.54498e-08 0.118111 -0.00391877 0.499889 0 0 -0.0149076 
158 1 0.005 6.54498e-08 -0.125537 0.00112522 0.499482 0 0 -0.0322059 
159 1 0.005 6.54498e-08 -0.0194252 -0.0792465 0.499264 0 0 -0.0383783 
160 1 0.005 6.54498e-08 0.14282 0.0746293 0.49955 0 0 -0.0300156 
161 1 0.005 6.54498e-08 0.107765 0.105186 0.499348 0 0 -0.0361097 
162 1 0.005 6.54498e-08 -0.0978452 0.116357 0.498793 0 0 -0.0491358 
163 1 0.005 6.54498e-08 0.0150307 0.0202729 0.499626 0 0 -0.0273684 
164 1 0.005 6.54498e-08 0.0355593 0.0457781 0.499188 0 0 -0.0403088 
165 1 0.005 6.54498e-08 -0.0598313 0.0145338 0.498635 0 0 -0.0522534 
166 1 0.005 6.54498e-08 -0.0946268 -0.0922588 0.499538 0 0 -0.0303981 
167 1 0.005 6.54498e-08 -0.133934 -0.125624 0.499941 0 0 -0.0108254 
168 1 0.005 6.54498e-08 -0.107759 -0.00524951 0.499365 0 0 -0.0356363 
169 1 0.005 6.54498e-08 -0.0800415 -0.057014 0.498891 0 0 -0.0470904 
170 1 0.005 6.54498e-08 0.0510638 -0.0712362 0.499925 0 0 -0.0122302 
171 1 0.005 6.54498e-08 -0.0914462 -0.036644 0.49973 0 0 -0.0232508 
172 1 0.005 6.54498e-08 -0.0114646 -0.0848633 0.499607 0 0 -0.028033 
173 1 0.005 6.54498e-08 -0.110067 -0.103761 0.499229 0 0 -0.039275 
174 1 0.005 6.54498e-08 -0.0744558 -0.0784265 0.499827 0 0 -0.0186031 
175 1 0.005 6.54498e-08 -0.1339 0.148732 0.499606 0 0 -0.0280684 
176 1 0.005 6.54498e-08 -0.0350999 -0.1245 0.499798 0 0 -0.0201039 
177 1 0.005 6.54498e-08 -0.0296518 -0.0573107 0.499417 0 0 -0.0341481 
178 1 0.005 6.54498e-08 0.0777685 -0.0448397 0.49911 0 0 -0.0422002 
179 1 0.005 6.54498e-08 -0.0097762 0.0913571 0.499107 0 0 -0.0422703 
180 1 0.005 6.54498e-08 0.0770159 -0.0940634 0.499139 0 0 -0.0414996 
181 1 0.005 6.54498e-08 0.004297 -0.0803976 0.499765 0 0 -0.0216989 
182 1 0.005 6.54498e-08 0.0908248 0.0931932 0.499817 0 0 -0.0191076 
183 1 0.005 6.54498e-08 0.0642158 -0.124769 0.499127 0 0 -0.0417947 
184 1 0.005 6.54498e-08 0.14688 -0.0915193 0.498625 0 0 -0.0524354 
185 1 0.005 6.54498e-08 0.096041 -0.138164 0.499782 0 0 -0.0208983 
186 1 0.005 6.54498e-08 -0.0941276 -0.102897 0.499881 0 0 -0.0154314 
187 1 0.005 6.54498e-08 -0.144434 0.0961985 0.499799 0 0 -0.0200294 
188 1 0.005 6.54498e-08 -0.0386319 -0.0861034 0.499383 0 0 -0.0351234 
189 1 0.005 6.54498e-08 0.114983 -0.0748808 0.499827 0 0 -0.0186116 
190 1 0.005 6.54498e-08 -0.0645168 -0.13425 0.499053 0 0 -0.0435311 
191 1 0.005 6.54498e-08 0.0379395 0.149836 0.498927 0 0 -0.0463188 
192 1 0.005 6.54498e-08 0.0226085 -0.119094 0.499348 0 0 -0.0361037 
193 1 0.005 6.54498e-08 -0.14276 0.0309198 0.499933 0 0 -0.0115778 
194 1 0.005 6.54498e-08 -0.115583 -0.101336 0.499009 0 0 -0.0445151 
195 1 0.005 6.54498e-08 0.0277747 0.0093375 0.498611 0 0 -0.0527195 
196 1 0.005 6.54498e-08 0.103462 0.0935466 0.499938 0 0 -0.0111644 
197 1 0.005 6.54498e-08 -0.0318923 0.0864337 0.49953 0 0 -0.030662 
198 1 0.005 6.54498e-08 0.130977 -0.0644847 0.498929 0 0 -0.0462805 
199 1 0.005 6.54498e-08 -0.10558 0.0209213 0.499286 0 0 -0.0377869 
200 1 0.005 6.54498e-08 -0.0139115 -0.110582 0.498588 0 0 -0.053141 
201 1 0.005 6.54498e-08 -0.0375184 0.0284876 0.499107 0 0 -0.0422754 
202 1 0.005 6.54498e-08 0.0963514 -0.0227732 0.499626 0 0 -0.027353 
203 1 0.005 6.54498e-08 0.126538 0.0191832 0.499222 0 0 -0.0394375 
204 1 0.005 6.54498e-08 0.060584 0.0347909 0.499293 0 0 -0.0376099 
205 1 0.005 6.54498e-08 0.0874291 0.0213684 0.498709 0 0 -0.0508146 
206 1 0.005 6.54498e-08 0.0105128 -0.0114669 0.498917 0 0 -0.046534 
207 1 0.005 6.54498e-08 0.0343064 -0.0130023 0.498599 0 0 -0.0529359 
208 1 0.005 6.54498e-08 0.0755189 -0.0536719 0.498628 0 0 -0.0523962 
209 1 0.005 6.54498e-08 -0.000769424 -0.0317162 0.499524 0 0 -0.03087 
210 1 0.005 6.54498e-08 0.0491759 -0.00112084 0.498846 0 0 -0.048039 
211 1 0.005 6.54498e-08 0.112952 -0.0120971 0.499723 0 0 -0.0235307 
212 1 0.005 6.54498e-08 0.0734731 0.0627596 0.49978 0 0 -0.0209738 
213 1 0.005 6.54498e-08 -0.0548906 -0.0470677 0.498754 0 0 -0.0499206 
214 1 0.005 6.54498e-08 0.114047 0.0876861 0.499353 0 0 -0.0359711 
215 1 0.005 6.54498e-08 0.000330916 -0.138294 0.499946 0 0 -0.0104318 
216 1 0.005 6.54498e-08 0.0878761 0.0339714 0.499563 0 0 -0.0295796 
217 1 0.005 6.54498e-08 -0.134277 0.107924 0.499404 0 0 -0.0345149 
218 1 0.005 6.54498e-08 -0.0937966 0.0597384 0.498581 0 0 -0.0532693 
219 1 0.005 6.54498e-08 -0.0247143 0.127469 0.499646 0 0 -0.0266199 
220 1 0.005 6.54498e-08 -0.120928 0.0650435 0.499931 0 0 -0.0117546 
221 1 0.005 6.54498e-08 -0.0324979 0.107679 0.49895 0 0 -0.045826 
222 1 0.005 6.54498e-08 -0.0655086 -0.00337213 0.499468 0 0 -0.0326158 
223 1 0.005 6.54498e-08 0.0429508 0.0738806 0.499465 0 0 -0.0327143 
224 1 0.005 6.54498e-08 0.0942577 -0.111391 0.498563 0 0 -0.0536075 
225 1 0.005 6.54498e-08 0.0484452 0.0191508 0.499628 0 0 -0.0272906 
226 1 0.005 6.54498e-08 -0.0213717 -0.0943849 0.499493 0 0 -0.0318353 
227 1 0.005 6.54498e-08 -0.0524723 0.0988343 0.499685 0 0 -0.0251152 
228 1 0.005 6.54498e-08 0.0442804 -0.0789653 0.499084 0 0 -0.0428152 
229 1 0.005 6.54498e-08 0.0877896 0.0802954 0.499607 0 0 -0.0280504 
230 1 0.005 6.54498e-08 0.118979 -0.122066 0.499844 0 0 -0.0176862 
231 1 0.005 6.54498e-08 -0.14362 -0.0230255 0.499923 0 0 -0.0124309 
232 1 0.005 6.54498e-08 -0.0511783 -0.0540013 0.499003 0 0 -0.0446481 
233 1 0.005 6.54498e-08 -0.0769219 -0.126208 0.499039 0 0 -0.0438502 
234 1 0.005 6.54498e-08 -0.0943524 0.0190168 0.498974 0 0 -0.0452922 
235 1 0.005 6.54498e-08 -0.0730807 -0.0673796 0.499909 0 0 -0.0134806 
236 1 0.005 6.54498e-08 -0.0135809 0.0457723 0.499231 0 0 -0.0392138 
237 1 0.005 6.54498e-08 0.128897 0.0708225 0.499116 0 0 -0.0420522 
238 1 0.005 6.54498e-08 0.0380691 -0.0733779 0.499577 0 0 -0.0290821 
239 1 0.005 6.54498e-08 -0.0324696 -0.0168405 0.499299 0 0 -0.0374489 
240 1 0.005 6.54498e-08 -0.0733183 0.139359 0.499762 0 0 -0.0218282 
241 1 0.005 6.54498e-08 0.00319961 0.075803 0.499923 0 0 -0.0123851 
242 1 0.005 6.54498e-08 0.135933 0.130681 0.499233 0 0 -0.0391574 
243 1 0.005 6.54498e-08 0.0428628 0.0944972 0.499844 0 0 -0.0176489 
244 1 0.005 6.54498e-08 0.0621554 0.0460706 0.499693 0 0 -0.0247719 
245 1 0.005 6.54498e-08 -0.0620333 -0.0931443 0.498688 0 0 -0.0512257 
246 1 0.005 6.54498e-08 -0.0311547 -0.117029 0.499932 0 0 -0.011697 
247 1 0.005 6.54498e-08 0.106198 -0.126298 0.498961 0 0 -0.0455812 
248 1 0.005 6.54498e-08 0.00911523 -0.10025 0.499486 0 0 -0.0320584 
249 1 0.005 6.54498e-08 0.0244039 0.0559433 0.499924 0 0 -0.012333 
250 1 0.005 6.54498e-08 -0.0975637 0.0465751 0.499124 0 0 -0.0418622 
251 1 0.005 6.54498e-08 -0.0620531 -0.125902 0.49873 0 0 -0.0503933 
252 1 0.005 6.54498e-08 -0.0359065 0.119675 0.49932 0 0 -0.0368876 
253 1 0.005 6.54498e-08 -0.13099 -0.142662 0.499872 0 0 -0.015985 
254 1 0.005 6.54498e-08 -0.0619133 0.123526 0.499538 0 0 -0.0303998 
255 1 0.005 6.54498e-08 -0.0337955 -0.101282 0.499947 0 0 -0.0102805 
256 1 0.005 6.54498e-08 0.00224363 -0.0912839 0.499926 0 0 -0.0121857 
257 1 0.005 6.54498e-08 0.139206 -0.0662146 0.498966 0 0 -0.0454828 
258 1 0.005 6.54498e-08 0.084389 -0.0735514 0.499837 0 0 -0.0180431 
259 1 0.005 6.54498e-08 0.0678468 0.00187627 0.499343 0 0 -0.0362591 
260 1 0.005 6.54498e-08 -0.017911 -0.130178 0.498557 0 0 -0.0537199 
261 1 0.005 6.54498e-08 0.102426 0.0732742 0.498696 0 0 -0.0510805 
262 1 0.005 6.54498e-08 -0.129937 0.141382 0.499211 0 0 -0.039736 
263 1 0.005 6.54498e-08 0.126589 -0.017274 0.498685 0 0 -0.0512781 
264 1 0.005 6.54498e-08 -0.04937 0.0383748 0.499864 0 0 -0.0164916 
265 1 0.005 6.54498e-08 -0.108868 -0.0501287 0.499896 0 0 -0.0144255 
266 1 0.005 6.54498e-08 0.0109681 0.14136 0.499938 0 0 -0.0111604 
267 1 0.005 6.54498e-08 0.0832009 0.0576342 0.499861 0 0 -0.0166653 
268 1 0.005 6.54498e-08 -0.142632 0.0868419 0.49992 0 0 -0.0126589 
269 1 0.005 6.54498e-08 0.121408 -0.0881694 0.499268 0 0 -0.0382724 
270 1 0.005 6.54498e-08 -0.0566207 -0.0247265 0.499674 0 0 -0.025533 
271 1 0.005 6.54498e-08 0.106623 0.118296 0.499706 0 0 -0.0242577 
272 1 0.005 6.54498e-08 -0.0535047 0.146083 0.49891 0 0 -0.0466922 
273 1 0.005 6.54498e-08 -0.131504 -0.0910412 0.499769 0 0 -0.0214882 
274 1 0.005 6.54498e-08 -0.0118045 -0.0976472 0.499567 0 0 -0.0294202 
275 1 0.005 6.54498e-08 -0.0807494 0.0453754 0.499929 0 0 -0.0118965 
276 1 0.005 6.54498e-08 0.0418997 0.108958 0.499932 0 0 -0.0116958 
277 1 0.005 6.54498e-08 -0.0548384 -0.0683151 0.499654 0 0 -0.0263064 
278 1 0.005 6.54498e-08 -0.0804085 0.0749375 0.499642 0 0 -0.0267561 
279 1 0.005 6.54498e-08 0.0668299 0.0100015 0.498943 0 0 -0.0459917 
280 1 0.005 6.54498e-08 0.144497 0.0553533 0.499758 0 0 -0.0220063 
281 1 0.005 6.54498e-08 -0.0420291 0.117348 0.499723 0 0 -0.0235201 
282 1 0.005 6.54498e-08 0.0972443 -0.0144885 0.499767 0 0 -0.0216063 
283 1 0.005 6.54498e-08 0.121794 0.0845605 0.499523 0 0 -0.0308962 
284 1 0.005 6.54498e-08 -0.120773 -0.03465 0.499822 0 0 -0.018877 
285 1 0.005 6.54498e-08 -0.0869874 -0.09746 0.499545 0 0 -0.0301691 
286 1 0.005 6.54498e-08 0.0974709 -0.107206 0.499896 0 0 -0.0144246 
287 1 0.005 6.54498e-08 -0.120846 -0.059008 0.499363 0 0 -0.0356829 
288 1 0.005 6.54498e-08 0.148548 0.0383467 0.498697 0 0 -0.0510543 
289 1 0.005 6.54498e-08 -0.0552398 0.0844467 0.499319 0 0 -0.0369063 
290 1 0.005 6.54498e-08 -0.0857522 -0.0372869 0.499463 0 0 -0.0327713 
291 1 0.005 6.54498e-08 -0.0781664 -0.0434072 0.499036 0 0 -0.0439207 
292 1 0.005 6.54498e-08 -0.142936 0.0662645 0.499829 0 0 -0.0184763 
293 1 0.005 6.54498e-08 0.127451 0.0642499 0.499724 0 0 -0.023505 
294 1 0.005 6.54498e-08 0.105663 -0.115485 0.499938 0 0 -0.0111697 
295 1 0.005 6.54498e-08 0.0627527 -0.116125 0.499841 0 0 -0.0178601 
296 1 0.005 6.54498e-08 0.148936 -0.0341256 0.499864 0 0 -0.0164663 
297 1 0.005 6.54498e-08 -0.0388203 0.0464264 0.499133 0 0 -0.0416343 
298 1 0.005 6.54498e-08 0.126112 0.0582971 0.49904 0 0 -0.0438104 
299 1 0.005 6.54498e-08 -0.00957364 -0.104224 0.499588 0 0 -0.0287067 
300 1 0.005 6.54498e-08 -0.0254253 -0.122733 0.499508 0 0 -0.0313643 
301 1 0.005 6.54498e-08 0.14644 0.0254729 0.499364 0 0 -0.0356671 
302 1 0.005 6.54498e-08 -0.0951689 0.0960535 0.499873 0 0 -0.0159428 
303 1 0.005 6.54498e-08 -0.149834 -0.0518515 0.499893 0 0 -0.014612 
304 1 0.005 6.54498e-08 0.131659 -0.00184809 0.499807 0 0 -0.0196381 
305 1 0.005 6.54498e-08 -0.140367 0.0483352 0.499841 0 0 -0.0178209 
306 1 0.005 6.54498e-08 -0.0321397 0.128218 0.499473 0 0 -0.0324633 
307 1 0.005 6.54498e-08 0.0312078 0.10898 0.499884 0 0 -0.0152018 
308 1 0.005 6.54498e-08 0.0616864 -0.0361312 0.499179 0 0 -0.0405332 
309 1 0.005 6.54498e-08 -0.0898354 0.0369837 0.499893 0 0 -0.0146128 
310 1 0.005 6.54498e-08 -0.0609433 -0.074728 0.49935 0 0 -0.0360665 
311 1 0.005 6.54498e-08 -0.0889313 -0.0678073 0.499045 0 0 -0.0437023 
312 1 0.005 6.54498e-08 -0.00891108 -0.0685127 0.499338 0 0 -0.0363833 
313 1 0.005 6.54498e-08 -0.0237631 -0.0867739 0.498531 0 0 -0.0542009 
314 1 0.005 6.54498e-08 0.00226117 -0.0965389 0.499644 0 0 -0.0267015 
315 1 0.005 6.54498e-08 0.0629749 0.018455 0.499094 0 0 -0.0425826 
316 1 0.005 6.54498e-08 0.0965063 -0.119264 0.499886 0 0 -0.0151034 
317 1 0.005 6.54498e-08 0.122705 0.105486 0.499949 0 0 -0.0101187 
318 1 0.005 6.54498e-08 -0.0295289 -0.0925415 0.499157 0 0 -0.0410607 
319 1 0.005 6.54498e-08 -0.112788 0.0703804 0.498604 0 0 -0.0528417 
320 1 0.005 6.54498e-08 -0.0229754 -0.047816 0.499885 0 0 -0.0151473 
321 1 0.005 6.54498e-08 0.103518 0.125134 0.499888 0 0 -0.014988 
322 1 0.005 6.54498e-08 -0.0218395 0.143526 0.499884 0 0 -0.0152372 
323 1 0.005 6.54498e-08 0.0263459 -0.00394111 0.499818 0 0 -0.0190986 
324 1 0.005 6.54498e-08 -0.0935043 -0.127007 0.499715 0 0 -0.0238859 
325 1 0.005 6.54498e-08 -0.111823 0.0877594 0.498907 0 0 -0.0467615 
326 1 0.005 6.54498e-08 0.118996 -0.127234 0.498653 0 0 -0.0519169 
327 1 0.005 6.54498e-08 -0.0855027 -0.0437116 0.499144 0 0 -0.0413896 
328 1 0.005 6.54498e-08 -0.130821 -0.00608064 0.498674 0 0 -0.0515025 
329 1 0.005 6.54498e-08 -0.0582571 0.0726426 0.499419 0 0 -0.0340909 
330 1 0.005 6.54498e-08 -0.138323 -0.0983515 0.499465 0 0 -0.0327121 
331 1 0.005 6.54498e-08 0.0975865 0.0364513 0.498874 0 0 -0.0474626 
332 1 0.005 6.54498e-08 -0.0509071 0.00457783 0.499908 0 0 -0.0135701 
333 1 0.005 6.54498e-08 0.00840178 -0.091336 0.499626 0 0 -0.0273702 
334 1 0.005 6.54498e-08 0.0331616 -0.0524946 0.499461 0 0 -0.032851 
335 1 0.005 6.54498e-08 0.123585 -0.10948 0.499001 0 0 -0.0447118 
336 1 0.005 6.54498e-08 0.0816263 -0.00748078 0.499693 0 0 -0.024793 
337 1 0.005 6.54498e-08 0.0277284 0.130862 0.499794 0 0 -0.0202982 
338 1 0.005 6.54498e-08 0.0775347 -0.0748831 0.499831 0 0 -0.0184091 
339 1 0.005 6.54498e-08 0.143309 -0.109564 0.498783 0 0 -0.0493344 
340 1 0.005 6.54498e-08 0.0520252 -0.113097 0.499847 0 0 -0.0175228 
341 1 0.005 6.54498e-08 0.0223462 -0.027632 0.498808 0 0 -0.0488326 
342 1 0.005 6.54498e-08 -0.141057 -0.144153 0.499658 0 0 -0.0261589 
343 1 0.005 6.54498e-08 -0.136374 -0.0323033 0.499769 0 0 -0.0214792 
344 1 0.005 6.54498e-08 0.0786923 -0.11827 0.498648 0 0 -0.0520056 
345 1 0.005 6.54498e-08 -0.086304 -0.0115321 0.499846 0 0 -0.0175528 
346 1 0.005 6.54498e-08 0.0178251 -0.113684 0.499141 0 0 -0.0414605 
347 1 0.005 6.54498e-08 0.0868714 -0.0525222 0.499198 0 0 -0.04005 
348 1 0.005 6.54498e-08 0.0363097 0.056428 0.499882 0 0 -0.0153826 
349 1 0.005 6.54498e-08 -0.0427045 -0.134242 0.499367 0 0 -0.0355744 
350 1 0.005 6.54498e-08 -0.0425722 -0.0105235 0.499526 0 0 -0.0308061 
351 1 0.005 6.54498e-08 -0.00221723 -0.0650643 0.498552 0 0 -0.0538103 
352 1 0.005 6.54498e-08 -0.0304555 -0.0653532 0.499008 0 0 -0.0445459 
353 1 0.005 6.54498e-08 0.097926 0.0425648 0.49922 0 0 -0.0395129 
354 1 0.005 6.54498e-08 0.0236484 -0.0409571 0.499895 0 0 -0.014486 
355 1 0.005 6.54498e-08 0.130116 -0.133262 0.49878 0 0 -0.0493972 
356 1 0.005 6.54498e-08 -0.0990347 -0.0767446 0.499872 0 0 -0.0159779 
357 1 0.005 6.54498e-08 -0.117944 0.115286 0.498701 0 0 -0.0509804 
358 1 0.005 6.54498e-08 0.109239 -0.0229818 0.499822 0 0 -0.0188732 
359 1 0.005 6.54498e-08 0.0472928 -0.14946 0.498741 0 0 -0.0501882 
360 1 0.005 6.54498e-08 -0.0106796 -0.0924058 0.498852 0 0 -0.047912 
361 1 0.005 6.54498e-08 0.075602 0.143196 0.498652 0 0 -0.0519285 
362 1 0.005 6.54498e-08 -0.0694648 0.104339 0.499418 0 0 -0.0341344 
363 1 0.005 6.54498e-08 -0.099194 -0.0541823 0.498631 0 0 -0.052324 
364 1 0.005 6.54498e-08 -0.0811844 -0.0665141 0.499694 0 0 -0.0247551 
365 1 0.005 6.54498e-08 0.083508 0.118323 0.499551 0 0 -0.0299784 
366 1 0.005 6.54498e-08 -0.0981977 -0.108709 0.499833 0 0 -0.0182801 
367 1 0.005 6.54498e-08 0.00298233 0.0239894 0.499162 0 0 -0.0409441 
368 1 0.005 6.54498e-08 -0.0303892 0.148355 0.499766 0 0 -0.0216427 
369 1 0.005 6.54498e-08 0.140903 -0.0504954 0.499517 0 0 -0.0310782 
370 1 0.005 6.54498e-08 0.0041207 -0.043367 0.499918 0 0 -0.0127833 
371 1 0.005 6.54498e-08 0.123132 0.0791047 0.499765 0 0 -0.0216601 
372 1 0.005 6.54498e-08 0.0775148 -0.108519 0.499901 0 0 -0.0140405 
373 1 0.005 6.54498e-08 -0.137917 0.133078 0.499831 0 0 -0.0184021 
374 1 0.005 6.54498e-08 0.00072549 -0.106685 0.4992 0 0 -0.0399984 
375 1 0.005 6.54498e-08 -0.0385441 -0.110756 0.49935 0 0 -0.0360458 
376 1 0.005 6.54498e-08 -0.113823 0.0771231 0.499945 0 0 -0.010468 
377 1 0.005 6.54498e-08 -0.0828757 0.00787949 0.499685 0 0 -0.0251082 
378 1 0.005 6.54498e-08 0.0354874 0.036489 0.499844 0 0 -0.0176435 
379 1 0.005 6.54498e-08 -0.144592 0.136466 0.499125 0 0 -0.0418395 
380 1 0.005 6.54498e-08 0.106087 0.0992407 0.499365 0 0 -0.0356297 
381 1 0.005 6.54498e-08 -0.0540314 -0.00524224 0.499844 0 0 -0.0176452 
382 1 0.005 6.54498e-08 -0.0524571 0.0532634 0.499569 0 0 -0.0293768 
383 1 0.005 6.54498e-08 0.0271179 0.0698883 0.499443 0 0 -0.0333752 
384 1 0.005 6.54498e-08 -0.0826852 -0.0901478 0.499561 0 0 -0.0296489 
385 1 0.005 6.54498e-08 0.127656 -0.08905 0.499285 0 0 -0.0378169 
386 1 0.005 6.54498e-08 0.0170449 -0.026918 0.4988 0 0 -0.0489941 
387 1 0.005 6.54498e-08 0.015034 0.076503 0.49994 0 0 -0.0109446 
388 1 0.005 6.54498e-08 -0.0629865 0.0851094 0.498692 0 0 -0.0511568 
389 1 0.005 6.54498e-08 -0.0695888 0.120343 0.49955 0 0 -0.0300132 
390 1 0.005 6.54498e-08 0.0168539 0.0636477 0.498788 0 0 -0.0492446 
391 1 0.005 6.54498e-08 -0.0130255 0.080873 0.499565 0 0 -0.0294874 
392 1 0.005 6.54498e-08 -0.144711 -0.052409 0.499377 0 0 -0.0353009 
393 1 0.005 6.54498e-08 0.10805 0.090362 0.499472 0 0 -0.0325096 
394 1 0.005 6.54498e-08 0.0849713 0.112837 0.498798 0 0 -0.0490275 
395 1 0.005 6.54498e-08 0.0711091 -0.0696479 0.499384 0 0 -0.0351055 
396 1 0.005 6.54498e-08 0.0265026 -0.0708813 0.498759 0 0 -0.0498186 
397 1 0.005 6.54498e-08 0.0599712 -0.0632186 0.499918 0 0 -0.0128336 
398 1 0.005 6.54498e-08 0.00997117 -0.114618 0.499733 0 0 -0.0231287 
399 1 0.005 6.54498e-08 0.034674 -0.133597 0.499832 0 0 -0.018337 
400 1 0.005 6.54498e-08 -0.0738046 0.065681 0.49983 0 0 -0.0184168 
401 1 0.005 6.54498e-08 0.130877 0.0544652 0.498712 0 0 -0.050763 
402 1 0.005 6.54498e-08 0.143059 -0.115383 0.499428 0 0 -0.0338362 
403 1 0.005 6.54498e-08 0.145126 0.130329 0.499293 0 0 -0.0376171 
404 1 0.005 6.54498e-08 -0.14128 0.000824283 0.499066 0 0 -0.0432288 
405 1 0.005 6.54498e-08 -0.0292408 -0.0494472 0.499501 0 0 -0.0315924 
406 1 0.005 6.54498e-08 -0.112708 -0.0866357 0.499768 0 0 -0.0215274 
407 1 0.005 6.54498e-08 0.00614653 0.104664 0.499837 0 0 -0.0180495 
408 1 0.005 6.54498e-08 0.0843397 -0.00263857 0.499319 0 0 -0.0369049 
409 1 0.005 6.54498e-08 0.0351649 0.0164755 0.499588 0 0 -0.0287203 
410 1 0.005 6.54498e-08 -0.060862 0.0927047 0.498557 0 0 -0.053722 
411 1 0.005 6.54498e-08 -0.0971327 0.0901616 0.499442 0 0 -0.0334226 
412 1 0.005 6.54498e-08 0.0238596 -0.0913105 0.499027 0 0 -0.0441093 
413 1 0.005 6.54498e-08 -0.00301734 -0.0124721 0.499561 0 0 -0.0296335 
414 1 0.005 6.54498e-08 0.0643512 0.0513493 0.499578 0 0 -0.0290641 
415 1 0.005 6.54498e-08 0.0147704 0.145859 0.499028 0 0 -0.0440991 
416 1 0.005 6.54498e-08 -0.0388019 0.0566441 0.499783 0 0 -0.0208583 
417 1 0.005 6.54498e-08 0.0570868 0.058512 0.499276 0 0 -0.0380523 
418 1 0.005 6.54498e-08 -0.0995125 -0.00736722 0.499719 0 0 -0.023705 
419 1 0.005 6.54498e-08 -0.0394204 -0.138365 0.499053 0 0 -0.0435192 
420 1 0.005 6.54498e-08 0.147288 -0.1308 0.498962 0 0 -0.0455675 
421 1 0.005 6.54498e-08 0.0546241 0.0665918 0.499673 0 0 -0.0255664 
422 1 0.005 6.54498e-08 0.0676573 0.116423 0.499737 0 0 -0.0229558 
423 1 0.005 6.54498e-08 0.0972766 -0.0726916 0.49991 0 0 -0.0134346 
424 1 0.005 6.54498e-08 -0.0721619 0.0750503 0.499788 0 0 -0.0205836 
425 1 0.005 6.54498e-08 -0.0546699 0.0626102 0.498839 0 0 -0.048184 
426 1 0.005 6.54498e-08 -0.0978859 0.0308935 0.49994 0 0 -0.0109364 
427 1 0.005 6.54498e-08 -0.0391276 -0.0180428 0.499879 0 0 -0.0155667 
428 1 0.005 6.54498e-08 -0.00346275 0.00161122 0.498793 0 0 -0.0491347 
429 1 0.005 6.54498e-08 0.0253882 0.0999659 0.499877 0 0 -0.0157002 
430 1 0.005 6.54498e-08 -0.0207421 -0.0122289 0.499245 0 0 -0.0388671 
431 1 0.005 6.54498e-08 0.076264 -0.130343 0.498549 0 0 -0.0538671 