ITEM: TIMESTEP
0
ITEM: NUMBER OF ATOMS
501
ITEM: BOX BOUNDS pp pp ff
0.0000000000000000e+00 1.0000000000000000e-04
0.0000000000000000e+00 4.0000000000000003e-05
0.0000000000000000e+00 1.0000000000000000e-03
ITEM: ATOMS id type diameter x y z 
328 1 1e-06 8.59764e-06 2.07609e-07 2.32156e-07 
137 1 1e-06 4.07331e-05 3.48371e-07 3.76741e-07 
315 1 1e-06 6.54192e-05 4.07507e-07 2.2436e-07 
186 1 1e-06 6.4622e-05 8.69454e-07 3.22974e-07 
487 1 1e-06 5.29562e-06 1.38772e-06 8.3614e-08 
173 1 1e-06 3.60268e-05 1.16872e-06 6.79262e-08 
359 1 1e-06 3.80558e-05 1.30004e-06 2.42757e-07 
142 1 1e-06 8.74637e-05 1.17882e-06 3.09951e-07 
3 1 1e-06 3.86173e-06 1.64557e-06 4.26838e-07 
139 1 1e-06 2.96665e-05 1.64312e-06 3.97952e-07 
38 1 1e-06 3.09338e-05 1.75271e-06 4.43879e-07 
150 1 1e-06 4.46959e-05 1.69564e-06 4.65355e-07 
249 1 1e-06 5.89221e-05 1.61473e-06 4.68695e-07 
5 1 1e-06 7.37434e-05 1.82343e-06 1.61073e-07 
50 1 1e-06 4.04716e-05 2.40183e-06 1.88934e-07 
242 1 1e-06 4.05846e-05 2.20391e-06 2.99495e-08 
382 1 1e-06 6.41283e-05 2.01367e-06 9.4294e-08 
404 1 1e-06 4.55707e-05 2.5062e-06 4.23823e-08 
295 1 1e-06 5.81667e-05 2.90152e-06 1.45549e-07 
471 1 1e-06 8.81601e-05 2.65182e-06 2.29117e-07 
85 1 1e-06 2.30683e-05 3.26792e-06 9.64077e-08 
64 1 1e-06 3.87938e-05 3.19717e-06 3.71795e-07 
112 1 1e-06 5.10566e-05 3.08955e-06 1.52849e-07 
278 1 1e-06 7.037e-05 3.4725e-06 5.94085e-08 
474 1 1e-06 1.46968e-05 3.78177e-06 4.64787e-09 
90 1 1e-06 7.48265e-05 3.66116e-06 3.25964e-07 
266 1 1e-06 2.14977e-05 4.44361e-06 9.27735e-08 
267 1 1e-06 2.4419e-05 4.08208e-06 1.86233e-07 
310 1 1e-06 6.4081e-05 4.01326e-06 2.72174e-07 
352 1 1e-06 7.28334e-05 4.31028e-06 7.32033e-08 
336 1 1e-06 8.43941e-05 4.36981e-06 8.37593e-08 
262 1 1e-06 8.86125e-05 4.01993e-06 7.23783e-08 
257 1 1e-06 1.2204e-05 4.77688e-06 1.24043e-07 
105 1 1e-06 3.78718e-05 4.73213e-06 3.21903e-07 
101 1 1e-06 6.89482e-05 4.93395e-06 1.21036e-07 
54 1 1e-06 1.64642e-05 5.30537e-06 1.83864e-07 
184 1 1e-06 4.70467e-05 5.42486e-06 3.89264e-07 
94 1 1e-06 6.25223e-05 5.24833e-06 2.16328e-07 
217 1 1e-06 6.28496e-05 5.15777e-06 1.6499e-07 
421 1 1e-06 8.93564e-05 5.33222e-06 4.66632e-07 
155 1 1e-06 9.88584e-05 5.29325e-06 9.32647e-08 
225 1 1e-06 1.59704e-05 5.89767e-06 5.40635e-08 
75 1 1e-06 5.94344e-05 5.88151e-06 2.61456e-07 
337 1 1e-06 7.43032e-05 5.71506e-06 3.25537e-07 
264 1 1e-06 9.0356e-05 5.586e-06 9.79781e-08 
433 1 1e-06 6.80797e-05 6.34039e-06 7.2429e-08 
454 1 1e-06 6.93649e-05 6.28171e-06 4.15977e-07 
397 1 1e-06 8.58461e-05 6.22899e-06 2.6401e-07 
14 1 1e-06 5.00484e-06 6.51e-06 3.40185e-07 
407 1 1e-06 1.76603e-05 6.79585e-06 4.46246e-07 
304 1 1e-06 8.23298e-05 6.78833e-06 2.85848e-07 
21 1 1e-06 8.73554e-06 7.29051e-06 2.90266e-07 
494 1 1e-06 8.57035e-05 7.21481e-06 4.83048e-07 
417 1 1e-06 9.87457e-05 7.46467e-06 4.66466e-07 
146 1 1e-06 4.6577e-05 7.64546e-06 4.30255e-07 
447 1 1e-06 6.12792e-05 7.80889e-06 9.89517e-08 
280 1 1e-06 6.38377e-05 7.93957e-06 8.36706e-09 
66 1 1e-06 2.73113e-05 8.39691e-06 1.70612e-07 
168 1 1e-06 3.33445e-05 8.17116e-06 3.18508e-07 
347 1 1e-06 4.3382e-05 8.3328e-06 2.36327e-07 
193 1 1e-06 6.46112e-05 8.16374e-06 1.97829e-07 
390 1 1e-06 6.63486e-05 8.28292e-06 2.77967e-07 
418 1 1e-06 8.9339e-05 8.13485e-06 5.9498e-08 
71 1 1e-06 9.207e-05 8.08274e-06 1.64862e-07 
254 1 1e-06 5.45976e-05 8.83461e-06 8.17436e-08 
449 1 1e-06 9.78296e-05 8.50839e-06 1.1589e-08 
28 1 1e-06 1.3823e-05 9.37474e-06 3.30769e-08 
440 1 1e-06 5.20392e-05 9.11403e-06 4.86831e-07 
118 1 1e-06 3.15895e-05 9.6628e-06 6.68757e-08 
197 1 1e-06 3.78309e-05 9.63901e-06 6.90255e-08 
259 1 1e-06 7.6535e-05 9.82037e-06 2.75627e-07 
306 1 1e-06 3.17877e-06 1.02325e-05 4.30103e-07 
129 1 1e-06 3.94315e-05 1.04203e-05 3.35933e-07 
92 1 1e-06 2.73533e-05 1.09179e-05 4.20589e-07 
42 1 1e-06 5.15159e-05 1.09701e-05 3.54521e-07 
303 1 1e-06 5.72278e-05 1.07607e-05 3.57103e-07 
65 1 1e-06 7.53035e-05 1.0629e-05 2.83973e-08 
165 1 1e-06 9.34269e-05 1.06919e-05 4.70169e-07 
161 1 1e-06 8.08013e-05 1.10917e-05 4.52424e-07 
410 1 1e-06 8.13547e-05 1.12436e-05 2.88667e-07 
373 1 1e-06 5.23014e-05 1.17905e-05 7.90782e-08 
492 1 1e-06 6.24818e-05 1.24267e-05 4.01642e-07 
439 1 1e-06 7.84156e-05 1.22784e-05 6.80383e-08 
37 1 1e-06 4.90112e-05 1.2726e-05 1.55132e-07 
294 1 1e-06 9.98948e-05 1.26978e-05 3.09132e-07 
213 1 1e-06 9.10354e-05 1.3067e-05 4.25423e-07 
91 1 1e-06 4.80356e-05 1.39334e-05 4.53399e-07 
156 1 1e-06 4.99515e-05 1.3793e-05 4.80532e-07 
395 1 1e-06 5.20399e-05 1.35954e-05 4.50268e-07 
384 1 1e-06 8.84473e-05 1.3619e-05 3.79363e-07 
402 1 1e-06 9.24516e-05 1.3864e-05 2.99594e-07 
369 1 1e-06 9.99306e-05 1.35712e-05 2.97925e-07 
420 1 1e-06 2.99242e-05 1.42091e-05 2.91122e-07 
63 1 1e-06 6.49988e-05 1.40191e-05 4.84821e-07 
436 1 1e-06 7.35072e-05 1.41781e-05 2.6694e-07 
45 1 1e-06 3.58622e-05 1.47114e-05 3.56429e-07 
480 1 1e-06 4.60723e-05 1.46733e-05 3.67156e-07 
345 1 1e-06 5.42177e-05 1.49231e-05 3.33787e-07 
224 1 1e-06 7.41201e-05 1.45877e-05 3.99902e-07 
145 1 1e-06 9.30884e-05 1.4785e-05 2.7652e-07 
80 1 1e-06 9.77055e-05 1.48545e-05 4.85586e-07 
374 1 1e-06 6.6483e-06 1.52018e-05 4.1163e-07 
187 1 1e-06 2.23858e-05 1.54537e-05 2.58085e-07 
419 1 1e-06 9.83066e-05 1.54612e-05 4.00208e-07 
223 1 1e-06 2.76277e-05 1.57769e-05 4.99043e-08 
18 1 1e-06 4.19611e-05 1.5937e-05 3.32434e-07 
490 1 1e-06 5.15464e-05 1.58942e-05 3.32951e-07 
360 1 1e-06 2.18007e-06 1.61719e-05 1.08193e-08 
276 1 1e-06 3.27566e-05 1.60679e-05 3.20434e-07 
233 1 1e-06 4.35319e-05 1.64243e-05 6.47987e-08 
174 1 1e-06 6.36068e-05 1.603e-05 4.15827e-07 
387 1 1e-06 8.76147e-05 1.62871e-05 4.26407e-07 
230 1 1e-06 5.6122e-05 1.67767e-05 1.69484e-07 
339 1 1e-06 2.34273e-05 1.73287e-05 9.98051e-08 
478 1 1e-06 7.73751e-05 1.76362e-05 2.75376e-07 
243 1 1e-06 3.619e-05 1.82078e-05 4.65067e-07 
298 1 1e-06 5.0327e-05 1.83788e-05 2.94647e-07 
277 1 1e-06 5.30818e-05 1.85431e-05 3.35378e-07 
367 1 1e-06 7.36268e-05 1.85144e-05 2.79083e-07 
378 1 1e-06 2.62083e-06 1.92904e-05 3.26245e-07 
463 1 1e-06 6.48152e-05 1.94144e-05 4.37436e-07 
411 1 1e-06 6.2346e-05 1.96166e-05 4.14369e-07 
255 1 1e-06 8.64848e-05 1.97589e-05 1.88429e-07 
60 1 1e-06 5.55691e-05 2.00371e-05 9.51325e-08 
115 1 1e-06 6.45297e-05 2.02897e-05 2.30177e-07 
450 1 1e-06 7.7554e-05 2.03538e-05 1.46736e-07 
61 1 1e-06 8.92397e-05 2.04566e-05 3.69551e-07 
29 1 1e-06 9.2292e-05 2.03253e-05 1.81133e-07 
74 1 1e-06 9.41483e-05 2.04419e-05 1.59671e-07 
164 1 1e-06 4.20374e-06 2.09202e-05 1.27145e-07 
235 1 1e-06 4.80485e-05 2.05638e-05 3.7936e-07 
240 1 1e-06 7.10735e-06 2.1292e-05 3.48692e-07 
473 1 1e-06 7.2473e-05 2.12113e-05 4.42324e-07 
319 1 1e-06 4.75718e-06 2.15489e-05 2.95439e-07 
386 1 1e-06 7.35083e-05 2.17825e-05 4.51352e-07 
472 1 1e-06 7.71972e-05 2.1575e-05 2.92005e-07 
414 1 1e-06 2.55938e-05 2.20654e-05 3.4269e-07 
226 1 1e-06 6.45181e-05 2.20933e-05 6.37661e-08 
318 1 1e-06 1.33014e-05 2.28811e-05 7.9553e-08 
245 1 1e-06 3.5792e-05 2.26195e-05 1.35766e-07 
10 1 1e-06 8.13683e-05 2.26913e-05 3.18112e-07 
192 1 1e-06 7.47656e-06 2.33962e-05 4.84955e-07 
317 1 1e-06 1.55268e-05 2.3377e-05 4.21142e-07 
338 1 1e-06 2.95507e-05 2.32459e-05 3.43859e-07 
127 1 1e-06 5.88599e-05 2.32884e-05 2.05457e-07 
426 1 1e-06 6.64877e-05 2.31737e-05 2.00511e-08 
486 1 1e-06 2.28154e-05 2.35552e-05 3.04876e-07 
178 1 1e-06 6.19539e-05 2.38667e-05 1.89374e-07 
41 1 1e-06 6.31261e-05 2.39859e-05 2.73488e-07 
314 1 1e-06 6.23169e-05 2.43165e-05 1.70623e-07 
459 1 1e-06 7.596e-05 2.40758e-05 2.87152e-08 
189 1 1e-06 3.58552e-06 2.47255e-05 4.11586e-08 
13 1 1e-06 1.48487e-05 2.46521e-05 2.05632e-07 
279 1 1e-06 4.7829e-05 2.46401e-05 1.6491e-07 
11 1 1e-06 5.16548e-05 2.46021e-05 1.83159e-07 
231 1 1e-06 5.24104e-05 2.4647e-05 6.80545e-08 
190 1 1e-06 7.53056e-05 2.47499e-05 3.03407e-07 
126 1 1e-06 3.60661e-05 2.50692e-05 4.50264e-07 
322 1 1e-06 3.8452e-05 2.53354e-05 3.01525e-07 
461 1 1e-06 5.2952e-05 2.54753e-05 7.03107e-08 
456 1 1e-06 4.09143e-06 2.58897e-05 1.85097e-07 
123 1 1e-06 1.50987e-05 2.55496e-05 3.1302e-07 
15 1 1e-06 4.87037e-05 2.55349e-05 1.25602e-07 
388 1 1e-06 6.15081e-05 2.64778e-05 3.00742e-07 
251 1 1e-06 4.24149e-05 2.65562e-05 2.48872e-07 
16 1 1e-06 9.96946e-05 2.69136e-05 4.05515e-07 
327 1 1e-06 4.0505e-05 2.73173e-05 3.8977e-08 
498 1 1e-06 4.81982e-05 2.70295e-05 1.32098e-07 
177 1 1e-06 8.20235e-05 2.74959e-05 8.62509e-08 
53 1 1e-06 5.81763e-05 2.7794e-05 3.50578e-07 
290 1 1e-06 6.16213e-05 2.76726e-05 3.53377e-07 
202 1 1e-06 7.66389e-05 2.79529e-05 9.31429e-08 
348 1 1e-06 9.47147e-05 2.77911e-05 1.3681e-07 
288 1 1e-06 2.60057e-07 2.83145e-05 3.31408e-08 
442 1 1e-06 4.57709e-05 2.84817e-05 3.15588e-07 
183 1 1e-06 5.25419e-05 2.84623e-05 1.56927e-07 
237 1 1e-06 5.39638e-05 2.81269e-05 2.36723e-07 
160 1 1e-06 1.47601e-05 2.88914e-05 4.28679e-07 
309 1 1e-06 5.99019e-05 2.85698e-05 3.0985e-07 
220 1 1e-06 6.5364e-05 2.87861e-05 2.15273e-07 
40 1 1e-06 9.04011e-05 2.86628e-05 3.822e-07 
88 1 1e-06 1.08331e-05 2.90856e-05 3.04981e-08 
194 1 1e-06 9.102e-05 2.91122e-05 1.98265e-07 
396 1 1e-06 6.53284e-05 2.96812e-05 2.83445e-07 
163 1 1e-06 8.9604e-05 2.99625e-05 4.75935e-07 
195 1 1e-06 2.44408e-05 3.04856e-05 2.79774e-07 
405 1 1e-06 3.189e-05 3.00613e-05 1.16742e-08 
302 1 1e-06 7.23018e-05 3.03571e-05 3.04788e-07 
79 1 1e-06 8.24582e-05 3.01931e-05 3.74009e-07 
408 1 1e-06 5.44281e-06 3.09498e-05 3.21943e-07 
455 1 1e-06 3.25149e-05 3.1307e-05 4.37677e-07 
120 1 1e-06 4.38614e-05 3.11587e-05 1.16956e-07 
141 1 1e-06 2.53344e-06 3.18046e-05 4.87646e-07 
227 1 1e-06 7.16475e-05 3.18089e-05 3.19346e-07 
180 1 1e-06 5.79985e-05 3.20231e-05 3.02737e-07 
172 1 1e-06 6.13185e-05 3.22303e-05 3.60169e-07 
8 1 1e-06 6.93093e-05 3.24157e-05 2.80949e-07 
316 1 1e-06 8.12924e-05 3.24296e-05 8.95553e-08 
166 1 1e-06 1.35706e-05 3.26248e-05 1.15172e-07 
159 1 1e-06 1.53913e-05 3.27507e-05 4.14796e-08 
281 1 1e-06 6.25205e-05 3.25677e-05 1.46682e-07 
222 1 1e-06 8.65402e-05 3.25746e-05 1.41772e-08 
20 1 1e-06 8.88547e-05 3.25722e-05 9.28704e-09 
465 1 1e-06 9.65301e-05 3.25297e-05 1.63083e-07 
114 1 1e-06 7.77345e-05 3.3194e-05 2.92476e-07 
215 1 1e-06 6.39525e-06 3.39742e-05 1.08742e-07 
234 1 1e-06 7.11514e-06 3.36798e-05 4.08311e-07 
208 1 1e-06 1.73133e-05 3.38632e-05 4.60646e-07 
23 1 1e-06 2.87788e-05 3.3901e-05 3.5561e-07 
353 1 1e-06 3.27294e-05 3.35222e-05 1.89252e-07 
201 1 1e-06 7.56045e-05 3.4086e-05 9.7386e-08 
458 1 1e-06 8.66773e-05 3.43008e-05 3.29194e-07 
272 1 1e-06 2.76781e-05 3.46649e-05 3.36325e-07 
247 1 1e-06 6.90538e-05 3.49456e-05 2.71461e-07 
313 1 1e-06 3.1587e-06 3.53215e-05 2.20302e-07 
214 1 1e-06 8.13278e-06 3.50739e-05 1.65233e-07 
287 1 1e-06 4.89967e-05 3.51816e-05 4.27263e-07 
167 1 1e-06 6.9994e-05 3.53364e-05 4.75238e-07 
307 1 1e-06 7.36769e-05 3.52906e-05 2.11585e-07 
48 1 1e-06 9.69113e-05 3.51932e-05 3.12983e-07 
209 1 1e-06 7.46058e-06 3.59952e-05 2.89826e-07 
435 1 1e-06 5.26976e-05 3.57401e-05 9.64916e-08 
158 1 1e-06 7.90856e-05 3.68739e-05 4.79214e-07 
131 1 1e-06 9.75957e-05 3.65658e-05 5.29101e-08 
196 1 1e-06 1.62785e-05 3.72731e-05 2.1767e-07 
488 1 1e-06 3.00407e-05 3.74449e-05 3.93269e-07 
452 1 1e-06 5.03656e-05 3.79519e-05 4.30139e-07 
211 1 1e-06 7.06309e-05 3.77256e-05 3.6439e-07 
221 1 1e-06 9.14472e-06 3.81394e-05 2.24601e-07 
260 1 1e-06 4.69147e-05 3.81513e-05 2.02446e-07 
301 1 1e-06 5.58693e-05 3.80677e-05 8.81016e-08 
238 1 1e-06 6.02425e-05 3.83012e-05 2.12224e-07 
371 1 1e-06 7.96392e-05 3.82439e-05 1.28991e-07 
464 1 1e-06 9.88217e-05 3.84223e-05 1.03526e-07 
216 1 1e-06 6.1861e-05 3.88863e-05 6.98892e-08 
321 1 1e-06 1.57664e-06 3.94579e-05 2.13922e-07 
229 1 1e-06 2.63163e-05 3.90623e-05 4.49885e-10 
51 1 1e-06 4.19824e-05 3.93324e-05 4.79368e-07 
72 1 1e-06 8.38459e-05 3.93695e-05 9.95962e-08 
30 1 1e-06 3.06241e-05 3.95672e-05 1.4891e-07 
297 1 1e-06 5.89695e-05 3.98959e-05 2.80211e-07 
445 1 1e-06 6.01237e-05 3.97749e-05 4.09891e-07 
130 1 1e-06 3.06426e-06 3.87593e-07 8.56844e-07 
368 1 1e-06 5.55661e-05 2.10199e-08 8.32034e-07 
68 1 1e-06 6.23134e-05 4.65448e-07 5.6962e-07 
207 1 1e-06 8.24716e-05 5.20002e-08 8.4918e-07 
332 1 1e-06 9.27054e-05 1.8028e-07 7.49229e-07 
205 1 1e-06 2.54069e-06 5.39377e-07 6.32816e-07 
35 1 1e-06 1.57138e-05 8.48491e-07 5.14724e-07 
265 1 1e-06 7.175e-05 9.35149e-07 9.26234e-07 
113 1 1e-06 9.29911e-05 5.80646e-07 9.72974e-07 
335 1 1e-06 8.33583e-05 1.1921e-06 8.91108e-07 
469 1 1e-06 9.97206e-05 1.4369e-06 7.49338e-07 
58 1 1e-06 1.21998e-06 1.70596e-06 8.03136e-07 
169 1 1e-06 1.56306e-05 1.53482e-06 8.93218e-07 
351 1 1e-06 4.04298e-05 1.55163e-06 9.56133e-07 
323 1 1e-06 7.26248e-05 1.95358e-06 8.44353e-07 
179 1 1e-06 8.04489e-05 1.67061e-06 9.48389e-07 
286 1 1e-06 8.75471e-05 1.60884e-06 9.9521e-07 
409 1 1e-06 9.00996e-05 1.62719e-06 7.04755e-07 
6 1 1e-06 1.45776e-05 2.08669e-06 7.76823e-07 
495 1 1e-06 5.84819e-05 2.10826e-06 8.36268e-07 
350 1 1e-06 9.28962e-05 2.33898e-06 7.81246e-07 
466 1 1e-06 9.41337e-05 2.2657e-06 9.88545e-07 
385 1 1e-06 9.62043e-05 2.29396e-06 8.63612e-07 
499 1 1e-06 1.7749e-05 2.65741e-06 5.78366e-07 
97 1 1e-06 1.7517e-05 3.48187e-06 9.93763e-07 
398 1 1e-06 2.18069e-05 3.09566e-06 7.20728e-07 
99 1 1e-06 3.9246e-05 3.05009e-06 5.72161e-07 
56 1 1e-06 4.96643e-05 3.21931e-06 6.73286e-07 
106 1 1e-06 2.21104e-05 3.59793e-06 7.59205e-07 
162 1 1e-06 8.93741e-05 3.96871e-06 5.52978e-07 
119 1 1e-06 9.79717e-05 3.93589e-06 7.64112e-07 
248 1 1e-06 4.41072e-05 4.1189e-06 6.60593e-07 
17 1 1e-06 4.854e-05 4.42861e-06 7.89517e-07 
377 1 1e-06 5.4472e-05 4.13301e-06 5.87197e-07 
285 1 1e-06 7.02511e-05 4.2875e-06 5.01569e-07 
451 1 1e-06 1.9439e-05 4.83974e-06 5.38556e-07 
153 1 1e-06 7.65343e-05 4.79553e-06 9.6259e-07 
258 1 1e-06 7.87179e-05 4.6575e-06 9.63989e-07 
391 1 1e-06 7.99674e-05 4.51148e-06 6.1013e-07 
182 1 1e-06 8.62921e-05 4.79499e-06 7.34725e-07 
346 1 1e-06 9.558e-05 4.94544e-06 9.51534e-07 
283 1 1e-06 6.85853e-05 5.09495e-06 7.70012e-07 
446 1 1e-06 3.25542e-06 5.54943e-06 7.30863e-07 
44 1 1e-06 3.62432e-06 5.60469e-06 9.52303e-07 
268 1 1e-06 2.22022e-06 6.09926e-06 7.58655e-07 
154 1 1e-06 2.4812e-05 6.42055e-06 7.55518e-07 
430 1 1e-06 6.18264e-05 6.23061e-06 9.48035e-07 
108 1 1e-06 7.6356e-05 6.18927e-06 5.77001e-07 
4 1 1e-06 8.60663e-05 6.49469e-06 9.07582e-07 
441 1 1e-06 1.63097e-05 6.61563e-06 7.20441e-07 
357 1 1e-06 2.38244e-05 6.58209e-06 6.30425e-07 
250 1 1e-06 3.50221e-05 6.54372e-06 5.08206e-07 
241 1 1e-06 4.63448e-05 6.6567e-06 9.78783e-07 
176 1 1e-06 7.13641e-05 6.78488e-06 8.3714e-07 
479 1 1e-06 2.41577e-05 7.4704e-06 8.75555e-07 
320 1 1e-06 4.50894e-05 7.30585e-06 7.36063e-07 
125 1 1e-06 8.04556e-05 7.1199e-06 6.04472e-07 
365 1 1e-06 1.47677e-06 7.99609e-06 7.58267e-07 
98 1 1e-06 1.82078e-05 7.57989e-06 8.79478e-07 
34 1 1e-06 6.1309e-05 7.90817e-06 8.1699e-07 
361 1 1e-06 8.40078e-05 7.79649e-06 8.92186e-07 
32 1 1e-06 6.29334e-05 8.95313e-06 8.81471e-07 
246 1 1e-06 8.258e-05 8.94556e-06 7.01297e-07 
78 1 1e-06 7.28639e-05 9.15235e-06 5.88732e-07 
93 1 1e-06 8.39843e-05 9.38828e-06 7.19083e-07 
261 1 1e-06 5.02484e-05 9.81865e-06 5.50835e-07 
81 1 1e-06 2.48721e-05 1.04115e-05 6.40361e-07 
392 1 1e-06 4.5435e-05 1.04646e-05 9.8038e-07 
467 1 1e-06 4.76067e-05 1.02046e-05 7.26433e-07 
484 1 1e-06 5.64066e-05 1.04233e-05 5.96988e-07 
218 1 1e-06 9.93113e-05 1.03232e-05 5.34034e-07 
77 1 1e-06 1.05151e-05 1.08376e-05 6.85353e-07 
210 1 1e-06 1.05805e-05 1.07494e-05 6.10621e-07 
19 1 1e-06 2.15165e-05 1.08113e-05 6.36335e-07 
412 1 1e-06 3.0126e-05 1.08375e-05 6.63721e-07 
140 1 1e-06 3.76883e-05 1.05716e-05 9.26639e-07 
329 1 1e-06 8.47461e-05 1.09283e-05 8.06259e-07 
149 1 1e-06 2.09038e-05 1.18398e-05 7.87972e-07 
219 1 1e-06 5.0439e-05 1.16089e-05 7.62876e-07 
33 1 1e-06 8.8691e-05 1.18347e-05 6.24717e-07 
424 1 1e-06 5.1128e-06 1.23472e-05 9.88875e-07 
39 1 1e-06 2.71929e-05 1.22989e-05 7.06902e-07 
423 1 1e-06 3.9295e-05 1.22826e-05 8.38582e-07 
275 1 1e-06 5.90427e-05 1.22419e-05 7.3269e-07 
273 1 1e-06 6.14584e-05 1.22201e-05 5.89746e-07 
269 1 1e-06 7.06272e-05 1.23485e-05 5.1667e-07 
86 1 1e-06 3.24705e-05 1.29705e-05 8.98644e-07 
483 1 1e-06 3.52551e-05 1.29083e-05 7.26576e-07 
84 1 1e-06 7.3501e-05 1.27105e-05 6.39985e-07 
170 1 1e-06 3.19886e-05 1.31655e-05 8.02999e-07 
143 1 1e-06 3.53384e-05 1.32268e-05 5.84382e-07 
482 1 1e-06 3.99794e-05 1.34793e-05 6.54272e-07 
476 1 1e-06 4.56258e-05 1.3323e-05 9.99354e-07 
437 1 1e-06 4.67266e-05 1.34729e-05 9.77443e-07 
341 1 1e-06 5.7127e-05 1.34203e-05 8.84862e-07 
462 1 1e-06 7.11211e-05 1.31198e-05 6.25076e-07 
103 1 1e-06 7.46078e-05 1.33321e-05 8.23325e-07 
36 1 1e-06 9.6789e-05 1.32654e-05 7.97911e-07 
468 1 1e-06 1.55313e-05 1.39749e-05 9.24555e-07 
380 1 1e-06 1.98509e-05 1.35794e-05 7.25945e-07 
393 1 1e-06 2.41825e-05 1.37817e-05 7.2012e-07 
500 1 1e-06 6.01377e-05 1.37818e-05 7.60754e-07 
2 1 1e-06 3.03585e-05 1.40321e-05 9.30448e-07 
69 1 1e-06 5.95905e-05 1.49575e-05 7.54076e-07 
340 1 1e-06 4.23775e-05 1.51926e-05 5.60336e-07 
110 1 1e-06 5.36645e-05 1.54925e-05 5.60608e-07 
270 1 1e-06 6.75039e-05 1.50365e-05 9.77475e-07 
444 1 1e-06 8.22061e-05 1.54172e-05 9.33397e-07 
104 1 1e-06 6.29523e-05 1.57591e-05 5.77936e-07 
206 1 1e-06 7.3317e-05 1.55503e-05 8.49636e-07 
228 1 1e-06 2.4165e-05 1.64115e-05 7.04127e-07 
9 1 1e-06 9.13512e-05 1.61591e-05 6.3163e-07 
379 1 1e-06 2.01191e-05 1.66396e-05 5.61326e-07 
59 1 1e-06 3.00316e-05 1.66042e-05 6.81832e-07 
46 1 1e-06 4.96961e-05 1.67853e-05 7.52357e-07 
284 1 1e-06 5.94955e-05 1.66641e-05 8.58613e-07 
334 1 1e-06 3.83319e-05 1.74775e-05 6.20803e-07 
25 1 1e-06 7.26627e-05 1.71283e-05 8.73922e-07 
293 1 1e-06 7.6554e-05 1.72847e-05 5.96061e-07 
22 1 1e-06 4.93452e-05 1.77235e-05 9.6527e-07 
117 1 1e-06 9.62007e-05 1.799e-05 9.2743e-07 
111 1 1e-06 1.40743e-05 1.84937e-05 5.85858e-07 
232 1 1e-06 7.91662e-05 1.8365e-05 5.22903e-07 
138 1 1e-06 8.82397e-05 1.81248e-05 5.90367e-07 
296 1 1e-06 2.48615e-05 1.85635e-05 9.28755e-07 
83 1 1e-06 9.50287e-05 1.92463e-05 8.20357e-07 
427 1 1e-06 9.98005e-05 1.90243e-05 5.16809e-07 
331 1 1e-06 9.34819e-05 2.03764e-05 6.54961e-07 
100 1 1e-06 3.12698e-05 2.05556e-05 9.38936e-07 
292 1 1e-06 4.57757e-05 2.08284e-05 5.89086e-07 
312 1 1e-06 5.80919e-05 2.05366e-05 9.57698e-07 
136 1 1e-06 6.78677e-05 2.06739e-05 6.71411e-07 
403 1 1e-06 2.78904e-05 2.13191e-05 7.39064e-07 
43 1 1e-06 4.35683e-05 2.12528e-05 9.02007e-07 
144 1 1e-06 7.05154e-05 2.12002e-05 7.74733e-07 
24 1 1e-06 7.45435e-05 2.11597e-05 7.75256e-07 
354 1 1e-06 7.55788e-05 2.106e-05 8.98804e-07 
300 1 1e-06 5.67947e-06 2.19589e-05 5.89609e-07 
191 1 1e-06 3.62381e-05 2.16569e-05 7.0239e-07 
429 1 1e-06 3.84098e-05 2.15857e-05 7.6573e-07 
67 1 1e-06 4.82748e-05 2.1736e-05 9.34172e-07 
89 1 1e-06 5.81457e-05 2.19233e-05 6.01877e-07 
330 1 1e-06 8.01722e-05 2.17884e-05 9.52159e-07 
457 1 1e-06 9.28514e-05 2.16289e-05 9.22703e-07 
102 1 1e-06 2.58675e-05 2.23448e-05 7.05703e-07 
203 1 1e-06 4.51988e-05 2.24092e-05 7.71745e-07 
349 1 1e-06 3.63692e-05 2.28012e-05 5.10854e-07 
406 1 1e-06 2.08995e-05 2.30203e-05 5.50733e-07 
70 1 1e-06 7.50436e-05 2.30208e-05 7.44506e-07 
148 1 1e-06 1.80198e-05 2.35824e-05 7.49165e-07 
416 1 1e-06 2.48979e-05 2.37374e-05 8.52144e-07 
333 1 1e-06 2.89319e-05 2.35372e-05 7.462e-07 
27 1 1e-06 8.5355e-05 2.44964e-05 7.57728e-07 
491 1 1e-06 9.01566e-05 2.45771e-05 6.71781e-07 
394 1 1e-06 5.49548e-06 2.50147e-05 5.60333e-07 
185 1 1e-06 3.53283e-05 2.51988e-05 8.96867e-07 
181 1 1e-06 9.39278e-06 2.57931e-05 6.25862e-07 
134 1 1e-06 1.02436e-05 2.56409e-05 6.81435e-07 
253 1 1e-06 5.30293e-05 2.55651e-05 7.96189e-07 
448 1 1e-06 8.04816e-06 2.61576e-05 7.53613e-07 
151 1 1e-06 2.18162e-05 2.61627e-05 9.28913e-07 
399 1 1e-06 2.67428e-05 2.61744e-05 8.33159e-07 
12 1 1e-06 3.45015e-05 2.64784e-05 5.51624e-07 
263 1 1e-06 4.61394e-05 2.61672e-05 7.95972e-07 
400 1 1e-06 9.04543e-05 2.61056e-05 9.13324e-07 
124 1 1e-06 9.30723e-05 2.64837e-05 7.78712e-07 
375 1 1e-06 2.64513e-05 2.67887e-05 9.45581e-07 
493 1 1e-06 3.89401e-05 2.65601e-05 8.98843e-07 
470 1 1e-06 1.18443e-05 2.71804e-05 5.32866e-07 
432 1 1e-06 1.23977e-05 2.74898e-05 5.32616e-07 
132 1 1e-06 2.59992e-05 2.73647e-05 9.51984e-07 
460 1 1e-06 6.16629e-05 2.74832e-05 7.49184e-07 
188 1 1e-06 6.39596e-05 2.74431e-05 8.94808e-07 
109 1 1e-06 6.60003e-05 2.71385e-05 9.24647e-07 
299 1 1e-06 1.34092e-05 2.75995e-05 6.12189e-07 
236 1 1e-06 9.11923e-05 2.75741e-05 9.67129e-07 
147 1 1e-06 2.91171e-05 2.84684e-05 6.99065e-07 
62 1 1e-06 4.15734e-06 2.89426e-05 9.60531e-07 
366 1 1e-06 1.97104e-05 2.89971e-05 8.37016e-07 
434 1 1e-06 3.13662e-05 2.89878e-05 9.48743e-07 
116 1 1e-06 5.91879e-05 2.8737e-05 5.83743e-07 
239 1 1e-06 8.41775e-05 2.85856e-05 9.58295e-07 
96 1 1e-06 8.46654e-05 2.86639e-05 8.64234e-07 
381 1 1e-06 9.64165e-05 2.86585e-05 5.93898e-07 
289 1 1e-06 9.9802e-05 2.89021e-05 9.28638e-07 
413 1 1e-06 1.58192e-05 2.94279e-05 8.79768e-07 
401 1 1e-06 2.3209e-05 2.93511e-05 5.77493e-07 
342 1 1e-06 8.79141e-05 2.91629e-05 5.18156e-07 
107 1 1e-06 9.59286e-05 2.90257e-05 8.66232e-07 
501 1 1e-06 9.99151e-05 2.9128e-05 8.71818e-07 
271 1 1e-06 4.21833e-05 2.9958e-05 6.14879e-07 
481 1 1e-06 7.95784e-05 2.98555e-05 5.32837e-07 
73 1 1e-06 9.12521e-05 2.96157e-05 7.66165e-07 
324 1 1e-06 3.76481e-06 3.00897e-05 9.3298e-07 
383 1 1e-06 7.99712e-05 3.02821e-05 8.0085e-07 
305 1 1e-06 2.54047e-05 3.06467e-05 9.77571e-07 
362 1 1e-06 9.63097e-05 3.06865e-05 7.00597e-07 
55 1 1e-06 2.0151e-05 3.12722e-05 7.89641e-07 
370 1 1e-06 2.29118e-05 3.13957e-05 7.08264e-07 
343 1 1e-06 6.48466e-05 3.10554e-05 6.90648e-07 
256 1 1e-06 9.20497e-05 3.14766e-05 6.77939e-07 
198 1 1e-06 1.11489e-05 3.16129e-05 9.42536e-07 
364 1 1e-06 2.62379e-05 3.19795e-05 9.8346e-07 
376 1 1e-06 3.74534e-05 3.17196e-05 7.97438e-07 
415 1 1e-06 5.94978e-05 3.18439e-05 9.94422e-07 
204 1 1e-06 7.20343e-05 3.1901e-05 9.95658e-07 
358 1 1e-06 5.57732e-05 3.21903e-05 5.58183e-07 
372 1 1e-06 9.43941e-05 3.27052e-05 9.00192e-07 
128 1 1e-06 1.15121e-05 3.33803e-05 5.66335e-07 
199 1 1e-06 2.01811e-05 3.33472e-05 6.42661e-07 
157 1 1e-06 3.09206e-05 3.31764e-05 8.79026e-07 
57 1 1e-06 9.15026e-05 3.33861e-05 9.95836e-07 
496 1 1e-06 1.63316e-05 3.39095e-05 9.07452e-07 
326 1 1e-06 4.86276e-05 3.35429e-05 8.8769e-07 
344 1 1e-06 7.21892e-05 3.36358e-05 9.27146e-07 
355 1 1e-06 1.93601e-05 3.41443e-05 5.75491e-07 
489 1 1e-06 6.72033e-05 3.44327e-05 7.43887e-07 
422 1 1e-06 6.8072e-05 3.44187e-05 8.72576e-07 
425 1 1e-06 2.96819e-06 3.45678e-05 5.29878e-07 
76 1 1e-06 2.8886e-05 3.48132e-05 6.51818e-07 
311 1 1e-06 4.24637e-05 3.48138e-05 9.06621e-07 
7 1 1e-06 7.04995e-06 3.53843e-05 6.12643e-07 
477 1 1e-06 1.34699e-05 3.51179e-05 6.64829e-07 
52 1 1e-06 7.44207e-05 3.52204e-05 7.34966e-07 
274 1 1e-06 8.58088e-05 3.54155e-05 6.87368e-07 
308 1 1e-06 1.1554e-05 3.55018e-05 9.74094e-07 
244 1 1e-06 3.89058e-05 3.5706e-05 7.76959e-07 
497 1 1e-06 5.39828e-05 3.56946e-05 9.64627e-07 
133 1 1e-06 9.94163e-05 3.58203e-05 7.78015e-07 
171 1 1e-06 1.12461e-07 3.60558e-05 7.28304e-07 
428 1 1e-06 1.48178e-07 3.61681e-05 9.48735e-07 
356 1 1e-06 2.71786e-05 3.62703e-05 8.85003e-07 
49 1 1e-06 3.08378e-05 3.63487e-05 7.99096e-07 
438 1 1e-06 8.77486e-05 3.60469e-05 9.97905e-07 
475 1 1e-06 1.16792e-05 3.66859e-05 5.10053e-07 
282 1 1e-06 2.77617e-05 3.66411e-05 6.86719e-07 
122 1 1e-06 1.69449e-05 3.73025e-05 5.95535e-07 
152 1 1e-06 2.48821e-05 3.73595e-05 5.22506e-07 
212 1 1e-06 3.09272e-05 3.72623e-05 6.88041e-07 
389 1 1e-06 5.7315e-05 3.72838e-05 7.17003e-07 
121 1 1e-06 6.83105e-05 3.7498e-05 7.11202e-07 
175 1 1e-06 8.05434e-05 3.71483e-05 7.92986e-07 
443 1 1e-06 9.0019e-06 3.79434e-05 8.88488e-07 
291 1 1e-06 2.03304e-05 3.75367e-05 9.84141e-07 
485 1 1e-06 5.82908e-05 3.7586e-05 6.93951e-07 
453 1 1e-06 3.54254e-05 3.80269e-05 9.60296e-07 
87 1 1e-06 5.02942e-05 3.80508e-05 9.99352e-07 
82 1 1e-06 5.4477e-05 3.8183e-05 5.578e-07 
252 1 1e-06 7.97463e-05 3.82054e-05 9.44935e-07 
47 1 1e-06 8.65827e-05 3.8186e-05 8.05198e-07 
363 1 1e-06 9.26754e-05 3.80173e-05 9.34091e-07 
31 1 1e-06 7.3142e-05 3.8845e-05 7.16168e-07 
26 1 1e-06 3.03318e-07 3.9143e-05 9.01401e-07 
325 1 1e-06 5.93264e-05 3.92479e-05 9.80632e-07 
431 1 1e-06 6.20752e-05 3.93021e-05 7.42258e-07 
200 1 1e-06 1.98488e-05 3.95495e-05 7.28432e-07 
95 1 1e-06 8.26798e-05 3.99309e-05 9.56438e-07 
135 1 1e-06 8.86357e-05 3.98523e-05 9.5256e-07 
1 1 1e-06 5e-06 5e-06 1e-06 
ITEM: TIMESTEP
500
ITEM: NUMBER OF ATOMS
501
ITEM: BOX BOUNDS pp pp ff
0.0000000000000000e+00 1.0000000000000000e-04
0.0000000000000000e+00 4.0000000000000003e-05
0.0000000000000000e+00 1.0000000000000000e-03
ITEM: ATOMS id type diameter x y z 
130 1 1.22145e-06 3.36695e-06 2.99843e-07 9.84377e-07 
328 1 1.22145e-06 8.59764e-06 2.07609e-07 5.92156e-07 
137 1 1.22145e-06 4.07331e-05 3.48371e-07 5.96741e-07 
368 1 1.22145e-06 5.55661e-05 2.10199e-08 8.32034e-07 
315 1 1.22145e-06 6.55078e-05 3.56383e-07 5.88253e-07 
207 1 1.22145e-06 8.20941e-05 2.72064e-07 6.50847e-07 
205 1 1.22145e-06 2.32121e-06 6.03004e-07 5.91125e-07 
35 1 1.22145e-06 1.57251e-05 7.51499e-07 5.87374e-07 
68 1 1.22145e-06 6.23165e-05 5.10578e-07 5.91233e-07 
186 1 1.22145e-06 6.44838e-05 9.20669e-07 5.92299e-07 
265 1 1.22145e-06 7.175e-05 9.35149e-07 9.26234e-07 
487 1 1.22145e-06 5.29562e-06 1.38772e-06 5.83614e-07 
173 1 1.22145e-06 3.60268e-05 1.16872e-06 5.87926e-07 
359 1 1.22145e-06 3.80558e-05 1.30004e-06 5.82757e-07 
335 1 1.22145e-06 8.33583e-05 1.1921e-06 8.91108e-07 
142 1 1.22145e-06 8.74593e-05 1.15571e-06 5.84732e-07 
469 1 1.22145e-06 9.97206e-05 1.4369e-06 7.49338e-07 
58 1 1.22145e-06 1.21998e-06 1.70596e-06 8.03136e-07 
3 1 1.22145e-06 3.86173e-06 1.64557e-06 5.86838e-07 
139 1 1.22146e-06 2.96665e-05 1.64312e-06 5.77952e-07 
38 1 1.22146e-06 3.09338e-05 1.75271e-06 5.83879e-07 
242 1 1.22145e-06 4.07422e-05 1.95114e-06 5.90859e-07 
150 1 1.22145e-06 4.46959e-05 1.69564e-06 5.85355e-07 
249 1 1.22145e-06 5.89795e-05 1.55399e-06 5.91571e-07 
323 1 1.22145e-06 7.26055e-05 1.95583e-06 8.48989e-07 
5 1 1.22145e-06 7.3753e-05 1.82231e-06 5.88876e-07 
179 1 1.22145e-06 8.04489e-05 1.67061e-06 9.48389e-07 
409 1 1.22145e-06 9.00996e-05 1.62719e-06 7.04755e-07 
6 1 1.22145e-06 1.45215e-05 2.10287e-06 7.63152e-07 
382 1 1.22145e-06 6.41219e-05 2.03261e-06 5.94298e-07 
350 1 1.22145e-06 9.28962e-05 2.33898e-06 7.81246e-07 
466 1 1.22145e-06 9.41337e-05 2.2657e-06 9.88545e-07 
385 1 1.22145e-06 9.62043e-05 2.29396e-06 8.63612e-07 
499 1 1.22145e-06 1.77726e-05 2.57329e-06 5.91101e-07 
398 1 1.22145e-06 2.16625e-05 2.85804e-06 6.93521e-07 
404 1 1.22145e-06 4.55707e-05 2.5062e-06 5.82382e-07 
295 1 1.22145e-06 5.81647e-05 2.9121e-06 5.91571e-07 
471 1 1.22145e-06 8.81601e-05 2.65182e-06 5.89117e-07 
85 1 1.22145e-06 2.31374e-05 3.22336e-06 5.86867e-07 
64 1 1.22145e-06 3.83868e-05 3.30272e-06 5.92126e-07 
50 1 1.22145e-06 4.03832e-05 3.07975e-06 5.91297e-07 
56 1 1.22145e-06 4.96643e-05 3.21931e-06 6.73286e-07 
112 1 1.22145e-06 5.10566e-05 3.08955e-06 5.92849e-07 
278 1 1.22145e-06 7.03782e-05 3.41635e-06 5.8863e-07 
474 1 1.22145e-06 1.46968e-05 3.78177e-06 5.84648e-07 
90 1 1.22145e-06 7.48265e-05 3.66116e-06 5.85964e-07 
162 1 1.22145e-06 8.97288e-05 3.94485e-06 6.70078e-07 
119 1 1.22145e-06 9.79717e-05 3.93589e-06 7.64112e-07 
266 1 1.22145e-06 2.14397e-05 4.49345e-06 5.86869e-07 
267 1 1.22145e-06 2.4419e-05 4.08208e-06 5.86233e-07 
248 1 1.22145e-06 4.41072e-05 4.1189e-06 6.60593e-07 
17 1 1.22145e-06 4.854e-05 4.42861e-06 7.89517e-07 
377 1 1.22145e-06 5.4472e-05 4.13301e-06 5.87197e-07 
310 1 1.22145e-06 6.4081e-05 4.01326e-06 5.92174e-07 
352 1 1.22145e-06 7.28334e-05 4.31028e-06 5.93203e-07 
336 1 1.22145e-06 8.43941e-05 4.36981e-06 5.83759e-07 
262 1 1.22145e-06 8.85808e-05 4.02206e-06 5.87583e-07 
257 1 1.22146e-06 1.2204e-05 4.77688e-06 5.84043e-07 
451 1 1.22145e-06 1.9439e-05 4.83974e-06 5.78556e-07 
105 1 1.22145e-06 3.78718e-05 4.73213e-06 5.81903e-07 
101 1 1.22145e-06 6.89654e-05 4.92632e-06 5.91292e-07 
285 1 1.22145e-06 7.02106e-05 4.56536e-06 5.90277e-07 
153 1 1.22145e-06 7.65343e-05 4.79553e-06 9.6259e-07 
258 1 1.22145e-06 7.87179e-05 4.6575e-06 9.63989e-07 
391 1 1.22145e-06 7.99674e-05 4.51148e-06 6.1013e-07 
182 1 1.22145e-06 8.62921e-05 4.79499e-06 7.34725e-07 
346 1 1.22145e-06 9.558e-05 4.94544e-06 9.51534e-07 
446 1 1.22145e-06 2.99158e-06 5.47255e-06 5.86854e-07 
54 1 1.22145e-06 1.66514e-05 5.08342e-06 5.88715e-07 
184 1 1.22145e-06 4.70467e-05 5.42486e-06 5.89264e-07 
94 1 1.22145e-06 6.21045e-05 5.30569e-06 5.85036e-07 
217 1 1.22145e-06 6.32472e-05 5.0514e-06 5.92282e-07 
421 1 1.22145e-06 8.92881e-05 5.31488e-06 5.9203e-07 
155 1 1.22145e-06 9.88584e-05 5.29325e-06 5.93265e-07 
225 1 1.22145e-06 1.58803e-05 5.9575e-06 5.90361e-07 
75 1 1.22145e-06 5.94344e-05 5.88151e-06 5.81456e-07 
337 1 1.22145e-06 7.43032e-05 5.71506e-06 5.85537e-07 
264 1 1.22145e-06 9.04119e-05 5.60019e-06 5.92261e-07 
268 1 1.22145e-06 2.08888e-06 6.20238e-06 7.90389e-07 
154 1 1.22145e-06 2.48907e-05 6.41042e-06 7.66066e-07 
433 1 1.22145e-06 6.80797e-05 6.34039e-06 5.92429e-07 
454 1 1.22145e-06 6.93649e-05 6.28171e-06 5.95977e-07 
108 1 1.22145e-06 7.6356e-05 6.18927e-06 5.77001e-07 
397 1 1.22145e-06 8.58351e-05 6.17969e-06 5.84625e-07 
14 1 1.22145e-06 5.00484e-06 6.51e-06 5.80185e-07 
441 1 1.22145e-06 1.64707e-05 6.92595e-06 8.60304e-07 
407 1 1.22145e-06 1.76458e-05 6.77501e-06 5.9183e-07 
357 1 1.22145e-06 2.37503e-05 6.52749e-06 6.06678e-07 
250 1 1.22146e-06 3.50221e-05 6.54372e-06 5.88206e-07 
176 1 1.22145e-06 7.13641e-05 6.78488e-06 8.3714e-07 
304 1 1.22145e-06 8.23298e-05 6.78833e-06 5.85848e-07 
21 1 1.22146e-06 8.73554e-06 7.29051e-06 5.90266e-07 
320 1 1.22145e-06 4.50894e-05 7.30585e-06 7.36063e-07 
125 1 1.22145e-06 8.04556e-05 7.1199e-06 6.04472e-07 
494 1 1.22145e-06 8.56802e-05 7.34523e-06 5.92241e-07 
417 1 1.22145e-06 9.87457e-05 7.46467e-06 5.86466e-07 