NUFEB Simulation 

       0 atoms 
       3 atom types 

   0.0   1e-04  xlo xhi
   0.0   2e-05  ylo yhi
   0.0   3e-04  zlo zhi
