LAMMPS (5 Nov 2016)
# NUFEB simulation
units si
atom_style      bio
atom_modify     map array sort 100 5.0e-7
boundary        pp pp ff
newton          off
processors  * * *

comm_modify     vel yes
read_data_bio atom.in
  orthogonal box = (0 0 0) to (2e-05 2e-05 2e-05)
  1 by 1 by 1 MPI processor grid
  reading atoms ...
  0 atoms
  6 nutrients

group AOB type 1
0 atoms in group AOB
group DEAD type 2
0 atoms in group DEAD

##############Define initial particle distribution##############

lattice sc 2e-6 origin 0.5 0.5 0.5
Lattice spacing in x,y,z = 2e-06 2e-06 2e-06
region reg block 0 10 0 10 0 1
create_atoms 1 region reg
Created 100 atoms

set type 1 diameter 1.684e-6
  100 settings made for diameter
set type 1 density 400
  100 settings made for density
set type 1 mass 1e-15
  100 settings made for mass

neighbor        5e-7 bin
neigh_modify    delay 0 one 5000

##############Define DEM Variables&Commands##############

pair_style  gran/hooke/history 1.e-4 NULL 1.e-5 NULL 0.0 1
pair_coeff  * *

timestep 3600

fix 1 all nve/limit 1e-7
fix fv all viscous 1e-5

fix zw all wall/gran hooke/history 2000 NULL 500 NULL 1.5 0 zplane  0.0  3e-04

variable kanc equal 0
fix zwa all walladh v_kanc zplane  0.0   3e-04

variable ke equal 5e+9
#fix j1 all epsadh 1 v_ke 1

##############Ibm Variable Definitions##############

#Defining EPS density and ratio variables
variable EPSdens equal 30
variable EPSratio equal 1.25

#variables used in fix division
variable divDia equal 1e-6

#Defining diffusion variables
variable diffT equal 1e-4
variable tol equal 5e-7
variable etaHET equal 0.0
variable layer equal -1

#variables used in fix death
variable deadDia equal 5.85e-7

##############Ibm functions##############

fix k1 all kinetics 1 10 10 10 v_diffT v_layer ph 7.5
#fix ki3 all kinetics/ph
fix ki2 all kinetics/thermo
fix ki1 all kinetics/growth/energy v_EPSdens
fix g1 all kinetics/diffusion v_tol pp pp nd mol dcflag 1
fix d2 all death 1 v_deadDia

##############Ibm compute##############

compute myNtypes all ntypes
compute myMass all biomass

##############Simulation outputs##############

thermo_style    custom step cpu atoms biomass c_myNtypes[*]
dump du0 all bio 1 biomass ntypes con
#dump du2 all grid 100 grid_%_*.vti con hyd
#dump du3 all custom/vtk 100 snapshot%_*.vtu id type diameter x y z
#dump du4 all bio/hdf5 100 dump_*.h5 id type radius x y z con cat ana hyd
thermo 1
thermo_modify   lost ignore

##############Define Bio-loop and DEM-subloop##############

run 10
Neighbor list info ...
  2 neighbor list requests
  update every 1 steps, delay 0 steps, check yes
  max neighbors/atom: 5000, page size: 100000
  master list distance cutoff = 2.184e-06
  ghost atom cutoff = 2.184e-06
  binsize = 1.092e-06 -> bins = 19 19 19
Memory usage per processor = 7.39075 Mbytes
Step CPU Atoms biomass c_myNtypes[1] c_myNtypes[2] c_myNtypes[3] 
       0            0      100        1e-13            0          100            0 
number of iterations: 9196 
       1    13.523714      100 1.1785487e-13            0          100            0 
number of iterations: 659 
       2    14.501014      100 1.3303292e-13            0          100            0 
number of iterations: 430 
       3    15.133254      100 1.4646633e-13            0          100            0 
number of iterations: 303 
       4    15.580969      100 1.5865958e-13            0          100            0 
number of iterations: 224 
       5    15.911449      100 1.6991896e-13            0          100            0 
number of iterations: 172 
       6    16.166761      100 1.8044645e-13            0          100            0 
number of iterations: 135 
       7     16.36928      100 1.9038344e-13            0          100            0 
number of iterations: 111 
       8    16.539126      100 1.9983327e-13            0          100            0 
number of iterations: 93 
       9    16.681885      100 2.0887414e-13            0          100            0 
number of iterations: 78 
      10    16.804125      100 2.1756679e-13            0          100            0 
Loop time of 16.8041 on 1 procs for 10 steps with 100 atoms

100.0% CPU use with 1 MPI tasks x no OpenMP threads

MPI task timing breakdown:
Section |  min time  |  avg time  |  max time  |%varavg| %total
---------------------------------------------------------------
Pair    | 0.00014734 | 0.00014734 | 0.00014734 |   0.0 |  0.00
Neigh   | 0          | 0          | 0          |   0.0 |  0.00
Comm    | 4.5538e-05 | 4.5538e-05 | 4.5538e-05 |   0.0 |  0.00
Output  | 0.036078   | 0.036078   | 0.036078   |   0.0 |  0.21
Modify  | 16.768     | 16.768     | 16.768     |   0.0 | 99.78
Other   |            | 4.029e-05  |            |       |  0.00

Nlocal:    100 ave 100 max 100 min
Histogram: 1 0 0 0 0 0 0 0 0 0
Nghost:    44 ave 44 max 44 min
Histogram: 1 0 0 0 0 0 0 0 0 0
Neighs:    220 ave 220 max 220 min
Histogram: 1 0 0 0 0 0 0 0 0 0

Total # of neighbors = 220
Ave neighs/atom = 2.2
Neighbor list builds = 0
Dangerous builds = 0


Total wall time: 0:00:16
