  Granular Flow Simulation 

       0 atoms 
       1 atom types 
       5 nutrients

   0.000000e-04   1.000000e-04  xlo xhi 
   0.000000e-04   4.000000e-05  ylo yhi 
   0.000000e-04   1.000000e-04  zlo zhi 

 Atoms

   # 1 1 1.0e-6 150 8.5e-5 1.5e-5 5e-6 1.0e-6

 Type Name

     1 het

 Nutrients

     1 sub l 8e-3 8e-3 8e-3 8e-3 8e-3 8e-3 8e-3
     2 o2 l 1e-4 1e-4 1e-4 1e-4 1e-4 1e-4 1e-4
     3 no2 l 8e-4 8e-4 8e-4 8e-4 8e-4 8e-4 8e-4
     4 no3 l 8e-4 8e-4 8e-4 8e-4 8e-4 8e-4 8e-4
     5 nh4 l 9e-4 9e-4 9e-4 9e-4 9e-4 9e-4 9e-4

 Diffusion Coeffs
    
     sub 0.5e-9
     o2 2e-9
     no2 1.2e-9
     no3 1.2e-9
     nh4 1.4e-9

 Ks
     
     het 0.004 0.0002 0.0003 0.0003 0

 Growth Rate

     het 0.00006944444 

 Yield
    
     het 0.61

 Maintenance
 
     het 0

 Decay

     het 0.00000462962




