LAMMPS (5 Nov 2016)
# NUFEB simulation

atom_style	bio
atom_modify	map array sort 100 5.0e-7
boundary	ff ff ff
newton		off
processors  4 1 1

comm_modify	vel yes
read_data_bio atom.in
  orthogonal box = (0 0 0) to (0.0001 4e-05 0.0001)
  4 by 1 by 1 MPI processor grid
  reading atoms ...
  44 atoms
  5 nutrients

group HET type 1
40 atoms in group HET
group AOB type 2
1 atoms in group AOB
group NOB type 3
1 atoms in group NOB
group EPS type 4
1 atoms in group EPS
group DEAD type 5
1 atoms in group DEAD

neighbor	5e-7 bin
neigh_modify	delay 0 one 5000

##############Define DEM Variables&Commands##############

pair_style  gran/hooke/history 1.e-4 NULL 1.e-5 NULL 0.0 1
pair_coeff  * *

timestep 10

fix 1 all nve/limit 1e-8
fix fv all viscous 1e-5

fix xw all wall/gran hooke/history 2000 NULL 500.0 NULL 1.5 0 xplane  0.0   1.0e-04
fix yw all wall/gran hooke/history 2000 NULL 500.0 NULL 1.5 0 yplane  0.0   4.0e-05
fix zw all wall/gran hooke/history 2000 NULL 500.0 NULL 1.5 0 zplane  0.0   1.0e-04

variable kanc equal 50

fix xwa all walladh v_kanc xplane  0.0   1.0e-04
fix ywa all walladh v_kanc yplane  0.0   4.0e-05
fix zwa all walladh v_kanc zplane  0.0   1.0e-04

variable ke equal 5e+10
fix j1 all epsadh 1 v_ke 1

##############Define IBm Variables##############

#variables used in fix eps_extract
variable EPSdens equal 30
variable EPSratio equal 1.25

#variables used in fix division
variable divDia equal 1.36e-6

#variables used in fix kinetics
variable diffT equal 1e-4
variable tol equal 1e-6
variable etaHET equal 0.6
variable layer equal -1

#variables used in fix death
variable deadDia equal 9e-7


##############Define IBm Commands##############

fix k1 all kinetics 100 30 12 30 v_diffT v_layer niter 10000
fix kgm all kinetics/growth/monod v_EPSdens v_etaHET
fix g1 all kinetics/diffusion v_tol pp pp nd kg
fix d1 all divide 100 v_EPSdens v_divDia 978595
fix e1 HET eps_extract 100 v_EPSratio v_EPSdens 6274
fix d5 all death 100 v_deadDia

##############Define IBm Computes##############

compute myNtypes all ntypes

##############Simulation Output##############

#dump		id all custom 1000 snapshot.bubblemd id type diameter x y z
#dump		du1 all custom/vtk 1000 atom%_*.vtu id type diameter x y z
#dump		du2 all grid 100 grid_%_*.vti con
dump            du3 all bio 100 con bulk
thermo_style    custom step cpu atoms biomass c_myNtypes[*]
thermo		100
thermo_modify	lost ignore

run 40000
Neighbor list info ...
  3 neighbor list requests
  update every 1 steps, delay 0 steps, check yes
  max neighbors/atom: 5000, page size: 100000
  master list distance cutoff = 1.5e-06
  ghost atom cutoff = 1.5e-06
  binsize = 7.5e-07 -> bins = 134 54 134
Memory usage per processor = 3.89758 Mbytes
Step CPU Atoms biomass c_myNtypes[1] c_myNtypes[2] c_myNtypes[3] c_myNtypes[4] c_myNtypes[5] c_myNtypes[6] 
       0            0       44 3.141593e-15            0           40            1            1            1            1 
number of iterations: 10000 
     100    1.9235699       44 3.7622645e-15            0           40            0            0            1            3 
number of iterations: 10000 
     200     3.834106       44 4.4952959e-15            0           40            0            0            1            3 
number of iterations: 10000 
     300    5.7373419       44 5.3586563e-15            0           40            0            0            1            3 
number of iterations: 10000 
     400    7.6421528       44 6.3716374e-15            0           40            0            0            1            3 
number of iterations: 10000 
     500    9.5497708       44 7.5542339e-15            0           40            0            0            1            3 
number of iterations: 10000 
     600    11.465292       84 9.7287208e-15            0           40            0            0           41            3 
number of iterations: 10000 
     700    13.384535      124 1.1305646e-14            0           80            0            0           41            3 
number of iterations: 10000 
     800    15.322649      124 1.3102073e-14            0           80            0            0           41            3 
number of iterations: 10000 
     900    17.230659      196 1.6231922e-14            0           80            0            0          113            3 
number of iterations: 10000 
    1000    19.139852      214 1.8607134e-14            0           90            0            0          121            3 
number of iterations: 10000 
    1100    21.053718      252 2.1049493e-14            0          128            0            0          121            3 
number of iterations: 10000 
    1200     22.97299      338 2.4394239e-14            0          156            0            0          179            3 
number of iterations: 10000 
    1300    24.894345      438 2.8455056e-14            0          160            0            0          275            3 
number of iterations: 10000 
    1400    26.813395      448 3.1375867e-14            0          166            0            0          279            3 
number of iterations: 10000 
    1500    28.733779      470 3.4326272e-14            0          188            0            0          279            3 
number of iterations: 10000 
    1600    30.655501      524 3.7627274e-14            0          222            0            0          299            3 
number of iterations: 10000 
    1700    32.586479      660 4.2041118e-14            0          254            0            0          403            3 
number of iterations: 10000 
    1800    34.528002      780 4.646678e-14            0          274            0            0          503            3 
number of iterations: 10000 
    1900    36.471528      842 5.010557e-14            0          300            0            0          539            3 
number of iterations: 10000 
    2000    38.412333      864 5.3282075e-14            0          322            0            0          539            3 
number of iterations: 10000 
    2100    40.355082      877 5.6525701e-14            0          333            0            0          541            3 
number of iterations: 10000 
    2200    42.300444      919 6.0020572e-14            0          355            0            0          561            3 
number of iterations: 10000 
    2300    44.244165      980 6.3945114e-14            0          369            0            0          608            3 
number of iterations: 10000 
    2400     46.19016     1065 6.8091426e-14            0          389            0            0          673            3 
number of iterations: 10000 
    2500    48.142664     1227 7.2995697e-14            0          434            0            0          790            3 
number of iterations: 10000 
    2600     50.10016     1338 7.7340417e-14            0          462            0            0          873            3 
number of iterations: 9437 
    2700    51.951786     1418 8.1354386e-14            0          489            0            0          926            3 
number of iterations: 8807 
    2800     53.68129     1471 8.4986531e-14            0          517            0            0          951            3 
number of iterations: 8835 
    2900    55.423468     1520 8.8620342e-14            0          543            0            0          974            3 
number of iterations: 7729 
    3000    56.974156     1543 9.1987965e-14            0          564            0            0          976            3 
number of iterations: 7675 
    3100    58.485547     1580 9.5504646e-14            0          588            0            0          989            3 
number of iterations: 7382 
    3200    59.943715     1620 9.9214511e-14            0          605            0            0         1012            3 
number of iterations: 6490 
    3300    61.231455     1686 1.0320136e-13            0          626            0            0         1057            3 
number of iterations: 6472 
    3400    62.518262     1767 1.0727933e-13            0          653            0            0         1111            3 
number of iterations: 6488 
    3500    63.806669     1880 1.1167619e-13            0          682            0            0         1195            3 
number of iterations: 5964 
    3600    64.998039     1974 1.1586625e-13            0          709            0            0         1262            3 
number of iterations: 6137 
    3700    66.221993     2056 1.2009179e-13            0          726            0            0         1327            3 
number of iterations: 5512 
    3800    67.325241     2167 1.2454025e-13            0          752            0            0         1412            3 
number of iterations: 5283 
    3900    68.390935     2251 1.2868704e-13            0          777            0            0         1471            3 
number of iterations: 5064 
    4000    69.412942     2340 1.3300671e-13            0          796            0            0         1541            3 
number of iterations: 5334 
    4100    70.494411     2422 1.3703497e-13            0          824            0            0         1595            3 
number of iterations: 5766 
    4200    71.660426     2486 1.4085912e-13            0          849            0            0         1634            3 
number of iterations: 4469 
    4300    72.574066     2548 1.4473375e-13            0          870            0            0         1675            3 
number of iterations: 4024 
    4400     73.39935     2609 1.4853458e-13            0          893            0            0         1713            3 
number of iterations: 4233 
    4500    74.267398     2645 1.5207014e-13            0          912            0            0         1730            3 
number of iterations: 4053 
    4600    75.100018     2719 1.5593777e-13            0          946            0            0         1770            3 
number of iterations: 4626 
    4700    76.047446     2776 1.5969367e-13            0          971            0            0         1802            3 
number of iterations: 3907 
    4800    76.850526     2856 1.6374064e-13            0          996            0            0         1857            3 
number of iterations: 3953 
    4900    77.664326     2933 1.6759798e-13            0         1032            0            0         1898            3 
number of iterations: 3832 
    5000    78.460395     3017 1.7159597e-13            0         1062            0            0         1952            3 
number of iterations: 3880 
    5100    79.261423     3104 1.7559017e-13            0         1091            0            0         2010            3 
number of iterations: 3419 
    5200    79.976737     3186 1.7954467e-13            0         1119            0            0         2064            3 
number of iterations: 3321 
    5300    80.670189     3266 1.8356025e-13            0         1141            0            0         2122            3 
number of iterations: 3411 
    5400    81.443647     3364 1.8770406e-13            0         1171            0            0         2190            3 
number of iterations: 3184 
    5500    82.141922     3443 1.9175513e-13            0         1190            0            0         2250            3 
number of iterations: 3266 
    5600    82.879038     3529 1.9573129e-13            0         1217            0            0         2309            3 
number of iterations: 3345 
    5700    83.588223     3602 1.9963828e-13            0         1239            0            0         2360            3 
number of iterations: 2852 
    5800     84.19987     3692 2.037144e-13            0         1262            0            0         2427            3 
number of iterations: 3152 
    5900    84.886227     3761 2.0760696e-13            0         1281            0            0         2477            3 
number of iterations: 3117 
    6000    85.639679     3849 2.1163241e-13            0         1301            0            0         2545            3 
number of iterations: 2990 
    6100    86.370852     3914 2.1544282e-13            0         1319            0            0         2592            3 
number of iterations: 2768 
    6200     86.96863     3989 2.1926898e-13            0         1343            0            0         2643            3 
number of iterations: 2828 
    6300     87.62915     4073 2.2326525e-13            0         1369            0            0         2701            3 
number of iterations: 2991 
    6400    88.380456     4138 2.2704957e-13            0         1389            0            0         2746            3 
number of iterations: 2446 
    6500    88.977271     4205 2.3070027e-13            0         1420            0            0         2782            3 
number of iterations: 2515 
    6600    89.537861     4304 2.3468008e-13            0         1452            0            0         2849            3 
number of iterations: 3020 
    6700    90.216316     4375 2.3851101e-13            0         1470            0            0         2902            3 
number of iterations: 2680 
    6800    90.810469     4449 2.4236919e-13            0         1488            0            0         2958            3 
number of iterations: 2591 
    6900    91.382159     4527 2.4641827e-13            0         1497            0            0         3027            3 
number of iterations: 2288 
    7000    91.906476     4589 2.5012829e-13            0         1517            0            0         3069            3 
number of iterations: 2160 
    7100    92.401872     4670 2.5404549e-13            0         1537            0            0         3130            3 
number of iterations: 2320 
    7200    92.932058     4763 2.579739e-13            0         1569            0            0         3191            3 
number of iterations: 2292 
    7300     93.44231     4868 2.6215865e-13            0         1595            0            0         3270            3 
number of iterations: 2439 
    7400    94.027659     4969 2.6613337e-13            0         1626            0            0         3340            3 
number of iterations: 2430 
    7500    94.620613     5061 2.7007853e-13            0         1649            0            0         3409            3 
number of iterations: 2011 
    7600    95.102923     5152 2.7384594e-13            0         1680            0            0         3469            3 
number of iterations: 2027 
    7700    95.589584     5228 2.7758908e-13            0         1700            0            0         3525            3 
number of iterations: 2092 
    7800    96.065644     5303 2.8130611e-13            0         1723            0            0         3577            3 
number of iterations: 2058 
    7900    96.553593     5382 2.8505069e-13            0         1748            0            0         3631            3 
number of iterations: 1992 
    8000    97.014052     5462 2.8883139e-13            0         1768            0            0         3691            3 
number of iterations: 1979 
    8100    97.516079     5541 2.9258749e-13            0         1790            0            0         3748            3 
number of iterations: 1872 
    8200    98.015314     5612 2.9626419e-13            0         1812            0            0         3797            3 
number of iterations: 1788 
    8300    98.483498     5697 3.0005545e-13            0         1834            0            0         3860            3 
number of iterations: 1974 
    8400    99.000384     5798 3.0386695e-13            0         1869            0            0         3926            3 
number of iterations: 1815 
    8500    99.431908     5872 3.0753794e-13            0         1890            0            0         3979            3 
number of iterations: 2079 
    8600     99.91258     5940 3.1111306e-13            0         1911            0            0         4026            3 
number of iterations: 1576 
    8700    100.29817     6010 3.146847e-13            0         1933            0            0         4074            3 
number of iterations: 1653 
    8800    100.69526     6088 3.1834317e-13            0         1956            0            0         4129            3 
number of iterations: 1804 
    8900    101.12955     6147 3.2182062e-13            0         1977            0            0         4167            3 
number of iterations: 1645 
    9000    101.56418     6207 3.2529633e-13            0         1993            0            0         4211            3 
number of iterations: 1437 
    9100    101.92405     6280 3.2883224e-13            0         2017            0            0         4260            3 
number of iterations: 1970 
    9200    102.44171     6360 3.324601e-13            0         2043            0            0         4314            3 
number of iterations: 1798 
    9300     102.8908     6435 3.3615562e-13            0         2060            0            0         4372            3 
number of iterations: 1576 
    9400    103.28859     6516 3.3975444e-13            0         2085            0            0         4428            3 
number of iterations: 1741 
    9500    103.71034     6582 3.4316674e-13            0         2112            0            0         4467            3 
number of iterations: 1652 
    9600     104.1086     6696 3.4719119e-13            0         2135            0            0         4558            3 
number of iterations: 1785 
    9700    104.54293     6764 3.5077938e-13            0         2147            0            0         4614            3 
number of iterations: 1487 
    9800    104.90887     6848 3.5454027e-13            0         2159            0            0         4686            3 
number of iterations: 2015 
    9900    105.38503     6947 3.5822357e-13            0         2193            0            0         4751            3 
number of iterations: 1712 
   10000    105.79819     7031 3.6179165e-13            0         2217            0            0         4811            3 
number of iterations: 1640 
   10100    106.19527     7112 3.6542648e-13            0         2236            0            0         4873            3 
number of iterations: 1651 
   10200    106.59571     7203 3.6915752e-13            0         2255            0            0         4945            3 
number of iterations: 1506 
   10300    106.96792     7295 3.7274266e-13            0         2284            0            0         5008            3 
number of iterations: 1653 
   10400    107.37038     7388 3.763856e-13            0         2309            0            0         5076            3 
number of iterations: 1731 
   10500    107.79042     7469 3.8000132e-13            0         2326            0            0         5140            3 
number of iterations: 1609 
   10600    108.19086     7537 3.8344949e-13            0         2341            0            0         5193            3 
number of iterations: 1715 
   10700    108.60873     7617 3.8692076e-13            0         2367            0            0         5247            3 
number of iterations: 1522 
   10800    108.99112     7702 3.9054279e-13            0         2383            0            0         5316            3 
number of iterations: 1420 
   10900    109.35336     7796 3.941952e-13            0         2409            0            0         5384            3 
number of iterations: 1442 
   11000     109.7186     7869 3.9774096e-13            0         2423            0            0         5443            3 
number of iterations: 1423 
   11100    110.08225     7967 4.0143323e-13            0         2447            0            0         5517            3 
number of iterations: 1442 
   11200    110.44981     8051 4.0503783e-13            0         2464            0            0         5584            3 
number of iterations: 1643 
   11300    110.86389     8144 4.0862592e-13            0         2490            0            0         5651            3 
number of iterations: 1443 
   11400    111.23234     8220 4.1203626e-13            0         2510            0            0         5707            3 
number of iterations: 1438 
   11500    111.60131     8303 4.1556625e-13            0         2526            0            0         5774            3 
number of iterations: 1009 
   11600    111.88823     8381 4.1901823e-13            0         2544            0            0         5834            3 
number of iterations: 1275 
   11700    112.22974     8474 4.2260004e-13            0         2569            0            0         5902            3 
number of iterations: 1394 
   11800    112.59083     8546 4.259571e-13            0         2589            0            0         5954            3 
number of iterations: 1408 
   11900    112.95937     8632 4.2946899e-13            0         2610            0            0         6019            3 
number of iterations: 1226 
   12000     113.2902     8710 4.3283602e-13            0         2628            0            0         6079            3 
number of iterations: 1569 
   12100    113.68629     8793 4.3624119e-13            0         2650            0            0         6140            3 
number of iterations: 1198 
   12200    114.01471     8884 4.3978455e-13            0         2670            0            0         6211            3 
number of iterations: 1244 
   12300    114.35191     8966 4.4308394e-13            0         2695            0            0         6268            3 
number of iterations: 1091 
   12400    114.64899     9077 4.4683599e-13            0         2722            0            0         6352            3 
number of iterations: 1433 
   12500    115.02617     9165 4.5030011e-13            0         2744            0            0         6418            3 
number of iterations: 1461 
   12600    115.40529     9247 4.5368005e-13            0         2764            0            0         6480            3 
number of iterations: 1178 
   12700     115.7281     9350 4.5716062e-13            0         2798            0            0         6549            3 
number of iterations: 1431 
   12800    116.15325     9417 4.6039032e-13            0         2814            0            0         6600            3 
number of iterations: 1409 
   12900    116.53158     9531 4.6414797e-13            0         2836            0            0         6692            3 
number of iterations: 1280 
   13000     116.8747     9629 4.6757576e-13            0         2863            0            0         6763            3 
number of iterations: 1293 
   13100    117.22925     9714 4.7092403e-13            0         2885            0            0         6826            3 
number of iterations: 1158 
   13200    117.55445     9796 4.7426133e-13            0         2904            0            0         6889            3 
number of iterations: 1148 
   13300    117.88224     9869 4.7753299e-13            0         2920            0            0         6946            3 
number of iterations: 1292 
   13400    118.22828     9939 4.8074626e-13            0         2936            0            0         7000            3 
number of iterations: 1147 
   13500    118.54875    10027 4.8410632e-13            0         2956            0            0         7068            3 
number of iterations: 1257 
   13600    118.89597    10119 4.8752751e-13            0         2972            0            0         7144            3 
number of iterations: 1225 
   13700    119.23649    10197 4.9077144e-13            0         2989            0            0         7205            3 
number of iterations: 1614 
   13800    119.65543    10273   4.9406e-13            0         3003            0            0         7267            3 
number of iterations: 1052 
   13900    119.96128    10354 4.9725426e-13            0         3027            0            0         7324            3 
number of iterations: 1402 
   14000    120.34443    10431 5.0047124e-13            0         3048            0            0         7380            3 
number of iterations: 1388 
   14100    120.72157    10489 5.0346317e-13            0         3062            0            0         7424            3 
number of iterations: 982 
   14200    121.00994    10556 5.0659284e-13            0         3074            0            0         7479            3 
number of iterations: 1087 
   14300    121.32995    10650 5.0997377e-13            0         3094            0            0         7553            3 
number of iterations: 1169 
   14400    121.65475    10735 5.1319116e-13            0         3113            0            0         7619            3 
number of iterations: 1206 
   14500    122.00135    10839 5.1655203e-13            0         3144            0            0         7692            3 
number of iterations: 1158 
   14600    122.33345    10919 5.196919e-13            0         3167            0            0         7749            3 
number of iterations: 1215 
   14700    122.67742    10999 5.2280531e-13            0         3192            0            0         7804            3 
number of iterations: 1520 
   14800    123.08479    11105 5.2608526e-13            0         3221            0            0         7881            3 
number of iterations: 1062 
   14900    123.39544    11192 5.2932803e-13            0         3236            0            0         7953            3 
number of iterations: 1356 
   15000    123.77198    11298 5.3272889e-13            0         3259            0            0         8036            3 
number of iterations: 1483 
   15100    124.17778    11398 5.3602241e-13            0         3282            0            0         8113            3 
number of iterations: 1120 
   15200    124.50734    11470 5.3904024e-13            0         3298            0            0         8169            3 
number of iterations: 1003 
   15300    124.81344    11560 5.4218197e-13            0         3323            0            0         8234            3 
number of iterations: 1078 
   15400     125.1354    11640 5.4527339e-13            0         3346            0            0         8291            3 
number of iterations: 937 
   15500    125.42718    11723 5.4851557e-13            0         3356            0            0         8364            3 
number of iterations: 1366 
   15600    125.81144    11803 5.5166256e-13            0         3370            0            0         8430            3 
number of iterations: 1128 
   15700    126.65725    11884 5.5469952e-13            0         3392            0            0         8489            3 
number of iterations: 1151 
   15800    126.99638    11966 5.5781125e-13            0         3409            0            0         8554            3 
number of iterations: 1155 
   15900    127.33648    12041 5.6089748e-13            0         3421            0            0         8617            3 
number of iterations: 1179 
   16000    127.68882    12141 5.6422097e-13            0         3441            0            0         8697            3 
number of iterations: 1294 
   16100    128.05823    12218 5.672176e-13            0         3458            0            0         8757            3 
number of iterations: 1009 
   16200    128.36966    12304 5.7036874e-13            0         3472            0            0         8829            3 
number of iterations: 1282 
   16300    128.73794    12386 5.7340942e-13            0         3488            0            0         8895            3 
number of iterations: 1328 
   16400    129.11516    12499 5.7679627e-13            0         3509            0            0         8987            3 
number of iterations: 1264 
   16500    129.48344    12581 5.7993654e-13            0         3522            0            0         9056            3 
number of iterations: 1059 
   16600    129.80742    12673 5.8306552e-13            0         3542            0            0         9128            3 
number of iterations: 900 
   16700    130.10232    12756 5.8613301e-13            0         3558            0            0         9195            3 
number of iterations: 1025 
   16800    130.42097    12843 5.8920444e-13            0         3577            0            0         9263            3 
number of iterations: 1248 
   16900     130.7982    12924 5.9228396e-13            0         3590            0            0         9331            3 
number of iterations: 1248 
   17000    131.16525    13034 5.9567235e-13            0         3609            0            0         9422            3 
number of iterations: 1208 
   17100    131.52428    13123 5.9872626e-13            0         3628            0            0         9492            3 
number of iterations: 1286 
   17200    131.91253    13209 6.0179713e-13            0         3644            0            0         9562            3 
number of iterations: 1231 
   17300    132.28091    13290 6.0482996e-13            0         3656            0            0         9631            3 
number of iterations: 1183 
   17400    132.64221    13366 6.077794e-13            0         3673            0            0         9690            3 
number of iterations: 1093 
   17500     132.9821    13472 6.1106009e-13            0         3690            0            0         9779            3 
number of iterations: 1081 
   17600    133.31807    13557 6.140205e-13            0         3709            0            0         9845            3 
number of iterations: 1191 
   17700    133.67913    13669 6.173784e-13            0         3725            0            0         9941            3 
number of iterations: 908 
   17800    133.98013    13762 6.2047757e-13            0         3741            0            0        10018            3 
number of iterations: 1278 
   17900    134.36733    13850 6.2348535e-13            0         3759            0            0        10088            3 
number of iterations: 1050 
   18000    134.70145    13957 6.2666759e-13            0         3784            0            0        10170            3 
number of iterations: 1352 
   18100    135.09896    14030 6.2952153e-13            0         3795            0            0        10232            3 
number of iterations: 994 
   18200    135.41743    14125 6.3256718e-13            0         3816            0            0        10306            3 
number of iterations: 1182 
   18300    135.78022    14225 6.3573324e-13            0         3831            0            0        10391            3 
number of iterations: 1195 
   18400    136.14682    14322 6.3876673e-13            0         3854            0            0        10465            3 
number of iterations: 1045 
   18500    136.49131    14409 6.4172578e-13            0         3867            0            0        10539            3 
number of iterations: 1237 
   18600    136.86753    14505 6.4473731e-13            0         3891            0            0        10611            3 
number of iterations: 1425 
   18700    137.29114    14588 6.4763807e-13            0         3909            0            0        10676            3 
number of iterations: 984 
   18800    137.61775    14659 6.5039924e-13            0         3923            0            0        10733            3 
number of iterations: 903 
   18900    137.92807    14750 6.5332092e-13            0         3944            0            0        10803            3 
number of iterations: 1143 
   19000    138.29103    14850 6.5649845e-13            0         3953            0            0        10894            3 
number of iterations: 1156 
   19100    138.65535    14949 6.5961932e-13            0         3968            0            0        10978            3 
number of iterations: 1156 
   19200    139.01853    15049 6.6259725e-13            0         3991            0            0        11055            3 
number of iterations: 1276 
   19300    139.42075    15125 6.6533418e-13            0         4010            0            0        11112            3 
number of iterations: 1372 
   19400    139.83327    15196 6.6806279e-13            0         4022            0            0        11171            3 
number of iterations: 1045 
   19500    140.18651    15273 6.7076903e-13            0         4043            0            0        11227            3 
number of iterations: 1040 
   19600    140.52999    15378 6.7385917e-13            0         4066            0            0        11309            3 
number of iterations: 1191 
   19700    140.91446    15476 6.7685015e-13            0         4080            0            0        11393            3 
number of iterations: 1199 
   19800    141.29093    15550 6.7960689e-13            0         4091            0            0        11456            3 
number of iterations: 993 
   19900    141.62881    15633 6.824154e-13            0         4107            0            0        11523            3 
number of iterations: 1197 
   20000    142.01722    15716 6.8523045e-13            0         4123            0            0        11590            3 
number of iterations: 954 
   20100    142.35108    15801 6.8812752e-13            0         4136            0            0        11662            3 
number of iterations: 1122 
   20200    142.72674    15897 6.9111183e-13            0         4154            0            0        11740            3 
number of iterations: 1348 
   20300    143.15149    15968 6.9364314e-13            0         4176            0            0        11789            3 
number of iterations: 1013 
   20400    143.50603    16065 6.9647574e-13            0         4200            0            0        11862            3 
number of iterations: 880 
   20500    143.82194    16149 6.9931077e-13            0         4212            0            0        11934            3 
number of iterations: 993 
   20600    144.17471    16247 7.0233658e-13            0         4228            0            0        12016            3 
number of iterations: 1303 
   20700    144.58816    16345 7.0528577e-13            0         4246            0            0        12096            3 
number of iterations: 1016 
   20800    144.93727    16434 7.0801539e-13            0         4268            0            0        12163            3 
number of iterations: 1178 
   20900    145.32305    16515 7.1075098e-13            0         4284            0            0        12228            3 
number of iterations: 1318 
   21000    145.73347    16626 7.1373881e-13            0         4306            0            0        12317            3 
number of iterations: 1096 
   21100    146.10508    16725 7.1660338e-13            0         4324            0            0        12398            3 
number of iterations: 1282 
   21200    146.51359    16812 7.193855e-13            0         4341            0            0        12468            3 
number of iterations: 1229 
   21300    146.91165    16923 7.224004e-13            0         4353            0            0        12567            3 
number of iterations: 1299 
   21400    147.32797    17016 7.252961e-13            0         4360            0            0        12653            3 
number of iterations: 1155 
   21500     147.7141    17110 7.2813734e-13            0         4373            0            0        12734            3 
number of iterations: 1285 
   21600    148.13307    17187 7.3085236e-13            0         4382            0            0        12802            3 
number of iterations: 1180 
   21700    148.51236    17276 7.3354738e-13            0         4401            0            0        12872            3 
number of iterations: 1165 
   21800    148.91296    17369 7.3632247e-13            0         4418            0            0        12948            3 
number of iterations: 981 
   21900    149.26347    17477 7.3921362e-13            0         4441            0            0        13033            3 
number of iterations: 1081 
   22000     149.6622    17572 7.4201637e-13            0         4458            0            0        13111            3 
number of iterations: 1249 
   22100    150.07373    17654 7.4471828e-13            0         4470            0            0        13181            3 
number of iterations: 1155 
   22200    150.46815    17748 7.4749411e-13            0         4484            0            0        13261            3 
number of iterations: 1372 
   22300      150.903    17844 7.5028189e-13            0         4500            0            0        13341            3 
number of iterations: 1006 
   22400    151.26301    17944 7.5308281e-13            0         4521            0            0        13420            3 
number of iterations: 1023 
   22500    151.62964    18024 7.5556137e-13            0         4541            0            0        13480            3 
number of iterations: 1010 
   22600    151.99246    18138 7.5847992e-13            0         4564            0            0        13571            3 
number of iterations: 1171 
   22700    152.39378    18228 7.6118749e-13            0         4576            0            0        13649            3 
number of iterations: 1207 
   22800    152.79851    18318 7.6380137e-13            0         4597            0            0        13718            3 
number of iterations: 1334 
   22900    153.23278    18404 7.6635824e-13            0         4613            0            0        13788            3 
number of iterations: 1381 
   23000    153.68211    18501 7.6902897e-13            0         4634            0            0        13864            3 
number of iterations: 1034 
   23100    154.06123    18591 7.7170633e-13            0         4644            0            0        13944            3 
number of iterations: 1021 
   23200    154.44348    18675 7.7425145e-13            0         4660            0            0        14012            3 
number of iterations: 1344 
   23300    154.88221    18761 7.7682755e-13            0         4676            0            0        14082            3 
number of iterations: 908 
   23400     155.2348    18865 7.7967971e-13            0         4690            0            0        14172            3 
number of iterations: 1057 
   23500    155.60803    18941 7.8215586e-13            0         4705            0            0        14233            3 
number of iterations: 1003 
   23600    155.98044    19039 7.8483286e-13            0         4724            0            0        14312            3 
number of iterations: 1329 
   23700    156.42318    19131 7.8744084e-13            0         4741            0            0        14387            3 
number of iterations: 800 
   23800    156.75279    19241 7.9028431e-13            0         4759            0            0        14479            3 
number of iterations: 923 
   23900    157.11379    19327 7.9286806e-13            0         4778            0            0        14546            3 
number of iterations: 949 
   24000    157.48763    19407 7.9532757e-13            0         4795            0            0        14609            3 
number of iterations: 1009 
   24100    157.86455    19513 7.981006e-13            0         4811            0            0        14699            3 
number of iterations: 1236 
   24200    158.29044    19607 8.0070915e-13            0         4828            0            0        14776            3 
number of iterations: 1207 
   24300    158.70937    19707 8.0335048e-13            0         4847            0            0        14857            3 
number of iterations: 1104 
   24400    159.10824    19796 8.0595023e-13            0         4862            0            0        14931            3 
number of iterations: 978 
   24500    159.47298    19870 8.0827253e-13            0         4880            0            0        14987            3 
number of iterations: 1069 
   24600    159.87116    19945 8.1068185e-13            0         4892            0            0        15050            3 
number of iterations: 975 
   24700    160.25183    20036 8.1326079e-13            0         4906            0            0        15127            3 
number of iterations: 964 
   24800    160.62515    20143 8.1590982e-13            0         4928            0            0        15212            3 
number of iterations: 1089 
   24900     161.0367    20249 8.1867942e-13            0         4942            0            0        15304            3 
number of iterations: 1170 
   25000    161.45694    20331 8.2111102e-13            0         4953            0            0        15375            3 
number of iterations: 857 
   25100    161.82115    20429 8.2364719e-13            0         4975            0            0        15451            3 
number of iterations: 1219 
   25200    162.25902    20531 8.2633352e-13            0         4990            0            0        15538            3 
number of iterations: 1266 
   25300    162.70323    20653 8.2923141e-13            0         5007            0            0        15643            3 
number of iterations: 801 
   25400    163.05109    20760 8.3190329e-13            0         5025            0            0        15732            3 
number of iterations: 1296 
   25500    163.49614    20851 8.3437459e-13            0         5045            0            0        15803            3 
number of iterations: 1260 
   25600    163.94322    20954 8.3697068e-13            0         5065            0            0        15886            3 
number of iterations: 1280 
   25700    164.39658    21031 8.3930714e-13            0         5080            0            0        15948            3 
number of iterations: 1252 
   25800    164.84428    21122 8.4178407e-13            0         5098            0            0        16021            3 
number of iterations: 1296 
   25900     165.3087    21230 8.4448499e-13            0         5110            0            0        16117            3 
number of iterations: 1038 
   26000     165.7141    21318 8.4690937e-13            0         5124            0            0        16191            3 
number of iterations: 896 
   26100     166.0885    21406 8.4931895e-13            0         5137            0            0        16266            3 
number of iterations: 1073 
   26200    166.50237    21508 8.5204562e-13            0         5144            0            0        16361            3 
number of iterations: 965 
   26300    166.90844    21614 8.5466622e-13            0         5160            0            0        16451            3 
number of iterations: 1049 
   26400    167.33325    21718 8.572845e-13            0         5175            0            0        16540            3 
number of iterations: 1031 
   26500    167.75243    21801 8.5975034e-13            0         5182            0            0        16616            3 
number of iterations: 1170 
   26600    168.19369    21909 8.6229772e-13            0         5206            0            0        16700            3 
number of iterations: 1105 
   26700    168.62243    22011 8.6487682e-13            0         5222            0            0        16786            3 
number of iterations: 846 
   26800    168.99397    22106 8.6737083e-13            0         5239            0            0        16864            3 
number of iterations: 883 
   26900    169.37963    22195 8.698467e-13            0         5247            0            0        16945            3 
number of iterations: 1223 
   27000    169.83328    22285 8.7231214e-13            0         5260            0            0        17022            3 
number of iterations: 858 
   27100    170.20372    22402 8.7504131e-13            0         5277            0            0        17122            3 
number of iterations: 1328 
   27200    170.69697    22509 8.7759599e-13            0         5296            0            0        17210            3 
number of iterations: 1136 
   27300    171.15434    22608 8.8016333e-13            0         5308            0            0        17297            3 
number of iterations: 1018 
   27400     171.5568    22724 8.8285971e-13            0         5322            0            0        17399            3 
number of iterations: 1194 
   27500    172.01079    22817 8.8528387e-13            0         5339            0            0        17475            3 
number of iterations: 1115 
   27600    172.45394    22937 8.8802768e-13            0         5358            0            0        17576            3 
number of iterations: 1336 
   27700    172.95067    23035 8.904772e-13            0         5373            0            0        17659            3 
number of iterations: 961 
   27800    173.36053    23137 8.9300319e-13            0         5385            0            0        17749            3 
number of iterations: 957 
   27900    173.77023    23235 8.9548342e-13            0         5399            0            0        17833            3 
number of iterations: 1024 
   28000    174.20733    23346 8.9800117e-13            0         5419            0            0        17924            3 
number of iterations: 1247 
   28100    174.67745    23451 9.0042684e-13            0         5443            0            0        18005            3 
number of iterations: 1068 
   28200    175.11535    23540 9.0287097e-13            0         5450            0            0        18087            3 
number of iterations: 1129 
   28300    175.56689    23633 9.0522612e-13            0         5464            0            0        18166            3 
number of iterations: 1329 
   28400    176.11551    23731 9.0762885e-13            0         5479            0            0        18249            3 
number of iterations: 1087 
   28500    176.55643    23828 9.0999582e-13            0         5497            0            0        18328            3 
number of iterations: 1440 
   28600    177.06284    23928 9.1246897e-13            0         5505            0            0        18420            3 
number of iterations: 1161 
   28700    177.52366    24023 9.1476926e-13            0         5524            0            0        18496            3 
number of iterations: 1017 
   28800    177.95695    24131 9.1727819e-13            0         5540            0            0        18588            3 
number of iterations: 1226 
   28900    178.43672    24238 9.1982324e-13            0         5555            0            0        18680            3 
number of iterations: 1322 
   29000    178.95028    24377 9.227203e-13            0         5573            0            0        18801            3 
number of iterations: 1323 
   29100    179.46606    24471 9.2501285e-13            0         5589            0            0        18879            3 
number of iterations: 1046 
   29200    179.90913    24561 9.2728703e-13            0         5604            0            0        18954            3 
number of iterations: 940 
   29300    180.33361    24651 9.2954003e-13            0         5619            0            0        19029            3 
number of iterations: 921 
   29400    180.76767    24757 9.3184926e-13            0         5645            0            0        19109            3 
number of iterations: 1053 
   29500    181.22418    24860 9.3415418e-13            0         5663            0            0        19194            3 
number of iterations: 1085 
   29600    181.69718    24963 9.364906e-13            0         5681            0            0        19279            3 
number of iterations: 1093 
   29700    182.16176    25072 9.3898134e-13            0         5694            0            0        19375            3 
number of iterations: 1377 
   29800    182.68466    25163 9.4122445e-13            0         5706            0            0        19454            3 
number of iterations: 1275 
   29900    183.19747    25251 9.4333857e-13            0         5725            0            0        19523            3 
number of iterations: 921 
   30000    183.67101    25367 9.4591424e-13            0         5739            0            0        19625            3 
number of iterations: 1032 
   30100    184.14718    25479 9.483984e-13            0         5755            0            0        19721            3 
number of iterations: 1144 
   30200    184.64177    25582 9.5079415e-13            0         5763            0            0        19816            3 
number of iterations: 883 
   30300    185.04947    25695 9.5328234e-13            0         5778            0            0        19914            3 
number of iterations: 1274 
   30400    185.55553    25804 9.5567574e-13            0         5794            0            0        20007            3 
number of iterations: 1049 
   30500    186.01466    25891 9.5785179e-13            0         5807            0            0        20081            3 
number of iterations: 1228 
   30600    186.51651    25984 9.6012408e-13            0         5818            0            0        20163            3 
number of iterations: 869 
   30700    186.95491    26069 9.6218576e-13            0         5838            0            0        20228            3 
number of iterations: 1185 
   30800    187.43305    26168 9.6454833e-13            0         5847            0            0        20318            3 
number of iterations: 1098 
   30900     187.9107    26270 9.6680761e-13            0         5866            0            0        20401            3 
number of iterations: 979 
   31000    188.36363    26362 9.6896262e-13            0         5883            0            0        20476            3 
number of iterations: 993 
   31100    188.81613    26440 9.7103692e-13            0         5893            0            0        20544            3 
number of iterations: 1303 
   31200    189.33278    26535 9.7320102e-13            0         5913            0            0        20619            3 
number of iterations: 756 
   31300    189.73594    26632 9.7538722e-13            0         5930            0            0        20699            3 
number of iterations: 1301 
   31400    190.25552    26737 9.776879e-13            0         5947            0            0        20787            3 
number of iterations: 1206 
   31500    190.76134    26846 9.8009187e-13            0         5960            0            0        20883            3 
number of iterations: 999 
   31600    191.22141    26957 9.8249742e-13            0         5976            0            0        20978            3 
number of iterations: 1185 
   31700    191.78395    27060 9.8477923e-13            0         5992            0            0        21065            3 
number of iterations: 931 
   31800    192.23771    27151 9.8697423e-13            0         6005            0            0        21143            3 
number of iterations: 1095 
   31900    192.72405    27252 9.8930007e-13            0         6019            0            0        21230            3 
number of iterations: 1227 
   32000    193.25543    27379 9.9180692e-13            0         6040            0            0        21336            3 
number of iterations: 1228 
   32100    193.77154    27490 9.9413027e-13            0         6058            0            0        21429            3 
number of iterations: 1485 
   32200    194.34458    27576 9.9621265e-13            0         6070            0            0        21503            3 
number of iterations: 1119 
   32300    194.82344    27673 9.9846046e-13            0         6083            0            0        21587            3 
number of iterations: 1164 
   32400    195.33221    27767 1.000719e-12            0         6093            0            0        21671            3 
number of iterations: 1290 
   32500    195.86689    27858 1.0028101e-12            0         6110            0            0        21745            3 
number of iterations: 981 
   32600     196.3376    27953 1.0050212e-12            0         6122            0            0        21828            3 
number of iterations: 1050 
   32700    196.82657    28048 1.0071784e-12            0         6137            0            0        21908            3 
number of iterations: 1533 
   32800    197.42003    28141 1.0092018e-12            0         6154            0            0        21984            3 
number of iterations: 1099 
   32900    197.91733    28234 1.0114121e-12            0         6162            0            0        22069            3 
number of iterations: 1099 
   33000    198.40049    28330 1.0135756e-12            0         6175            0            0        22152            3 
number of iterations: 973 
   33100    198.87463    28439 1.0158876e-12            0         6191            0            0        22245            3 
number of iterations: 1142 
   33200    199.40434    28550 1.0183225e-12            0         6198            0            0        22349            3 
number of iterations: 895 
   33300    199.86522    28662 1.0205853e-12            0         6215            0            0        22444            3 
number of iterations: 1301 
   33400    200.41594    28769 1.0228167e-12            0         6236            0            0        22530            3 
number of iterations: 1276 
   33500    200.96285    28872 1.0250079e-12            0         6252            0            0        22617            3 
number of iterations: 1215 
   33600    201.51758    28980 1.0272323e-12            0         6270            0            0        22707            3 
number of iterations: 1323 
   33700    202.08392    29081 1.0293037e-12            0         6287            0            0        22791            3 
number of iterations: 1092 
   33800    202.59865    29200 1.0316442e-12            0         6309            0            0        22888            3 
number of iterations: 1104 
   33900     203.1133    29296 1.033748e-12            0         6321            0            0        22972            3 
number of iterations: 1513 
   34000    203.71291    29412 1.0360505e-12            0         6338            0            0        23071            3 
number of iterations: 1454 
   34100    204.30203    29519 1.0381817e-12            0         6360            0            0        23156            3 
number of iterations: 1491 
   34200    204.90083    29636 1.0404265e-12            0         6382            0            0        23251            3 
number of iterations: 1277 
   34300    205.44492    29737 1.0425206e-12            0         6399            0            0        23335            3 
number of iterations: 1356 
   34400    206.01955    29834 1.0445592e-12            0         6416            0            0        23415            3 
number of iterations: 1116 
   34500    206.54365    29940 1.046705e-12            0         6431            0            0        23506            3 
number of iterations: 1136 
   34600    207.05655    30044 1.0487019e-12            0         6453            0            0        23588            3 
number of iterations: 1290 
   34700    207.62514    30135 1.0507134e-12            0         6468            0            0        23664            3 
number of iterations: 1407 
   34800    208.22272    30227 1.0527071e-12            0         6482            0            0        23742            3 
number of iterations: 956 
   34900    208.70295    30342 1.055006e-12            0         6494            0            0        23845            3 
number of iterations: 1276 
   35000    209.29463    30452 1.0572498e-12            0         6509            0            0        23940            3 
number of iterations: 1260 
   35100    209.87254    30576 1.0596665e-12            0         6523            0            0        24050            3 
number of iterations: 1357 
   35200    210.46227    30675 1.0616539e-12            0         6537            0            0        24135            3 
number of iterations: 1105 
   35300    210.99845    30790 1.0639004e-12            0         6550            0            0        24237            3 
number of iterations: 1426 
   35400    211.60548    30891 1.0659133e-12            0         6570            0            0        24318            3 
number of iterations: 1084 
   35500    212.15611    30989 1.0679939e-12            0         6583            0            0        24403            3 
number of iterations: 1173 
   35600     212.7798    31091 1.0701186e-12            0         6596            0            0        24492            3 
number of iterations: 1151 
   35700    213.35011    31199 1.072228e-12            0         6616            0            0        24580            3 
number of iterations: 1176 
   35800    213.97126    31333 1.0745023e-12            0         6641            0            0        24689            3 
number of iterations: 1309 
   35900    214.56975    31456 1.0767119e-12            0         6658            0            0        24795            3 
number of iterations: 1307 
   36000    215.16414    31577 1.0790395e-12            0         6669            0            0        24905            3 
number of iterations: 1208 
   36100    215.74841    31690 1.0812341e-12            0         6686            0            0        25001            3 
number of iterations: 1037 
   36200    216.35177    31804 1.0833912e-12            0         6705            0            0        25096            3 
number of iterations: 1289 
   36300    216.98047    31914 1.0854539e-12            0         6724            0            0        25187            3 
number of iterations: 1128 
   36400    217.57498    32011 1.0873294e-12            0         6744            0            0        25264            3 
number of iterations: 1047 
   36500    218.13673    32087 1.0890402e-12            0         6756            0            0        25328            3 
number of iterations: 1241 
   36600    218.75114    32186 1.0910257e-12            0         6771            0            0        25412            3 
number of iterations: 1173 
   36700    219.36023    32293 1.0930546e-12            0         6790            0            0        25500            3 
number of iterations: 1300 
   36800    220.03523    32391 1.0949251e-12            0         6810            0            0        25578            3 
number of iterations: 1133 
   36900    220.66184    32513 1.0971478e-12            0         6825            0            0        25685            3 
number of iterations: 1409 
   37000    221.29838    32621 1.0992534e-12            0         6836            0            0        25782            3 
number of iterations: 1185 
   37100    221.89112    32722 1.1012922e-12            0         6850            0            0        25869            3 
number of iterations: 912 
   37200    222.43859    32830 1.1033678e-12            0         6865            0            0        25962            3 
number of iterations: 1180 
   37300    223.06033    32962 1.1056172e-12            0         6887            0            0        26072            3 
number of iterations: 1115 
   37400    223.63952    33060 1.1075648e-12            0         6900            0            0        26157            3 
number of iterations: 1219 
   37500    224.24025    33186 1.1097293e-12            0         6922            0            0        26261            3 
number of iterations: 1415 
   37600    224.88456    33321 1.1120937e-12            0         6937            0            0        26381            3 
number of iterations: 1109 
   37700    225.48484    33434 1.114227e-12            0         6947            0            0        26484            3 
number of iterations: 1220 
   37800    226.08962    33551 1.1163567e-12            0         6961            0            0        26587            3 
number of iterations: 1369 
   37900    226.71242    33673 1.1184268e-12            0         6983            0            0        26687            3 
number of iterations: 1351 
   38000    227.34975    33775 1.1202941e-12            0         7002            0            0        26770            3 
number of iterations: 1162 
   38100    227.95194    33887 1.1224079e-12            0         7011            0            0        26872            4 
number of iterations: 1094 
   38200    228.55719    33990 1.1242851e-12            0         7026            0            0        26960            4 
number of iterations: 1077 
   38300    229.14165    34101 1.126194e-12            0         7046            0            0        27051            4 
number of iterations: 1001 
   38400    229.70931    34227 1.1283123e-12            0         7066            0            0        27157            4 
number of iterations: 1354 
   38500    230.35404    34338 1.1303818e-12            0         7080            0            0        27254            4 
number of iterations: 1375 
   38600    231.01754    34445 1.1324322e-12            0         7093            0            0        27348            4 
number of iterations: 1087 
   38700    231.63753    34574 1.1346409e-12            0         7110            0            0        27458            6 
number of iterations: 1299 
   38800     232.2752    34678 1.1366517e-12            0         7120            0            0        27552            6 
number of iterations: 1068 
   38900    232.88878    34780 1.1385789e-12            0         7136            0            0        27638            6 
number of iterations: 1156 
   39000    233.50487    34914 1.1407524e-12            0         7161            0            0        27747            6 
number of iterations: 1221 
   39100    234.13314    35020 1.1426248e-12            0         7182            0            0        27832            6 
number of iterations: 1191 
   39200    234.79182    35133 1.1445756e-12            0         7198            0            0        27927            8 
number of iterations: 1287 
   39300    235.46688    35258 1.1466531e-12            0         7216            0            0        28034            8 
number of iterations: 1346 
   39400    236.19739    35362 1.1485682e-12            0         7228            0            0        28126            8 
number of iterations: 1261 
   39500    236.85574    35467 1.1505071e-12            0         7243            0            0        28216            8 
number of iterations: 1177 
   39600     237.4894    35586 1.1526023e-12            0         7253            0            0        28324            9 
number of iterations: 1114 
   39700    238.15162    35704 1.1546283e-12            0         7275            0            0        28419           10 
number of iterations: 1066 
   39800     238.7672    35839 1.1568098e-12            0         7292            0            0        28536           11 
number of iterations: 1317 
   39900    239.53662    35953 1.1587436e-12            0         7311            0            0        28630           12 
number of iterations: 1130 
   40000     240.1984    36047 1.1605003e-12            0         7323            0            0        28712           12 
Loop time of 240.198 on 4 procs for 40000 steps with 36047 atoms

Performance: 143881033.035 tau/day, 166.529 timesteps/s
99.7% CPU use with 4 MPI tasks x no OpenMP threads

MPI task timing breakdown:
Section |  min time  |  avg time  |  max time  |%varavg| %total
---------------------------------------------------------------
Pair    | 15.852     | 18.182     | 20.528     |  52.0 |  7.57
Neigh   | 8.6643     | 9.7055     | 10.838     |  31.5 |  4.04
Comm    | 3.9148     | 4.0134     | 4.081      |   3.0 |  1.67
Output  | 5.4178     | 5.4902     | 5.5634     |   2.9 |  2.29
Modify  | 193.79     | 195.11     | 196.5      |   8.6 | 81.23
Other   |            | 7.7        |            |       |  3.21

Nlocal:    9011.75 ave 10135 max 7983 min
Histogram: 2 0 0 0 0 0 0 0 1 1
Nghost:    861 ave 1067 max 668 min
Histogram: 1 1 0 0 0 0 0 1 0 1
Neighs:    53853 ave 60208 max 47628 min
Histogram: 1 1 0 0 0 0 0 0 1 1

Total # of neighbors = 215412
Ave neighs/atom = 5.97586
Neighbor list builds = 1241
Dangerous builds = 0

Total wall time: 0:04:00
