  Granular Flow Simulation 

       4 atoms 
       4 atom types 
       7 nutrients

   0.0   1.0e-04  xlo xhi 
   0.0   1.0e-04  ylo yhi 
   0.0   1.0e-04  zlo zhi 

 Atoms

     1 1 9.66e-7 290 5e-5 3e-5 5e-7 9.66e-7 aob
     2 2 9.66e-7 290 5e-5 4e-5 5e-7 9.66e-7 nob
     3 3 9.66e-7 290 5e-5 5e-5 5e-7 9.66e-7 het 
     4 4 9.66e-7 290 5e-5 2e-5 5e-7 9.66e-7 dead 
     
	

 Nutrients

     1 h l 8e-02 8e-02 8e-02 8e-02 8e-02 8e-02 8e-02
     2 nh3 l 0.002 0.002 0.002 0.002 0.002 0.002 0.002
     3 no2 l 0 0 0 0 0 0 0
     4 no3 l 0 0 0 0 0 0 0 
     5 o2 l 2.81e-4 2.81e-4 2.81e-4 2.81e-4 2.81e-4 2.81e-4 2.81e-4
     6 co2 l 0.005 0.005 0.005 0.005 0.005 0.005 0.005
     7 h2o l 1 1 1 1 1 1 1
     

 Diffusion Coeffs
     
     h 0.4e-9
     nh3 1.639e-9
     no2 1.7e-9
     no3 1.7e-9
     o2 2e-9
     co2 1.919e-9
     h2o 0
      

 Ks
     
     aob 2e-6 0 0 9.38e-6 0 0 0
     nob 0 2.29e-9 0 3.44e-5 0 0 0
     het 1e-5 0 3e-7 3e-7 8.1e-4 0 0 
     dead 0 0 0 0 0 0 0
     

 Growth

     aob 0.0002725
     nob 0.000909167
     het 0.0002725
     dead 0
    
    
 Yield
    
     aob 0.0759150138
     nob 0.021479215
     het 0.0759150138
     dead 0
     
  
 Maintenance
 
     aob 0.00125
     nob 0.00125
     het 0.00130
     dead 0
     

 Decay

     aob 2.78e-6
     nob 2.78e-6
     het 2.886-6
     dead 0
     

 Catabolism Coeffs
         
     aob -1 1 0 -1.5 0 1 1
     nob 0 -1 1 -0.5 0 0 0
     het 1 -1 1 -0.5 0 0 0
     dead 0 0 0 0 0 0 0
     

 Anabolism Coeffs
          
     aob -0.9 0.7 0 0 -1 1.1 -0.3
     nob 0 -2.9 2.7 0 -1 0.2 -1.2
     het 1 -2.9 2.7 0 -1 0.2 -1.2
     dead 0 0 0 0 0 0 0
     
 
 Decay Coeffs
           
     aob 1 1 1 1 1 1 1  
     nob 1 1 1 1 1 1 1 
     het 1 0 1 1 1 1 1 
     dead 0 0 0 0 0 0 0   

 
 Nutrient Energy

    h inf 2 inf inf inf 2 
    nh3 inf -79.37 -26.57 inf inf 3 
    no2 inf -50.60 -32.20 inf inf 3 
    no3 inf -103.70 -111.30 inf inf 3 
    o2 inf 16.4 inf inf inf 2 
    co2 -386.00 -623.16 -586.85 -527.80 inf 3 
    h2o inf -237.18 -157.3 inf inf 2  
    

 Type Energy

    aob inf -67 inf inf inf 2 
    nob inf -67 inf inf inf 2 
    het inf -67 inf inf inf 2
    het inf -67 inf inf inf 2  
    
