  Granular Flow Simulation 

       21 atoms 
       3 atom types 
       4 nutrients

   0.0   1.0e-04  xlo xhi 
   0.0   1.0e-04  ylo yhi 
   0.0   1.0e-04  zlo zhi 

 Atoms

     1 1 9.66e-7 15 5e-6 3e-6 5e-7 9.66e-7 aob
     2 1 9.66e-7 15 5e-6 3.1e-6 5e-7 9.66e-7 aob
     3 1 9.66e-7 15 5e-6 3.2e-6 5e-7 9.66e-7 aob
     4 1 9.66e-7 290 5e-6 3.3e-6 5e-7 9.66e-7 aob
     5 1 9.66e-7 290 5e-6 3.4e-6 5e-7 9.66e-7 aob
     6 1 9.66e-7 290 5e-6 3.5e-6 5e-7 9.66e-7 aob
     7 1 9.66e-7 290 5e-6 3.6e-6 5e-7 9.66e-7 aob
     8 1 9.66e-7 290 5e-6 3.7e-6 5e-7 9.66e-7 aob
     9 1 9.66e-7 290 5e-6 3.8e-6 5e-7 9.66e-7 aob
     10 1 9.66e-7 290 5e-6 3.9e-6 5e-7 9.66e-7 aob
     11 2 9.66e-7 290 5.1e-6 5e-6 5e-7 9.66e-7 het 
     12 2 9.66e-7 290 5.2e-6 5e-6 5e-7 9.66e-7 het
     13 2 9.66e-7 290 5.3e-6 5e-6 5e-7 9.66e-7 het
     14 2 9.66e-7 290 5.4e-6 5e-6 5e-7 9.66e-7 het
     15 2 9.66e-7 290 5.5e-6 5e-6 5e-7 9.66e-7 het
     16 2 9.66e-7 290 5.6e-6 5e-6 5e-7 9.66e-7 het 
     17 2 9.66e-7 290 5.7e-6 5e-6 5e-7 9.66e-7 het
     18 2 9.66e-7 290 5.8e-6 5e-6 5e-7 9.66e-7 het
     19 2 9.66e-7 290 5.9e-6 5e-6 5e-7 9.66e-7 het
     20 2 9.66e-7 290 6.0e-6 5e-6 5e-7 9.66e-7 het
     21 3 9.66e-7 290 6.130e-6 5e-6 5e-7 9.66e-7 dead


     
     
	

 Nutrients

     1 o2 l 2.81e-4 2.81e-4 2.81e-4 2.81e-4 2.81e-4 2.81e-4 2.81e-4
     2 nh3 l 0.002 0.002 0.002 0.002 0.002 0.002 0.002
     3 no3 l 0 0 0 0 0 0 0 
     4 co2 l 0.005 0.005 0.005 0.005 0.005 0.005 0.005
     
     

 Diffusion Coeffs
     
     o2  2.31e-9
     nh3 1.967e-9
     no3 1.967e-9
     co2 1.1574e-9
     
     
      

 Ks
     
     aob 2e-6 0 0 9.38e-6
     het 1e-5 0 3e-7 3e-7 
     dead 0 0 0 0 
     

 Growth

     aob 0.000695
     het 0.004166
     dead 0
    

 Yield
    
     aob 0.24
     het 0.63
     dead 0
     
     
  
 Maintenance
 
     aob 8.333333e-05
     het 22.16667e-05
     dead 0
     
     

 Decay

     aob 2.083333e-05
     het 5.5e-05
     dead 0


 Catabolism Coeffs
         
     aob -1 1 0 -1.5 
     het 1 -1 1 -0.5 
     dead 1 -1 0 0
     

 Anabolism Coeffs
          
     aob -0.9 0.7 0 0 
     het  1 -2.9 2.7 0 
     dead 1 0 0 1
     
 
 Decay Coeffs
           
     aob 1 1 1 1  
     het 1 0 1 1  
     dead 1 0 0 0

 
 Nutrient Energy
   
    o2 -386.00 -623.16 -586.85 -527.80 inf 3
    nh3 inf -79.37 -26.57 inf inf 3
    no3 inf -50.60 -32.20 inf inf 3
    co2 inf -103.70 -111.30 inf inf 3
    

 Type Energy

    aob inf -67 inf inf inf 2 
    het inf -67 inf inf inf 2 
    dead inf -67 inf inf inf 2
