ITEM: TIMESTEP
0
ITEM: NUMBER OF ATOMS
21
ITEM: BOX BOUNDS ff ff ff
0.0000000000000000e+00 1.0000000000000000e-04
0.0000000000000000e+00 1.0000000000000000e-04
0.0000000000000000e+00 1.0000000000000000e-04
ITEM: ATOMS id type diameter x y z 
1 1 9.66e-07 5e-06 3e-06 5e-07 
2 1 9.66e-07 5e-06 3.1e-06 5e-07 
3 1 9.66e-07 5e-06 3.2e-06 5e-07 
4 1 9.66e-07 5e-06 3.3e-06 5e-07 
5 1 9.66e-07 5e-06 3.4e-06 5e-07 
6 1 9.66e-07 5e-06 3.5e-06 5e-07 
7 1 9.66e-07 5e-06 3.6e-06 5e-07 
8 1 9.66e-07 5e-06 3.7e-06 5e-07 
9 1 9.66e-07 5e-06 3.8e-06 5e-07 
10 1 9.66e-07 5e-06 3.9e-06 5e-07 
11 2 9.66e-07 5.1e-06 5e-06 5e-07 
12 2 9.66e-07 5.2e-06 5e-06 5e-07 
13 2 9.66e-07 5.3e-06 5e-06 5e-07 
14 2 9.66e-07 5.4e-06 5e-06 5e-07 
15 2 9.66e-07 5.5e-06 5e-06 5e-07 
16 2 9.66e-07 5.6e-06 5e-06 5e-07 
17 2 9.66e-07 5.7e-06 5e-06 5e-07 
18 2 9.66e-07 5.8e-06 5e-06 5e-07 
19 2 9.66e-07 5.9e-06 5e-06 5e-07 
20 2 9.66e-07 6e-06 5e-06 5e-07 
21 3 9.66e-07 6.13e-06 5e-06 5e-07 
