  Granular Flow Simulation 

       5  atoms 
          5 atom types 

   0  4.000000e-05  xlo xhi 
   0  4.000000e-05  ylo yhi 
   0  4.000000e-05  zlo zhi 

 Atoms

     1 1 1.0839e-6 150 1e-05 1e-05 8.6e-07 1.4307e-6 4.00e-02 5.00e-03 4.00e-02 1.000e-03 1.0000e-04 
     2 2 1.2839e-6 150 2e-05 2e-05 9.26e-07 1.2839e-6 4.00e-02 5.00e-03 4.00e-02 1.000e-03 1.0000e-04
     3 3 1.0283e-6 150 3e-05 3e-05 8.6e-07 1.0283e-6 4.00e-02 5.00e-03 4.00e-02 1.000e-03 1.0000e-04 
     4 4 1.0539e-6 150 3e-05 1e-05 9.6e-07 1.0539e-6 4.00e-02 5.00e-03 4.00e-02 1.000e-03 1.0000e-04 
     5 5 1.4839e-6 150 1e-05 3e-05 10.6e-07 1.4839e-6 4.00e-02 5.00e-03 4.00e-02 1.000e-03 1.0000e-04 


