  Granular Flow Simulation 

       10  atoms 
          3  atom types 

   0  1.000000e-03  xlo xhi 
   0  1.000000e-03  ylo yhi 
   0  1.000000e-03  zlo zhi 

 Atoms

     1   1 3.981720e-05  1100   7.406660e-04   6.642450e-06   5.505370e-04
     2   2 2.206580e-05  1100   6.679450e-04   1.351990e-04   1.790920e-04
     3   2 5.824230e-05  1100   9.374720e-04   1.785100e-04   8.483590e-04
     4   3 4.668740e-05  1100   8.639010e-04   2.812250e-04   7.833260e-04
     5   1 1.962200e-05  1100   1.391130e-04   3.412770e-04   5.804470e-04
     6   1 7.009850e-05  1100   1.072430e-04   5.678060e-04   8.466210e-04
     7   3 4.990130e-05  1100   1.752980e-04   6.598180e-04   6.011530e-04
     8   1 2.375110e-05  1100   5.187920e-04   6.475150e-04   2.099430e-04
     9   2 9.825950e-05  1100   1.686910e-04   7.526170e-04   4.684950e-04
     10  3 8.981010e-05  1100   5.154450e-04   8.961410e-04   5.617530e-04
