  Granular Flow Simulation 

       60  atoms 
          3  atom types 

   0  1.000000e-03  xlo xhi 
   0  1.000000e-03  ylo yhi 
   0  1.000000e-03  zlo zhi 

 Atoms

     1   1 6.878270e-05  1100   8.667590e-05   9.389000e-05   8.985080e-04
     2   1 7.737590e-05  1100   2.594020e-04   1.166040e-04   6.065940e-04
     3   1 8.016440e-05  1100   5.571900e-04   1.126400e-04   1.653090e-04
     4   2 5.181370e-05  1100   7.973890e-04   6.763940e-05   1.929040e-04
     5   1 9.406020e-05  1100   5.527100e-05   1.356660e-04   7.290240e-04
     6   3 8.420170e-05  1100   3.675270e-04   1.463470e-04   2.140750e-04
     7   1 9.396420e-05  1100   4.320600e-04   1.279990e-04   9.123860e-04
     8   1 5.937770e-05  1100   4.606460e-04   2.403800e-04   6.868290e-04
     9   2 5.130170e-05  1100   5.139320e-04   1.931410e-04   9.124030e-04
     10   3 6.937040e-05  1100   5.798210e-04   1.936640e-04   8.877060e-04
     11   1 9.213050e-05  1100   6.798990e-04   2.011750e-04   5.829550e-05
     12   1 7.405490e-05  1100   8.704750e-05   2.977230e-04   7.865360e-04
     13   2 6.462590e-05  1100   4.687950e-04   2.888010e-04   2.498660e-04
     14   1 6.394160e-05  1100   9.396790e-04   3.076120e-04   9.044610e-04
     15   2 7.697600e-05  1100   4.411750e-05   3.283860e-04   1.597030e-04
     16   3 7.848180e-05  1100   3.031500e-04   3.649170e-04   8.197820e-04
     17   2 6.551180e-05  1100   8.013430e-04   3.449360e-04   4.920320e-04
     18   1 7.113790e-05  1100   7.810450e-04   3.159040e-04   7.696130e-04
     19   2 5.527080e-05  1100   3.082420e-04   3.764920e-04   2.996900e-04
     20   1 7.452530e-05  1100   7.994500e-04   4.261400e-04   8.772630e-04
     21   2 7.242930e-05  1100   8.717140e-04   4.041360e-04   1.363730e-04
     22   2 9.778820e-05  1100   9.155220e-04   4.294500e-04   6.816790e-04
     23   3 9.963440e-05  1100   5.272320e-05   4.742960e-04   2.544430e-04
     24   3 9.564870e-05  1100   2.087110e-04   4.685790e-04   8.774350e-05
     25   2 9.782220e-05  1100   8.375800e-04   4.827050e-04   5.122450e-04
     26   3 9.279230e-05  1100   4.446150e-04   5.073010e-04   7.296120e-04
     27   1 7.214590e-05  1100   5.840280e-04   5.473800e-04   6.248530e-05
     28   2 5.646130e-05  1100   8.589140e-04   5.469180e-04   2.679240e-04
     29   3 8.686510e-05  1100   8.781040e-05   5.885870e-04   6.861960e-05
     30   3 8.550550e-05  1100   6.650790e-04   5.975000e-04   9.104530e-04
     31   3 6.007480e-05  1100   7.028550e-04   6.165860e-04   4.178700e-04
     32   2 8.751920e-05  1100   7.907250e-04   5.680960e-04   8.569050e-05
     33   2 8.927470e-05  1100   1.820840e-04   6.373080e-04   2.042310e-04
     34   3 6.541240e-05  1100   2.169970e-04   6.496260e-04   5.432130e-04
     35   1 6.671850e-05  1100   2.079070e-04   6.718390e-04   8.065260e-04
     36   3 8.831800e-05  1100   6.381960e-04   6.368820e-04   1.891880e-04
     37   2 5.507690e-05  1100   6.285840e-04   6.684090e-04   8.840570e-04
     38   3 8.335430e-05  1100   7.126580e-04   6.738000e-04   5.146810e-04
     39   2 5.024620e-05  1100   7.668390e-04   6.380360e-04   1.726090e-04
     40   3 7.745570e-05  1100   7.666400e-04   6.833840e-04   4.115610e-04
     41   3 6.357920e-05  1100   5.381840e-04   7.380920e-04   1.566760e-04
     42   1 9.544990e-05  1100   6.583960e-04   7.447240e-04   8.694300e-04
     43   2 7.179930e-05  1100   1.280460e-04   7.818540e-04   4.806810e-04
     44   3 6.186990e-05  1100   2.451960e-04   7.525000e-04   9.113190e-04
     45   2 7.315300e-05  1100   7.091820e-04   7.540120e-04   1.169400e-04
     46   1 5.772320e-05  1100   7.121690e-04   7.871910e-04   4.602420e-04
     47   2 7.475330e-05  1100   7.817290e-04   7.753740e-04   6.771670e-04
     48   2 9.560560e-05  1100   1.718240e-04   8.536490e-04   2.157040e-04
     49   3 7.755860e-05  1100   3.923980e-04   8.258750e-04   4.522720e-05
     50   2 8.333690e-05  1100   4.983400e-04   8.418030e-04   7.980070e-04
     51   2 9.387170e-05  1100   9.435660e-04   8.156520e-04   1.300800e-04
     52   3 9.954300e-05  1100   1.877480e-04   9.305830e-04   1.419350e-04
     53   3 5.957270e-05  1100   3.792510e-04   8.966610e-04   6.213350e-04
     54   1 8.215690e-05  1100   5.463050e-04   9.342350e-04   9.090800e-04
     55   3 9.948090e-05  1100   9.366920e-04   8.900070e-04   7.224920e-04
     56   3 6.189930e-05  1100   9.563460e-05   9.828580e-04   7.097800e-04
     57   3 6.504180e-05  1100   3.322320e-04   9.591670e-04   8.788570e-05
     58   1 7.636580e-05  1100   4.410020e-04   9.956420e-04   3.765890e-04
     59   2 6.157150e-05  1100   4.597380e-04   9.790870e-04   4.760750e-04
     60   2 8.101920e-05  1100   5.089330e-04   9.978370e-04   6.917610e-05
