  Granular Flow Simulation 

       350  atoms 
          4  atom types 

   -1.000000e-03  2.000000e-03  xlo xhi 
   -1.000000e-03  2.000000e-03  ylo yhi 
   -1.000000e-03  2.000000e-03  zlo zhi 

 Atoms

     1   1 7.405490e-05  1100   4.656850e-05   5.615900e-05   4.867300e-04
     2   3 5.876670e-05  1100   3.185340e-05   5.825620e-06   7.046820e-04
     3   1 9.294660e-05  1100   7.139020e-05   5.743940e-05   2.795840e-04
     4   1 9.258100e-05  1100   6.310550e-05   2.380800e-05   6.049150e-04
     5   3 9.279230e-05  1100   7.484080e-05   3.129480e-05   7.647710e-04
     6   1 5.122800e-05  1100   1.261550e-04   4.558120e-05   5.153360e-04
     7   4 7.242930e-05  1100   1.695320e-04   1.511690e-05   9.210550e-04
     8   4 5.349940e-05  1100   2.332930e-04   6.840400e-06   3.131470e-05
     9   3 9.432280e-05  1100   2.462950e-04   5.065830e-05   9.234250e-04
     10   1 7.283300e-05  1100   2.944620e-04   3.235960e-05   7.535640e-05
     11   3 7.303260e-05  1100   4.042640e-04   3.775990e-05   9.403470e-04
     12   3 6.418280e-05  1100   4.992610e-04   4.419840e-05   2.418250e-04
     13   4 7.822950e-05  1100   4.837400e-04   4.485450e-05   7.181300e-04
     14   3 6.520330e-05  1100   4.898500e-04   7.932720e-07   7.801800e-04
     15   4 5.527080e-05  1100   5.205680e-04   3.747010e-05   1.229810e-04
     16   2 5.087030e-05  1100   6.858960e-04   4.463740e-05   7.659600e-04
     17   2 9.017190e-05  1100   7.315010e-04   3.022570e-05   4.368840e-04
     18   4 7.697600e-05  1100   6.886680e-04   3.286780e-05   5.134780e-04
     19   1 7.813590e-05  1100   7.426590e-04   3.840880e-05   9.119680e-04
     20   1 7.452530e-05  1100   8.724470e-04   5.483200e-05   1.792930e-04
     21   1 5.195110e-05  1100   8.321730e-04   4.212770e-05   2.443720e-04
     22   2 9.321810e-05  1100   8.869350e-04   2.054030e-05   6.455500e-05
     23   4 7.128280e-05  1100   9.575380e-04   3.076670e-05   2.760760e-04
     24   4 7.546430e-05  1100   9.584320e-04   5.224140e-05   8.780730e-04
     25   1 7.189630e-05  1100   6.035810e-05   7.809100e-05   1.936120e-04
     26   2 5.049410e-05  1100   4.004120e-05   7.780230e-05   3.854440e-04
     27   3 8.220360e-05  1100   4.215960e-05   9.038810e-05   8.363860e-04
     28   2 6.457630e-05  1100   7.730780e-05   1.116740e-04   1.230060e-04
     29   3 5.686340e-05  1100   1.234290e-04   9.463850e-05   1.904580e-04
     30   3 8.356220e-05  1100   1.398350e-04   1.056220e-04   5.857970e-04
     31   2 9.782220e-05  1100   1.323020e-04   9.164610e-05   8.368070e-04
     32   2 7.900140e-05  1100   2.423660e-04   6.494760e-05   2.024010e-04
     33   1 6.168690e-05  1100   2.248310e-04   7.838180e-05   6.460170e-04
     34   4 8.321030e-05  1100   2.935370e-04   8.727090e-05   3.735340e-04
     35   1 9.653440e-05  1100   2.956120e-04   1.226410e-04   5.507430e-04
     36   1 8.661370e-05  1100   3.366830e-04   1.039250e-04   1.461260e-04
     37   2 8.445960e-05  1100   3.160260e-04   1.183010e-04   7.491230e-04
     38   1 8.032630e-05  1100   4.307410e-04   6.472420e-05   1.337690e-04
     39   2 6.453690e-05  1100   4.908200e-04   7.568230e-05   3.183090e-04
     40   2 6.544200e-05  1100   5.515870e-04   1.033780e-04   7.632530e-04
     41   4 9.396420e-05  1100   5.927030e-04   1.231580e-04   3.570400e-04
     42   4 9.694920e-05  1100   6.287430e-04   8.551590e-05   5.195210e-05
     43   1 5.261130e-05  1100   6.343890e-04   1.047710e-04   8.382010e-04
     44   3 9.387170e-05  1100   6.733280e-04   1.206820e-04   9.227100e-04
     45   2 7.362270e-05  1100   8.490500e-04   1.045090e-04   9.029460e-04
     46   2 9.963440e-05  1100   9.389740e-04   1.074750e-04   9.499370e-04
     47   3 5.783160e-05  1100   3.138140e-05   1.596790e-04   1.900970e-04
     48   4 7.424200e-05  1100   4.077490e-05   1.253120e-04   5.136700e-04
     49   2 9.770340e-05  1100   5.078230e-05   1.463860e-04   7.067520e-04
     50   4 9.826230e-05  1100   6.567040e-05   1.601130e-04   2.774720e-04
     51   2 7.368360e-05  1100   7.019050e-05   1.455150e-04   4.189510e-04
     52   3 9.778820e-05  1100   1.234260e-04   1.718540e-04   9.374080e-04
     53   3 6.007480e-05  1100   1.333140e-04   1.451300e-04   1.281050e-04
     54   3 9.457630e-05  1100   1.805570e-04   1.498030e-04   4.571800e-04
     55   3 6.484280e-05  1100   2.961400e-04   1.318400e-04   2.349500e-04
     56   3 5.507690e-05  1100   3.241090e-04   1.631380e-04   3.881290e-04
     57   1 8.670570e-05  1100   3.867780e-04   1.355700e-04   4.795130e-04
     58   1 7.297660e-05  1100   4.558280e-04   1.294560e-04   6.422800e-05
     59   4 6.867840e-05  1100   5.494770e-04   1.501880e-04   7.270270e-05
     60   1 5.276120e-05  1100   6.188340e-04   1.580220e-04   1.416360e-04
     61   1 6.715540e-05  1100   5.941120e-04   1.603490e-04   5.026220e-04
     62   3 6.437790e-05  1100   6.860180e-04   1.868900e-04   4.762140e-05
     63   4 5.899800e-05  1100   6.540370e-04   1.676060e-04   6.195650e-04
     64   3 6.424620e-05  1100   7.987590e-04   1.611430e-04   1.841250e-04
     65   1 8.087430e-05  1100   9.188880e-04   1.471290e-04   1.855480e-04
     66   2 8.375730e-05  1100   9.464190e-04   1.483420e-04   9.909550e-05
     67   2 8.335430e-05  1100   9.488930e-04   1.463090e-04   6.588040e-04
     68   4 8.550550e-05  1100   9.381190e-04   1.296730e-04   8.112890e-04
     69   1 5.053430e-05  1100   2.615010e-05   1.936290e-04   5.735290e-05
     70   4 9.077940e-05  1100   4.541360e-05   2.273080e-04   9.544920e-04
     71   3 6.241060e-05  1100   1.167450e-04   1.914770e-04   4.905110e-04
     72   2 6.396420e-05  1100   1.131300e-04   2.164930e-04   5.953740e-04
     73   1 5.184530e-05  1100   1.350640e-04   2.315870e-04   3.737130e-05
     74   2 5.658470e-05  1100   1.545270e-04   2.010040e-04   7.659610e-04
     75   2 9.514880e-05  1100   2.024710e-04   2.294830e-04   7.230020e-05
     76   1 6.343340e-05  1100   2.150080e-04   2.312290e-04   5.616480e-04
     77   3 7.840950e-05  1100   2.111760e-04   2.179850e-04   8.268870e-04
     78   1 6.004710e-05  1100   2.653730e-04   2.145260e-04   6.903140e-04
     79   2 8.304370e-05  1100   2.524370e-04   1.964510e-04   9.548690e-04
     80   3 7.088090e-05  1100   3.350090e-04   2.124930e-04   2.716420e-04
     81   2 5.114470e-05  1100   4.215350e-04   2.449750e-04   5.638880e-05
     82   2 5.190290e-05  1100   4.850520e-04   2.000590e-04   8.321450e-05
     83   3 6.647030e-05  1100   6.187470e-04   2.352940e-04   1.607650e-04
     84   2 7.745570e-05  1100   5.855280e-04   2.212370e-04   2.342740e-04
     85   4 9.417080e-05  1100   6.784520e-04   2.408240e-04   2.438980e-04
     86   4 7.111790e-05  1100   6.670610e-04   2.271760e-04   3.944670e-04
     87   3 5.244920e-05  1100   6.647880e-04   2.375690e-04   5.748040e-04
     88   2 6.671850e-05  1100   7.909700e-04   2.033420e-04   4.044270e-05
     89   3 9.124510e-05  1100   7.692690e-04   2.088020e-04   2.982600e-04
     90   1 5.123400e-05  1100   7.858370e-04   2.041250e-04   7.372340e-04
     91   4 5.535590e-05  1100   8.656870e-04   2.104670e-04   7.244920e-04
     92   4 7.144670e-05  1100   8.816500e-04   2.082250e-04   2.537060e-04
     93   4 9.750180e-05  1100   9.499590e-04   2.466330e-04   9.363200e-04
     94   2 8.266760e-05  1100   6.181410e-05   2.984950e-04   4.143920e-05
     95   3 9.732310e-05  1100   5.434340e-05   2.843750e-04   2.428430e-04
     96   1 7.143800e-05  1100   4.018140e-05   3.104130e-04   9.099480e-04
     97   2 8.673010e-05  1100   8.722990e-05   3.058410e-04   4.306860e-04
     98   2 6.462590e-05  1100   1.869030e-04   3.082860e-04   9.300380e-05
     99   1 7.082580e-05  1100   1.560850e-04   2.965730e-04   6.145780e-04
     100   1 8.102000e-05  1100   2.785720e-04   2.698000e-04   5.075470e-05
     101   2 8.651810e-05  1100   3.282800e-04   2.636730e-04   7.270920e-04
     102   1 6.908060e-05  1100   3.281220e-04   2.532470e-04   8.922910e-04
     103   3 7.727550e-05  1100   4.722830e-04   2.616440e-04   1.290760e-04
     104   2 8.022440e-05  1100   5.320010e-04   2.550990e-04   3.346360e-04
     105   3 6.451270e-05  1100   5.048560e-04   3.047080e-04   8.584390e-04
     106   3 5.498400e-05  1100   5.429290e-04   3.100230e-04   9.546150e-04
     107   3 7.504110e-05  1100   6.101370e-04   2.966200e-04   3.375440e-04
     108   1 7.409440e-05  1100   5.782610e-04   2.534520e-04   6.451410e-04
     109   1 9.948090e-05  1100   6.939690e-04   2.524000e-04   1.048560e-04
     110   2 8.032220e-05  1100   6.930130e-04   2.945870e-04   6.646890e-04
     111   3 5.754750e-05  1100   8.103720e-04   2.500400e-04   1.354030e-04
     112   3 9.544990e-05  1100   7.694480e-04   2.995930e-04   5.136060e-04
     113   2 6.929160e-05  1100   8.611750e-04   2.694380e-04   4.167780e-05
     114   4 8.302770e-05  1100   8.428370e-04   2.556790e-04   3.683750e-04
     115   3 6.099490e-05  1100   9.241200e-04   2.595330e-04   6.875500e-04
     116   4 6.290370e-05  1100   9.497000e-04   2.728360e-04   2.291150e-04
     117   3 5.546860e-05  1100   9.502220e-04   2.544270e-04   4.644810e-04
     118   2 7.803610e-05  1100   4.514290e-05   3.165240e-04   1.299100e-04
     119   1 5.878110e-05  1100   4.100640e-05   3.477980e-04   1.939650e-04
     120   3 5.586050e-05  1100   2.847890e-05   3.556580e-04   4.614490e-04
     121   4 5.553490e-05  1100   3.509300e-05   3.526920e-04   6.999380e-04
     122   2 9.284410e-05  1100   4.659490e-05   3.150460e-04   8.153450e-04
     123   1 5.024620e-05  1100   8.562350e-05   3.565570e-04   9.292090e-04
     124   2 9.600490e-05  1100   1.418940e-04   3.673410e-04   2.083220e-04
     125   1 5.396530e-05  1100   2.371710e-04   3.589360e-04   3.553540e-04
     126   2 8.812590e-05  1100   2.670430e-04   3.479290e-04   1.387400e-04
     127   2 5.396830e-05  1100   2.664710e-04   3.659690e-04   6.673750e-04
     128   3 5.181370e-05  1100   3.495480e-04   3.543300e-04   3.945910e-04
     129   2 9.682300e-05  1100   3.127030e-04   3.502770e-04   7.609680e-04
     130   4 7.638910e-05  1100   4.231090e-04   3.526760e-04   4.082610e-04
     131   3 5.997560e-05  1100   4.391670e-04   3.518070e-04   1.512880e-04
     132   4 9.357250e-05  1100   5.491750e-04   3.448290e-04   3.731670e-04
     133   3 7.830810e-05  1100   5.800280e-04   3.169240e-04   4.648310e-05
     134   4 5.762940e-05  1100   6.025770e-04   3.539330e-04   5.630440e-04
     135   1 6.916590e-05  1100   7.093840e-04   3.309560e-04   3.480790e-05
     136   3 7.532900e-05  1100   8.031190e-04   3.370010e-04   1.775190e-04
     137   2 9.702090e-05  1100   8.240810e-04   3.289650e-04   8.759750e-05
     138   3 5.134250e-05  1100   8.350810e-04   3.142290e-04   5.514310e-04
     139   3 9.213050e-05  1100   9.465030e-04   3.597850e-04   5.025310e-04
     140   1 7.897430e-05  1100   4.446970e-05   4.264620e-04   2.338600e-04
     141   2 6.545130e-05  1100   7.572140e-05   4.370980e-04   5.146100e-05
     142   1 7.190140e-05  1100   7.929630e-05   3.955450e-04   1.469760e-04
     143   3 7.320000e-05  1100   1.490780e-04   4.221650e-04   3.143720e-04
     144   4 8.512210e-05  1100   1.673250e-04   4.266200e-04   7.643940e-04
     145   2 6.631970e-05  1100   2.199300e-04   4.199760e-04   4.244070e-05
     146   4 6.878270e-05  1100   2.010380e-04   4.290960e-04   4.091320e-04
     147   3 5.396870e-05  1100   1.985050e-04   4.191470e-04   5.401230e-04
     148   1 7.214590e-05  1100   1.912380e-04   4.365820e-04   9.285350e-04
     149   3 5.095430e-05  1100   2.825850e-04   4.025340e-04   3.165560e-05
     150   2 8.831800e-05  1100   3.002440e-04   3.946520e-04   9.532300e-04
     151   4 9.913570e-05  1100   4.375160e-04   3.966910e-04   9.427820e-04
     152   1 7.651920e-05  1100   5.479590e-04   4.281340e-04   3.452770e-04
     153   2 8.628590e-05  1100   6.035640e-04   4.240070e-04   1.145380e-04
     154   2 9.774700e-05  1100   6.484030e-04   4.284440e-04   3.892260e-04
     155   2 9.941170e-05  1100   6.879770e-04   3.984150e-04   8.120000e-05
     156   4 7.448790e-05  1100   7.310430e-04   3.755070e-04   1.641030e-04
     157   2 7.426950e-05  1100   6.999400e-04   3.901110e-04   9.381310e-04
     158   4 8.429450e-05  1100   8.585960e-04   4.218450e-04   2.281070e-04
     159   2 9.052370e-05  1100   8.533410e-04   3.913500e-04   9.005050e-04
     160   1 5.117730e-05  1100   9.198090e-04   3.820280e-04   2.533030e-04
     161   1 9.222310e-05  1100   9.150980e-04   4.198720e-04   7.594990e-04
     162   3 6.734900e-05  1100   9.614610e-04   4.020210e-04   6.815840e-04
     163   2 7.311070e-05  1100   9.443700e-04   3.978000e-04   9.453090e-04
     164   1 6.995690e-05  1100   5.500140e-05   4.882840e-04   3.415590e-04
     165   2 9.425980e-05  1100   4.788740e-05   4.545850e-04   8.238220e-04
     166   3 8.999570e-05  1100   5.722680e-05   4.664320e-04   9.351640e-04
     167   1 7.381420e-05  1100   9.737260e-05   4.990470e-04   4.316410e-04
     168   3 6.551180e-05  1100   1.410200e-04   4.885340e-04   5.550080e-04
     169   1 9.975790e-05  1100   1.276870e-04   4.743560e-04   6.795560e-04
     170   4 5.772320e-05  1100   2.112420e-04   4.520680e-04   1.793160e-04
     171   2 6.361410e-05  1100   2.435160e-04   4.859640e-04   9.356160e-04
     172   4 9.244110e-05  1100   2.615670e-04   4.633420e-04   1.182180e-04
     173   1 9.744880e-05  1100   2.551030e-04   4.648190e-04   3.472110e-04
     174   2 7.389160e-05  1100   3.246090e-04   4.433440e-04   5.417630e-05
     175   1 7.497380e-05  1100   4.248620e-04   4.692590e-04   4.494650e-04
     176   3 8.686510e-05  1100   5.523110e-04   4.703380e-04   4.709110e-05
     177   3 8.946350e-05  1100   6.355610e-04   4.749250e-04   8.261770e-04
     178   3 6.469570e-05  1100   7.507650e-04   4.399230e-04   3.474400e-04
     179   2 6.357920e-05  1100   7.698140e-04   4.384510e-04   4.626620e-04
     180   3 5.434400e-05  1100   8.594660e-04   4.994850e-04   2.201550e-04
     181   3 7.315300e-05  1100   8.394280e-04   4.799960e-04   2.859340e-04
     182   3 7.133330e-05  1100   8.482420e-04   4.507910e-04   5.751960e-04
     183   3 9.163150e-05  1100   9.068750e-04   4.531580e-04   3.827770e-04
     184   4 8.215690e-05  1100   9.547220e-04   4.665580e-04   2.861270e-04
     185   1 5.196850e-05  1100   9.563020e-04   4.610530e-04   5.412510e-04
     186   3 6.052820e-05  1100   9.643710e-04   4.924690e-04   8.825390e-04
     187   1 7.475330e-05  1100   4.196570e-05   5.519300e-04   5.020110e-05
     188   1 9.474330e-05  1100   5.109520e-05   5.392560e-04   5.746470e-04
     189   3 6.563930e-05  1100   1.429690e-04   5.282470e-04   1.272830e-04
     190   2 8.333690e-05  1100   2.217080e-04   5.491290e-04   3.160880e-04
     191   2 6.369880e-05  1100   2.287870e-04   5.086450e-04   6.337920e-04
     192   3 5.421270e-05  1100   4.269340e-04   5.106660e-04   9.615590e-04
     193   4 7.826950e-05  1100   6.495180e-04   5.402130e-04   1.297290e-04
     194   2 7.444380e-05  1100   6.456570e-04   5.362560e-04   3.377920e-04
     195   3 7.162750e-05  1100   9.274500e-04   5.191500e-04   1.458900e-04
     196   2 9.618110e-05  1100   5.145560e-05   5.830670e-04   1.328760e-04
     197   4 7.254350e-05  1100   1.093010e-04   6.068300e-04   5.848750e-04
     198   4 6.504180e-05  1100   1.472810e-04   5.920180e-04   8.922330e-05
     199   2 8.141930e-05  1100   1.795210e-04   5.722980e-04   5.966030e-04
     200   3 5.619510e-05  1100   2.482550e-04   6.195590e-04   1.454240e-04
     201   3 5.412220e-05  1100   2.062360e-04   5.632070e-04   5.084780e-04
     202   3 7.941410e-05  1100   2.195980e-04   6.056010e-04   8.365440e-04
     203   4 8.420170e-05  1100   1.980100e-04   6.045230e-04   9.550640e-04
     204   2 9.016720e-05  1100   2.659170e-04   5.840800e-04   5.884350e-04
     205   2 5.569670e-05  1100   3.684120e-04   5.878010e-04   2.297100e-04
     206   1 8.179070e-05  1100   4.104420e-04   6.171390e-04   2.925050e-04
     207   4 7.458210e-05  1100   3.988370e-04   6.106530e-04   8.003830e-04
     208   3 7.113790e-05  1100   4.884220e-04   5.634040e-04   6.673620e-05
     209   2 6.639170e-05  1100   4.378210e-04   6.059210e-04   6.822050e-04
     210   3 9.785210e-05  1100   5.179480e-04   6.122890e-04   1.944250e-04
     211   3 6.014980e-05  1100   5.726830e-04   5.635210e-04   1.011270e-04
     212   3 9.299970e-05  1100   6.069960e-04   5.936170e-04   9.488570e-04
     213   3 8.051920e-05  1100   7.343740e-04   6.114620e-04   1.695630e-04
     214   3 7.134060e-05  1100   8.747690e-04   6.005800e-04   6.282390e-04
     215   3 9.887030e-05  1100   8.852370e-04   6.132220e-04   1.253640e-04
     216   4 7.007850e-05  1100   8.910600e-04   5.931970e-04   4.586180e-04
     217   1 7.852430e-05  1100   9.565720e-04   5.853810e-04   4.388900e-05
     218   1 9.336600e-05  1100   9.404300e-04   5.663120e-04   7.330240e-04
     219   1 6.227420e-05  1100   9.407510e-04   5.862440e-04   9.587310e-04
     220   1 9.011100e-05  1100   4.673110e-05   6.313360e-04   3.880580e-04
     221   2 6.602860e-05  1100   3.999000e-05   6.685210e-04   5.046720e-04
     222   2 7.162900e-05  1100   9.270770e-05   6.494420e-04   8.194020e-04
     223   2 7.755860e-05  1100   1.370640e-04   6.294750e-04   4.944050e-04
     224   4 9.102870e-05  1100   1.621940e-04   6.618790e-04   6.156180e-04
     225   3 8.724550e-05  1100   1.459180e-04   6.522600e-04   7.403140e-04
     226   4 5.130170e-05  1100   2.352670e-04   6.713220e-04   1.002520e-04
     227   4 6.153420e-05  1100   1.957420e-04   6.825740e-04   3.357230e-04
     228   4 7.934920e-05  1100   2.311870e-04   6.332200e-04   6.610680e-04
     229   1 5.947600e-05  1100   2.744880e-04   6.490940e-04   4.177850e-05
     230   1 9.694320e-05  1100   2.639990e-04   6.728170e-04   4.498940e-04
     231   3 8.877310e-05  1100   3.326080e-04   6.524100e-04   9.108370e-04
     232   1 6.631780e-05  1100   3.892560e-04   6.253570e-04   3.378610e-05
     233   3 5.300160e-05  1100   4.994590e-04   6.562900e-04   6.584720e-05
     234   3 9.539590e-05  1100   4.396170e-04   6.720900e-04   7.477540e-04
     235   4 8.804330e-05  1100   4.602780e-04   6.511500e-04   8.668970e-04
     236   2 9.740600e-05  1100   6.079380e-04   6.339410e-04   1.052250e-04
     237   2 9.055890e-05  1100   6.016500e-04   6.509590e-04   5.536740e-04
     238   3 6.830520e-05  1100   6.756980e-04   6.788130e-04   5.105400e-05
     239   3 9.771920e-05  1100   6.349380e-04   6.648920e-04   2.416440e-04
     240   3 6.407220e-05  1100   6.656660e-04   6.561330e-04   8.789180e-04
     241   2 7.412050e-05  1100   7.332790e-04   6.344460e-04   3.922880e-04
     242   1 6.135620e-05  1100   9.207110e-04   6.311050e-04   2.541980e-04
     243   3 8.016440e-05  1100   9.205440e-04   6.731090e-04   7.590870e-04
     244   2 8.594190e-05  1100   4.751590e-05   7.255370e-04   4.390790e-04
     245   1 9.378030e-05  1100   4.795910e-05   7.431420e-04   9.367660e-04
     246   4 7.669880e-05  1100   6.305960e-05   7.396690e-04   5.053730e-05
     247   1 8.396740e-05  1100   7.794150e-05   7.067800e-04   3.284800e-04
     248   2 8.119950e-05  1100   2.393930e-04   7.244290e-04   5.080060e-05
     249   3 7.131920e-05  1100   2.682700e-04   7.442170e-04   6.102210e-04
     250   2 8.101920e-05  1100   2.529050e-04   7.251370e-04   8.469400e-04
     251   3 7.040450e-05  1100   3.157360e-04   7.310110e-04   3.444160e-04
     252   2 8.128500e-05  1100   3.982010e-04   7.006980e-04   6.470890e-04
     253   3 7.214480e-05  1100   4.981030e-04   7.437050e-04   4.220940e-05
     254   3 7.515320e-05  1100   4.387200e-04   6.995870e-04   1.240110e-04
     255   2 6.189930e-05  1100   5.942460e-04   6.940910e-04   9.310210e-04
     256   1 7.856140e-05  1100   7.204690e-04   7.450110e-04   1.406420e-04
     257   2 5.621000e-05  1100   7.220150e-04   6.920020e-04   6.813660e-04
     258   2 9.933670e-05  1100   7.712230e-04   7.398990e-04   5.952600e-05
     259   2 5.297830e-05  1100   7.826270e-04   7.077720e-04   1.727090e-04
     260   1 9.646010e-05  1100   8.044170e-04   7.179320e-04   2.786460e-04
     261   4 9.606630e-05  1100   8.369350e-04   7.311860e-04   4.051430e-04
     262   2 9.781630e-05  1100   8.976180e-04   7.418100e-04   4.961360e-05
     263   4 6.913260e-05  1100   8.928530e-04   6.983050e-04   2.647060e-04
     264   2 8.091510e-05  1100   9.054450e-04   7.393280e-04   4.605210e-04
     265   4 8.751920e-05  1100   9.495520e-04   7.105450e-04   1.393690e-04
     266   2 6.001100e-05  1100   4.008550e-05   7.899430e-04   1.373320e-04
     267   4 8.620920e-05  1100   6.011320e-05   7.676750e-04   5.523810e-04
     268   4 7.819180e-05  1100   1.172580e-04   7.944900e-04   4.263000e-04
     269   2 8.962760e-05  1100   8.827390e-05   7.856350e-04   6.934890e-04
     270   1 9.096800e-05  1100   1.574500e-04   7.715470e-04   6.080260e-04
     271   4 5.334380e-05  1100   2.088140e-04   7.505240e-04   9.625580e-04
     272   4 7.737590e-05  1100   3.189040e-04   7.569000e-04   4.383140e-05
     273   2 9.466290e-05  1100   3.576300e-04   7.509000e-04   5.670320e-04
     274   3 5.850870e-05  1100   3.218380e-04   7.603240e-04   9.394610e-04
     275   2 7.505120e-05  1100   4.168820e-04   7.887420e-04   7.356970e-04
     276   4 9.560560e-05  1100   4.947760e-04   7.734450e-04   1.466790e-04
     277   4 6.462860e-05  1100   4.395000e-04   7.801220e-04   5.909580e-04
     278   1 9.564870e-05  1100   4.569470e-04   7.924220e-04   9.451200e-04
     279   4 8.687350e-05  1100   5.509320e-04   7.662090e-04   2.285590e-04
     280   4 9.543300e-05  1100   5.952650e-04   7.587450e-04   6.740370e-04
     281   3 9.161560e-05  1100   6.685650e-04   7.618820e-04   4.740100e-05
     282   4 7.666690e-05  1100   6.519150e-04   7.838290e-04   1.730920e-04
     283   3 5.098010e-05  1100   7.566050e-04   7.525220e-04   2.184010e-04
     284   1 9.954300e-05  1100   8.639960e-04   7.582030e-04   1.509560e-04
     285   1 9.349190e-05  1100   9.520100e-04   7.658710e-04   7.129270e-04
     286   2 7.718210e-05  1100   3.922740e-05   8.255570e-04   4.887030e-04
     287   3 9.022520e-05  1100   5.269830e-05   8.350270e-04   6.194990e-04
     288   4 9.982270e-05  1100   5.202080e-05   8.711120e-04   7.123190e-04
     289   4 9.596050e-05  1100   7.011290e-05   8.419520e-04   9.406120e-04
     290   2 9.373430e-05  1100   1.456770e-04   8.189980e-04   2.925050e-04
     291   3 7.313890e-05  1100   1.273230e-04   8.600560e-04   7.787330e-04
     292   1 6.954590e-05  1100   1.846720e-04   8.711800e-04   8.218600e-04
     293   1 6.394160e-05  1100   2.189970e-04   8.509340e-04   2.611800e-04
     294   1 6.415060e-05  1100   2.334510e-04   8.187260e-04   4.969270e-04
     295   3 6.186990e-05  1100   3.004030e-04   8.185880e-04   8.472820e-04
     296   2 9.018630e-05  1100   3.468090e-04   8.145100e-04   1.726120e-04
     297   1 7.628240e-05  1100   3.763580e-04   8.299690e-04   2.677390e-04
     298   2 5.811970e-05  1100   4.405130e-04   8.436940e-04   6.712850e-04
     299   1 5.959470e-05  1100   5.041460e-04   8.346200e-04   2.736990e-04
     300   1 5.359830e-05  1100   5.889720e-04   8.509980e-04   5.941120e-04
     301   4 6.408190e-05  1100   6.378080e-04   8.464750e-04   1.175640e-04
     302   3 7.636580e-05  1100   6.285200e-04   8.469290e-04   3.338630e-04
     303   4 6.854090e-05  1100   7.165190e-04   8.601460e-04   5.662810e-04
     304   3 7.179930e-05  1100   7.465410e-04   8.377640e-04   7.619810e-04
     305   3 6.541240e-05  1100   7.797180e-04   8.450900e-04   6.574970e-04
     306   4 8.751060e-05  1100   8.577880e-04   8.588180e-04   4.862460e-05
     307   4 8.642820e-05  1100   9.497140e-04   8.462810e-04   6.861420e-05
     308   4 6.157150e-05  1100   9.447400e-04   8.218350e-04   5.655910e-04
     309   1 8.629490e-05  1100   4.479220e-05   9.178930e-04   4.914090e-05
     310   4 8.007050e-05  1100   4.219040e-05   8.944760e-04   1.549240e-04
     311   3 9.096860e-05  1100   5.329300e-05   8.967400e-04   2.792690e-04
     312   4 5.982970e-05  1100   4.447300e-05   9.180820e-04   4.877750e-04
     313   3 8.535920e-05  1100   6.787520e-05   9.277940e-04   5.907040e-04
     314   2 7.882480e-05  1100   1.257550e-04   8.950890e-04   1.738560e-04
     315   4 5.723510e-05  1100   2.178380e-04   9.101440e-04   1.582180e-04
     316   1 5.083570e-05  1100   1.899700e-04   8.941720e-04   4.741610e-04
     317   2 5.749330e-05  1100   2.201760e-04   8.757310e-04   7.423010e-04
     318   4 8.491920e-05  1100   2.872780e-04   8.847000e-04   2.817140e-04
     319   3 8.775070e-05  1100   2.901810e-04   8.821490e-04   7.116660e-04
     320   4 7.365190e-05  1100   3.446230e-04   9.284190e-04   5.490120e-04
     321   3 7.667680e-05  1100   3.912320e-04   9.115970e-04   9.398920e-05
     322   3 7.389510e-05  1100   4.345530e-04   9.341760e-04   3.873430e-04
     323   1 9.107900e-05  1100   4.924660e-04   8.770790e-04   1.892220e-04
     324   3 7.819720e-05  1100   7.439290e-04   9.214290e-04   1.796790e-04
     325   1 6.030510e-05  1100   9.144710e-04   8.841940e-04   5.877240e-04
     326   3 8.927470e-05  1100   9.240830e-04   9.250900e-04   7.703580e-04
     327   3 7.904220e-05  1100   9.481750e-04   9.030460e-04   1.450730e-04
     328   3 5.646130e-05  1100   3.081170e-05   9.878570e-04   8.451950e-05
     329   4 5.576040e-05  1100   6.107900e-05   9.858210e-04   1.478060e-04
     330   4 6.904780e-05  1100   5.790100e-05   9.595680e-04   8.773780e-04
     331   4 8.680370e-05  1100   1.218670e-04   9.568460e-04   5.021770e-04
     332   3 6.556320e-05  1100   1.615850e-04   9.668950e-04   3.624970e-05
     333   4 8.178650e-05  1100   1.788310e-04   9.761970e-04   1.093590e-04
     334   3 9.532330e-05  1100   1.544320e-04   9.478270e-04   2.420610e-04
     335   1 5.913850e-05  1100   1.620450e-04   9.483220e-04   4.376230e-04
     336   1 9.070960e-05  1100   3.371740e-04   9.620720e-04   2.618150e-04
     337   4 9.087060e-05  1100   3.201760e-04   9.858730e-04   9.481300e-04
     338   2 5.513500e-05  1100   4.700620e-04   9.596240e-04   2.581520e-04
     339   4 9.624480e-05  1100   4.949220e-04   9.964900e-04   3.862190e-04
     340   1 6.677170e-05  1100   4.659900e-04   9.833390e-04   9.469770e-04
     341   3 9.078380e-05  1100   5.587170e-04   9.776570e-04   4.633870e-04
     342   3 6.901560e-05  1100   6.150660e-04   9.793810e-04   3.433690e-04
     343   1 5.937770e-05  1100   5.668890e-04   9.438040e-04   8.124860e-04
     344   3 8.487190e-05  1100   5.961150e-04   9.737210e-04   8.807510e-04
     345   2 6.937040e-05  1100   7.358320e-04   9.910440e-04   5.679370e-04
     346   1 7.848180e-05  1100   8.441990e-04   9.408550e-04   1.951920e-04
     347   2 7.295440e-05  1100   9.068040e-04   9.479370e-04   6.322180e-04
     348   1 9.085180e-05  1100   9.097210e-04   9.505290e-04   9.426360e-04
     349   1 9.406020e-05  1100   9.480090e-04   9.694270e-04   4.518390e-04
     350   1 5.957270e-05  1100   9.651280e-04   9.919550e-04   9.094920e-04
