  Granular Flow Simulation 

       350  atoms 
          4  atom types 

   0  1.000000e-04  xlo xhi 
   0  1.000000e-04  ylo yhi 
   0  1.000000e-04  zlo zhi 

 Atoms

     1 4 7.405490e-06  1010 4.656850e-06 5.615900e-06 4.867300e-05 1.205600e-02 2.795000e-03 3.956800e-02 5.038000e-04 8.090000e-04 
     2 4 5.876670e-06  1010 3.185340e-06 5.825620e-07 7.046820e-05 2.804400e-02 4.270500e-03 2.676000e-03 6.128000e-04 3.565000e-04 
     3 1 9.294660e-06  1010 7.139020e-06 5.743940e-06 2.795840e-05 2.665600e-02 1.739500e-03 3.757600e-02 8.195000e-04 7.320000e-05 
     4 4 9.258100e-06  1010 6.310550e-06 2.380800e-06 6.049150e-05 2.156400e-02 2.230000e-03 7.240000e-04 5.319000e-04 5.910000e-04 
     5 3 9.279230e-06  1010 7.484080e-06 3.129480e-06 7.647710e-05 2.792400e-02 2.710000e-04 2.735600e-02 2.020000e-04 9.102000e-04 
     6 1 5.122800e-06  1010 1.261550e-05 4.558120e-06 5.153360e-05 2.666000e-02 8.855000e-04 3.135200e-02 4.539000e-04 1.937000e-04 
     7 2 7.242930e-06  1010 1.695320e-05 1.511690e-06 9.210550e-05 7.124000e-03 3.314000e-03 2.136400e-02 4.279000e-04 4.324000e-04 
     8 3 5.349940e-06  1010 2.332930e-05 6.840400e-07 3.131470e-06 5.120000e-03 1.654000e-03 3.541600e-02 9.661000e-04 7.492000e-04 
     9 4 9.432280e-06  1010 2.462950e-05 5.065830e-06 9.234250e-05 3.996400e-02 4.492500e-03 3.596000e-02 6.201000e-04 3.910000e-05 
     10 4 7.283300e-06  1010 2.944620e-05 3.235960e-06 7.535640e-06 6.844000e-03 5.905000e-04 2.504000e-02 6.954000e-04 9.464000e-04 
     11 1 7.303260e-06  1010 4.042640e-05 3.775990e-06 9.403470e-05 1.304000e-03 4.942500e-03 5.512000e-03 7.202000e-04 7.637000e-04 
     12 4 6.418280e-06  1010 4.992610e-05 4.419840e-06 2.418250e-05 2.244800e-02 2.700000e-03 8.712000e-03 3.469000e-04 5.588000e-04 
     13 4 7.822950e-06  1010 4.837400e-05 4.485450e-06 7.181300e-05 3.527600e-02 3.534500e-03 7.284000e-03 5.170000e-04 1.838000e-04 
     14 2 6.520330e-06  1010 4.898500e-05 7.932720e-08 7.801800e-05 2.676800e-02 4.997500e-03 1.672000e-03 5.567000e-04 4.979000e-04 
     15 4 5.527080e-06  1010 5.205680e-05 3.747010e-06 1.229810e-05 7.616000e-03 1.439000e-03 4.276000e-03 1.565000e-04 5.178000e-04 
     16 1 5.087030e-06  1010 6.858960e-05 4.463740e-06 7.659600e-05 1.475600e-02 2.072500e-03 2.466000e-02 5.621000e-04 9.943000e-04 
     17 2 9.017190e-06  1010 7.315010e-05 3.022570e-06 4.368840e-05 1.842800e-02 2.324000e-03 3.758800e-02 6.948000e-04 8.549000e-04 
     18 4 7.697600e-06  1010 6.886680e-05 3.286780e-06 5.134780e-05 3.926800e-02 3.820000e-03 1.417600e-02 4.264000e-04 9.625000e-04 
     19 4 7.813590e-06  1010 7.426590e-05 3.840880e-06 9.119680e-05 6.256000e-03 4.091000e-03 1.642400e-02 8.363000e-04 6.790000e-04 
     20 4 7.452530e-06  1010 8.724470e-05 5.483200e-06 1.792930e-05 3.422400e-02 5.010000e-04 3.937600e-02 7.314000e-04 4.035000e-04 
     21 3 5.195110e-06  1010 8.321730e-05 4.212770e-06 2.443720e-05 2.579200e-02 8.905000e-04 3.782400e-02 3.600000e-04 9.350000e-04 
     22 1 9.321810e-06  1010 8.869350e-05 2.054030e-06 6.455500e-06 1.505200e-02 1.798000e-03 2.706800e-02 4.542000e-04 4.795000e-04 
     23 4 7.128280e-06  1010 9.575380e-05 3.076670e-06 2.760760e-05 7.636000e-03 2.835000e-04 3.953600e-02 3.864000e-04 2.318000e-04 
     24 4 7.546430e-06  1010 9.584320e-05 5.224140e-06 8.780730e-05 1.712800e-02 2.609500e-03 3.067600e-02 7.756000e-04 3.963000e-04 
     25 3 7.189630e-06  1010 6.035810e-06 7.809100e-06 1.936120e-05 1.928000e-02 1.679000e-03 1.346800e-02 7.343000e-04 7.051000e-04 
     26 4 5.049410e-06  1010 4.004120e-06 7.780230e-06 3.854440e-05 4.824000e-03 8.780000e-04 2.649600e-02 4.303000e-04 5.586000e-04 
     27 3 8.220360e-06  1010 4.215960e-06 9.038810e-06 8.363860e-05 2.358000e-02 1.044500e-03 9.764000e-03 6.938000e-04 7.567000e-04 
     28 2 6.457630e-06  1010 7.730780e-06 1.116740e-05 1.230060e-05 9.048000e-03 4.526000e-03 1.182000e-02 9.453000e-04 9.955000e-04 
     29 3 5.686340e-06  1010 1.234290e-05 9.463850e-06 1.904580e-05 1.538400e-02 3.377000e-03 2.720800e-02 7.843000e-04 9.625000e-04 
     30 1 8.356220e-06  1010 1.398350e-05 1.056220e-05 5.857970e-05 2.332000e-02 2.342500e-03 2.111200e-02 7.056000e-04 5.351000e-04 
     31 3 9.782220e-06  1010 1.323020e-05 9.164610e-06 8.368070e-05 1.007200e-02 4.561000e-03 1.646400e-02 1.093000e-04 9.639000e-04 
     32 1 7.900140e-06  1010 2.423660e-05 6.494760e-06 2.024010e-05 1.161600e-02 5.200000e-04 2.410400e-02 3.899000e-04 1.156000e-04 
     33 2 6.168690e-06  1010 2.248310e-05 7.838180e-06 6.460170e-05 2.468400e-02 3.728000e-03 3.002000e-02 5.909000e-04 5.140000e-05 
     34 1 8.321030e-06  1010 2.935370e-05 8.727090e-06 3.735340e-05 1.061200e-02 3.681500e-03 2.334000e-02 4.594000e-04 3.043000e-04 
     35 1 9.653440e-06  1010 2.956120e-05 1.226410e-05 5.507430e-05 3.297600e-02 2.809500e-03 2.207200e-02 5.030000e-05 5.802000e-04 
     36 4 8.661370e-06  1010 3.366830e-05 1.039250e-05 1.461260e-05 3.930800e-02 9.210000e-04 2.334400e-02 2.287000e-04 5.310000e-04 
     37 3 8.445960e-06  1010 3.160260e-05 1.183010e-05 7.491230e-05 2.921200e-02 2.986000e-03 2.047200e-02 8.342000e-04 9.012000e-04 
     38 2 8.032630e-06  1010 4.307410e-05 6.472420e-06 1.337690e-05 1.375600e-02 1.499500e-03 3.304000e-03 1.560000e-05 5.406000e-04 
     39 4 6.453690e-06  1010 4.908200e-05 7.568230e-06 3.183090e-05 2.336400e-02 6.705000e-04 2.878400e-02 8.637000e-04 4.320000e-04 
     40 1 6.544200e-06  1010 5.515870e-05 1.033780e-05 7.632530e-05 4.308000e-03 1.063000e-03 3.984800e-02 7.800000e-05 5.427000e-04 
     41 2 9.396420e-06  1010 5.927030e-05 1.231580e-05 3.570400e-05 3.625200e-02 4.475000e-03 1.418000e-02 6.691000e-04 7.124000e-04 
     42 2 9.694920e-06  1010 6.287430e-05 8.551590e-06 5.195210e-06 3.518800e-02 3.570000e-04 3.885200e-02 5.002000e-04 1.660000e-05 
     43 4 5.261130e-06  1010 6.343890e-05 1.047710e-05 8.382010e-05 3.271200e-02 1.212500e-03 1.385600e-02 2.180000e-04 8.010000e-04 
     44 4 9.387170e-06  1010 6.733280e-05 1.206820e-05 9.227100e-05 1.042800e-02 2.685000e-04 3.546400e-02 5.716000e-04 1.425000e-04 
     45 1 7.362270e-06  1010 8.490500e-05 1.045090e-05 9.029460e-05 2.377600e-02 2.208500e-03 1.818800e-02 1.222000e-04 4.785000e-04 
     46 2 9.963440e-06  1010 9.389740e-05 1.074750e-05 9.499370e-05 9.000000e-04 6.600000e-05 1.653600e-02 6.712000e-04 2.568000e-04 
     47 2 5.783160e-06  1010 3.138140e-06 1.596790e-05 1.900970e-05 1.701200e-02 4.486000e-03 8.708000e-03 5.996000e-04 3.691000e-04 
     48 3 7.424200e-06  1010 4.077490e-06 1.253120e-05 5.136700e-05 1.250800e-02 9.830000e-04 5.024000e-03 5.590000e-05 6.618000e-04 
     49 3 9.770340e-06  1010 5.078230e-06 1.463860e-05 7.067520e-05 6.460000e-03 4.665000e-04 1.235600e-02 5.630000e-05 1.696000e-04 
     50 4 9.826230e-06  1010 6.567040e-06 1.601130e-05 2.774720e-05 7.148000e-03 1.536500e-03 2.904400e-02 1.525000e-04 2.788000e-04 
     51 2 7.368360e-06  1010 7.019050e-06 1.455150e-05 4.189510e-05 1.691600e-02 2.280500e-03 3.131600e-02 1.960000e-05 1.982000e-04 
     52 3 9.778820e-06  1010 1.234260e-05 1.718540e-05 9.374080e-05 3.768000e-03 5.080000e-04 2.775200e-02 4.352000e-04 1.950000e-04 
     53 3 6.007480e-06  1010 1.333140e-05 1.451300e-05 1.281050e-05 2.394000e-02 4.977000e-03 3.920000e-04 8.323000e-04 3.268000e-04 
     54 1 9.457630e-06  1010 1.805570e-05 1.498030e-05 4.571800e-05 1.883600e-02 1.660500e-03 3.372800e-02 6.174000e-04 8.804000e-04 
     55 1 6.484280e-06  1010 2.961400e-05 1.318400e-05 2.349500e-05 2.784000e-02 1.486500e-03 3.689600e-02 5.201000e-04 4.711000e-04 
     56 2 5.507690e-06  1010 3.241090e-05 1.631380e-05 3.881290e-05 2.799600e-02 3.100000e-04 3.084000e-02 8.639000e-04 4.040000e-04 
     57 4 8.670570e-06  1010 3.867780e-05 1.355700e-05 4.795130e-05 2.554000e-02 1.491000e-03 1.704000e-03 9.770000e-05 1.792000e-04 
     58 2 7.297660e-06  1010 4.558280e-05 1.294560e-05 6.422800e-06 1.344000e-03 2.315000e-04 1.512800e-02 9.081000e-04 9.690000e-04 
     59 3 6.867840e-06  1010 5.494770e-05 1.501880e-05 7.270270e-06 2.752000e-03 2.527000e-03 2.817600e-02 1.080000e-04 4.074000e-04 
     60 1 5.276120e-06  1010 6.188340e-05 1.580220e-05 1.416360e-05 1.278400e-02 3.807500e-03 2.918000e-02 5.170000e-04 8.445000e-04 
     61 4 6.715540e-06  1010 5.941120e-05 1.603490e-05 5.026220e-05 2.123600e-02 3.155500e-03 8.968000e-03 1.431000e-04 6.153000e-04 
     62 2 6.437790e-06  1010 6.860180e-05 1.868900e-05 4.762140e-06 2.618000e-02 4.495000e-04 1.076000e-02 5.594000e-04 3.766000e-04 
     63 3 5.899800e-06  1010 6.540370e-05 1.676060e-05 6.195650e-05 1.630400e-02 4.040000e-04 2.692000e-02 4.500000e-06 8.772000e-04 
     64 3 6.424620e-06  1010 7.987590e-05 1.611430e-05 1.841250e-05 3.280000e-02 3.886500e-03 1.910000e-02 7.667000e-04 7.849000e-04 
     65 4 8.087430e-06  1010 9.188880e-05 1.471290e-05 1.855480e-05 2.873600e-02 4.526000e-03 2.494800e-02 8.487000e-04 4.650000e-04 
     66 4 8.375730e-06  1010 9.464190e-05 1.483420e-05 9.909550e-06 3.874800e-02 2.669000e-03 9.456000e-03 9.169000e-04 8.140000e-04 
     67 3 8.335430e-06  1010 9.488930e-05 1.463090e-05 6.588040e-05 2.125200e-02 5.455000e-04 7.084000e-03 9.870000e-04 8.985000e-04 
     68 1 8.550550e-06  1010 9.381190e-05 1.296730e-05 8.112890e-05 1.300400e-02 4.129000e-03 3.318800e-02 5.051000e-04 4.292000e-04 
     69 1 5.053430e-06  1010 2.615010e-06 1.936290e-05 5.735290e-06 4.224000e-03 1.690500e-03 3.067600e-02 2.714000e-04 3.343000e-04 
     70 2 9.077940e-06  1010 4.541360e-06 2.273080e-05 9.544920e-05 2.444000e-02 1.470000e-03 3.738000e-02 1.007000e-04 5.967000e-04 
     71 4 6.241060e-06  1010 1.167450e-05 1.914770e-05 4.905110e-05 3.115200e-02 3.731500e-03 4.312000e-03 5.078000e-04 9.020000e-04 
     72 2 6.396420e-06  1010 1.131300e-05 2.164930e-05 5.953740e-05 1.693600e-02 5.150000e-05 7.288000e-03 5.856000e-04 7.021000e-04 
     73 4 5.184530e-06  1010 1.350640e-05 2.315870e-05 3.737130e-06 3.632000e-03 2.420000e-04 3.964000e-03 7.629000e-04 3.774000e-04 
     74 1 5.658470e-06  1010 1.545270e-05 2.010040e-05 7.659610e-05 1.065600e-02 3.339500e-03 1.959200e-02 8.290000e-05 7.350000e-04 
     75 4 9.514880e-06  1010 2.024710e-05 2.294830e-05 7.230020e-06 6.144000e-03 3.017500e-03 7.728000e-03 6.616000e-04 9.541000e-04 
     76 2 6.343340e-06  1010 2.150080e-05 2.312290e-05 5.616480e-05 1.124000e-02 2.630500e-03 3.583600e-02 5.170000e-04 5.428000e-04 
     77 1 7.840950e-06  1010 2.111760e-05 2.179850e-05 8.268870e-05 1.760400e-02 3.648500e-03 3.960000e-03 1.710000e-04 5.401000e-04 
     78 2 6.004710e-06  1010 2.653730e-05 2.145260e-05 6.903140e-05 2.108400e-02 3.536500e-03 1.764000e-03 9.386000e-04 3.111000e-04 
     79 3 8.304370e-06  1010 2.524370e-05 1.964510e-05 9.548690e-05 1.829600e-02 3.907000e-03 2.229200e-02 5.905000e-04 7.120000e-05 
     80 2 7.088090e-06  1010 3.350090e-05 2.124930e-05 2.716420e-05 3.501600e-02 1.440000e-03 3.090000e-02 4.406000e-04 1.819000e-04 
     81 2 5.114470e-06  1010 4.215350e-05 2.449750e-05 5.638880e-06 2.072400e-02 3.463000e-03 1.247600e-02 9.420000e-04 9.290000e-05 
     82 4 5.190290e-06  1010 4.850520e-05 2.000590e-05 8.321450e-06 3.774800e-02 2.783500e-03 7.160000e-03 6.559000e-04 4.635000e-04 
     83 3 6.647030e-06  1010 6.187470e-05 2.352940e-05 1.607650e-05 2.550800e-02 1.982500e-03 1.355600e-02 4.519000e-04 9.300000e-06 
     84 3 7.745570e-06  1010 5.855280e-05 2.212370e-05 2.342740e-05 3.830800e-02 3.075000e-04 8.404000e-03 8.397000e-04 9.151000e-04 
     85 4 9.417080e-06  1010 6.784520e-05 2.408240e-05 2.438980e-05 9.628000e-03 3.901000e-03 2.040800e-02 5.326000e-04 6.428000e-04 
     86 2 7.111790e-06  1010 6.670610e-05 2.271760e-05 3.944670e-05 2.704400e-02 1.688000e-03 3.625600e-02 5.539000e-04 1.400000e-06 
     87 4 5.244920e-06  1010 6.647880e-05 2.375690e-05 5.748040e-05 1.156000e-02 3.039500e-03 2.515600e-02 6.801000e-04 3.030000e-05 
     88 4 6.671850e-06  1010 7.909700e-05 2.033420e-05 4.044270e-06 2.687200e-02 3.706500e-03 4.060000e-03 3.672000e-04 2.084000e-04 
     89 2 9.124510e-06  1010 7.692690e-05 2.088020e-05 2.982600e-05 2.780800e-02 5.240000e-04 1.563200e-02 2.393000e-04 4.550000e-04 
     90 3 5.123400e-06  1010 7.858370e-05 2.041250e-05 7.372340e-05 2.716000e-03 6.395000e-04 2.184000e-03 5.789000e-04 1.272000e-04 
     91 1 5.535590e-06  1010 8.656870e-05 2.104670e-05 7.244920e-05 1.019200e-02 2.747500e-03 2.005200e-02 8.669000e-04 8.600000e-06 
     92 1 7.144670e-06  1010 8.816500e-05 2.082250e-05 2.537060e-05 8.960000e-03 2.426000e-03 1.726800e-02 4.068000e-04 7.271000e-04 
     93 3 9.750180e-06  1010 9.499590e-05 2.466330e-05 9.363200e-05 2.671200e-02 4.452500e-03 3.990400e-02 1.126000e-04 3.541000e-04 
     94 4 8.266760e-06  1010 6.181410e-06 2.984950e-05 4.143920e-06 3.377600e-02 3.995000e-03 3.246400e-02 4.438000e-04 7.805000e-04 
     95 4 9.732310e-06  1010 5.434340e-06 2.843750e-05 2.428430e-05 1.377600e-02 3.672000e-03 1.942800e-02 3.002000e-04 4.367000e-04 
     96 1 7.143800e-06  1010 4.018140e-06 3.104130e-05 9.099480e-05 3.122000e-02 2.565000e-04 3.578000e-02 4.014000e-04 4.365000e-04 
     97 3 8.673010e-06  1010 8.722990e-06 3.058410e-05 4.306860e-05 2.701200e-02 3.640000e-04 5.500000e-03 8.334000e-04 4.920000e-05 
     98 2 6.462590e-06  1010 1.869030e-05 3.082860e-05 9.300380e-06 2.680000e-04 4.425000e-04 1.560000e-02 4.036000e-04 4.960000e-05 
     99 1 7.082580e-06  1010 1.560850e-05 2.965730e-05 6.145780e-05 2.408800e-02 3.992000e-03 3.709600e-02 3.902000e-04 9.110000e-05 
     100 2 8.102000e-06  1010 2.785720e-05 2.698000e-05 5.075470e-06 1.547200e-02 4.715500e-03 3.670000e-02 3.604000e-04 5.940000e-04 
     101 1 8.651810e-06  1010 3.282800e-05 2.636730e-05 7.270920e-05 3.664000e-02 3.418500e-03 2.854400e-02 1.402000e-04 2.411000e-04 
     102 4 6.908060e-06  1010 3.281220e-05 2.532470e-05 8.922910e-05 4.400000e-05 6.600000e-04 2.473200e-02 2.601000e-04 8.414000e-04 
     103 2 7.727550e-06  1010 4.722830e-05 2.616440e-05 1.290760e-05 1.849600e-02 3.613500e-03 1.373200e-02 8.680000e-05 8.572000e-04 
     104 3 8.022440e-06  1010 5.320010e-05 2.550990e-05 3.346360e-05 1.697200e-02 5.515000e-04 3.744400e-02 4.294000e-04 9.637000e-04 
     105 1 6.451270e-06  1010 5.048560e-05 3.047080e-05 8.584390e-05 1.843600e-02 5.875000e-04 4.988000e-03 2.573000e-04 4.889000e-04 
     106 3 5.498400e-06  1010 5.429290e-05 3.100230e-05 9.546150e-05 3.080800e-02 3.203500e-03 2.922400e-02 2.975000e-04 2.203000e-04 
     107 2 7.504110e-06  1010 6.101370e-05 2.966200e-05 3.375440e-05 1.290000e-02 1.644000e-03 2.586000e-02 4.249000e-04 2.262000e-04 
     108 3 7.409440e-06  1010 5.782610e-05 2.534520e-05 6.451410e-05 3.139200e-02 3.269000e-03 3.332800e-02 1.192000e-04 5.368000e-04 
     109 3 9.948090e-06  1010 6.939690e-05 2.524000e-05 1.048560e-05 1.885600e-02 3.746000e-03 1.593200e-02 4.951000e-04 7.621000e-04 
     110 3 8.032220e-06  1010 6.930130e-05 2.945870e-05 6.646890e-05 1.428000e-03 2.916000e-03 2.999200e-02 7.064000e-04 3.476000e-04 
     111 2 5.754750e-06  1010 8.103720e-05 2.500400e-05 1.354030e-05 7.032000e-03 3.700500e-03 3.341200e-02 2.435000e-04 4.612000e-04 
     112 1 9.544990e-06  1010 7.694480e-05 2.995930e-05 5.136060e-05 2.887200e-02 1.174000e-03 1.289600e-02 7.851000e-04 6.393000e-04 
     113 1 6.929160e-06  1010 8.611750e-05 2.694380e-05 4.167780e-06 1.894000e-02 3.675000e-03 2.209200e-02 7.400000e-05 9.174000e-04 
     114 4 8.302770e-06  1010 8.428370e-05 2.556790e-05 3.683750e-05 6.108000e-03 4.853000e-03 3.916800e-02 3.939000e-04 1.615000e-04 
     115 1 6.099490e-06  1010 9.241200e-05 2.595330e-05 6.875500e-05 1.364400e-02 4.335000e-03 2.197200e-02 3.300000e-06 7.157000e-04 
     116 4 6.290370e-06  1010 9.497000e-05 2.728360e-05 2.291150e-05 2.429600e-02 4.310000e-04 1.321600e-02 2.206000e-04 5.777000e-04 
     117 3 5.546860e-06  1010 9.502220e-05 2.544270e-05 4.644810e-05 7.668000e-03 1.832000e-03 2.478000e-02 1.300000e-06 4.333000e-04 
     118 4 7.803610e-06  1010 4.514290e-06 3.165240e-05 1.299100e-05 2.954000e-02 1.846000e-03 1.442400e-02 1.891000e-04 8.843000e-04 
     119 1 5.878110e-06  1010 4.100640e-06 3.477980e-05 1.939650e-05 9.712000e-03 3.425000e-03 3.026000e-02 1.424000e-04 3.930000e-04 
     120 2 5.586050e-06  1010 2.847890e-06 3.556580e-05 4.614490e-05 3.670000e-02 2.990000e-03 1.655600e-02 2.681000e-04 1.789000e-04 
     121 1 5.553490e-06  1010 3.509300e-06 3.526920e-05 6.999380e-05 1.076000e-02 3.947000e-03 1.969200e-02 1.749000e-04 6.333000e-04 
     122 4 9.284410e-06  1010 4.659490e-06 3.150460e-05 8.153450e-05 3.062000e-02 1.838000e-03 2.779200e-02 1.386000e-04 6.240000e-04 
     123 1 5.024620e-06  1010 8.562350e-06 3.565570e-05 9.292090e-05 7.544000e-03 1.030000e-03 3.891200e-02 5.989000e-04 3.279000e-04 
     124 4 9.600490e-06  1010 1.418940e-05 3.673410e-05 2.083220e-05 1.150000e-02 4.330000e-04 1.310800e-02 9.011000e-04 8.030000e-04 
     125 4 5.396530e-06  1010 2.371710e-05 3.589360e-05 3.553540e-05 3.644000e-03 3.860000e-03 3.351200e-02 9.394000e-04 9.995000e-04 
     126 4 8.812590e-06  1010 2.670430e-05 3.479290e-05 1.387400e-05 2.304800e-02 1.028000e-03 2.956400e-02 2.212000e-04 9.810000e-04 
     127 1 5.396830e-06  1010 2.664710e-05 3.659690e-05 6.673750e-05 2.733600e-02 1.941500e-03 3.816800e-02 4.827000e-04 1.270000e-04 
     128 2 5.181370e-06  1010 3.495480e-05 3.543300e-05 3.945910e-05 2.186400e-02 2.759000e-03 1.276000e-03 3.760000e-04 2.322000e-04 
     129 2 9.682300e-06  1010 3.127030e-05 3.502770e-05 7.609680e-05 1.702800e-02 1.144500e-03 1.427600e-02 5.238000e-04 2.360000e-05 
     130 4 7.638910e-06  1010 4.231090e-05 3.526760e-05 4.082610e-05 2.578000e-02 3.210000e-03 2.650800e-02 2.648000e-04 6.074000e-04 
     131 2 5.997560e-06  1010 4.391670e-05 3.518070e-05 1.512880e-05 2.590400e-02 2.422500e-03 1.126000e-02 6.830000e-05 1.108000e-04 
     132 4 9.357250e-06  1010 5.491750e-05 3.448290e-05 3.731670e-05 2.716000e-02 7.590000e-04 9.216000e-03 4.363000e-04 4.075000e-04 
     133 1 7.830810e-06  1010 5.800280e-05 3.169240e-05 4.648310e-06 2.543200e-02 3.910000e-03 2.844400e-02 1.738000e-04 8.841000e-04 
     134 2 5.762940e-06  1010 6.025770e-05 3.539330e-05 5.630440e-05 3.780800e-02 5.030000e-04 2.498400e-02 2.610000e-05 5.481000e-04 
     135 1 6.916590e-06  1010 7.093840e-05 3.309560e-05 3.480790e-06 8.356000e-03 1.470000e-03 2.362400e-02 9.547000e-04 3.690000e-04 
     136 1 7.532900e-06  1010 8.031190e-05 3.370010e-05 1.775190e-05 2.837200e-02 1.186500e-03 2.642000e-02 4.306000e-04 2.083000e-04 
     137 4 9.702090e-06  1010 8.240810e-05 3.289650e-05 8.759750e-06 9.448000e-03 2.654500e-03 1.900000e-03 9.616000e-04 4.409000e-04 
     138 3 5.134250e-06  1010 8.350810e-05 3.142290e-05 5.514310e-05 4.776000e-03 4.575000e-04 1.395200e-02 7.624000e-04 9.562000e-04 
     139 3 9.213050e-06  1010 9.465030e-05 3.597850e-05 5.025310e-05 2.429200e-02 2.026500e-03 1.805200e-02 7.300000e-06 1.240000e-04 
     140 1 7.897430e-06  1010 4.446970e-06 4.264620e-05 2.338600e-05 1.800400e-02 5.240000e-04 9.636000e-03 6.801000e-04 4.708000e-04 
     141 4 6.545130e-06  1010 7.572140e-06 4.370980e-05 5.146100e-06 1.834800e-02 5.610000e-04 2.860400e-02 7.060000e-04 8.569000e-04 
     142 3 7.190140e-06  1010 7.929630e-06 3.955450e-05 1.469760e-05 2.648000e-02 3.922500e-03 3.424800e-02 6.451000e-04 4.330000e-05 
     143 2 7.320000e-06  1010 1.490780e-05 4.221650e-05 3.143720e-05 3.081200e-02 1.457500e-03 1.126000e-02 5.523000e-04 6.916000e-04 
     144 3 8.512210e-06  1010 1.673250e-05 4.266200e-05 7.643940e-05 1.400800e-02 3.017500e-03 2.924400e-02 2.181000e-04 9.790000e-04 
     145 2 6.631970e-06  1010 2.199300e-05 4.199760e-05 4.244070e-06 2.648000e-02 4.822500e-03 5.508000e-03 7.724000e-04 2.832000e-04 
     146 1 6.878270e-06  1010 2.010380e-05 4.290960e-05 4.091320e-05 1.664800e-02 2.162500e-03 3.347200e-02 2.280000e-04 1.337000e-04 
     147 1 5.396870e-06  1010 1.985050e-05 4.191470e-05 5.401230e-05 3.368000e-02 3.474000e-03 5.544000e-03 3.709000e-04 6.853000e-04 
     148 1 7.214590e-06  1010 1.912380e-05 4.365820e-05 9.285350e-05 3.332000e-02 3.790500e-03 2.352800e-02 8.910000e-04 9.095000e-04 
     149 1 5.095430e-06  1010 2.825850e-05 4.025340e-05 3.165560e-06 1.025600e-02 2.163000e-03 1.464400e-02 8.564000e-04 6.109000e-04 
     150 1 8.831800e-06  1010 3.002440e-05 3.946520e-05 9.532300e-05 2.454000e-02 3.277500e-03 3.227200e-02 4.024000e-04 9.000000e-04 
     151 2 9.913570e-06  1010 4.375160e-05 3.966910e-05 9.427820e-05 2.329200e-02 5.485000e-04 2.015200e-02 3.180000e-04 1.934000e-04 
     152 1 7.651920e-06  1010 5.479590e-05 4.281340e-05 3.452770e-05 2.162800e-02 4.669000e-03 1.958400e-02 6.086000e-04 7.545000e-04 
     153 4 8.628590e-06  1010 6.035640e-05 4.240070e-05 1.145380e-05 3.480000e-02 9.370000e-04 3.508400e-02 9.102000e-04 3.462000e-04 
     154 4 9.774700e-06  1010 6.484030e-05 4.284440e-05 3.892260e-05 1.059200e-02 1.331000e-03 1.412400e-02 9.091000e-04 4.186000e-04 
     155 2 9.941170e-06  1010 6.879770e-05 3.984150e-05 8.120000e-06 1.272400e-02 3.989500e-03 1.797600e-02 5.916000e-04 1.557000e-04 
     156 2 7.448790e-06  1010 7.310430e-05 3.755070e-05 1.641030e-05 4.768000e-03 2.438000e-03 3.854400e-02 3.326000e-04 8.190000e-04 
     157 2 7.426950e-06  1010 6.999400e-05 3.901110e-05 9.381310e-05 3.759600e-02 3.845000e-03 1.692000e-03 8.531000e-04 6.249000e-04 
     158 4 8.429450e-06  1010 8.585960e-05 4.218450e-05 2.281070e-05 2.582400e-02 1.980000e-03 3.892000e-02 4.424000e-04 7.386000e-04 
     159 2 9.052370e-06  1010 8.533410e-05 3.913500e-05 9.005050e-05 1.918000e-02 1.364500e-03 7.568000e-03 9.044000e-04 8.051000e-04 
     160 1 5.117730e-06  1010 9.198090e-05 3.820280e-05 2.533030e-05 2.557200e-02 1.860000e-04 2.668400e-02 3.310000e-05 6.720000e-05 
     161 4 9.222310e-06  1010 9.150980e-05 4.198720e-05 7.594990e-05 2.178800e-02 3.366500e-03 2.345600e-02 5.324000e-04 9.508000e-04 
     162 2 6.734900e-06  1010 9.614610e-05 4.020210e-05 6.815840e-05 2.589200e-02 2.148000e-03 2.700400e-02 7.165000e-04 4.976000e-04 
     163 1 7.311070e-06  1010 9.443700e-05 3.978000e-05 9.453090e-05 2.175600e-02 2.258500e-03 1.444000e-02 1.793000e-04 7.552000e-04 
     164 2 6.995690e-06  1010 5.500140e-06 4.882840e-05 3.415590e-05 2.884400e-02 3.049500e-03 2.481200e-02 3.365000e-04 7.424000e-04 
     165 1 9.425980e-06  1010 4.788740e-06 4.545850e-05 8.238220e-05 2.090000e-02 2.970000e-04 3.244800e-02 1.877000e-04 8.312000e-04 
     166 1 8.999570e-06  1010 5.722680e-06 4.664320e-05 9.351640e-05 3.975200e-02 1.579000e-03 7.680000e-04 3.219000e-04 1.565000e-04 
     167 4 7.381420e-06  1010 9.737260e-06 4.990470e-05 4.316410e-05 8.744000e-03 3.863500e-03 3.352000e-03 4.038000e-04 4.573000e-04 
     168 4 6.551180e-06  1010 1.410200e-05 4.885340e-05 5.550080e-05 4.232000e-03 3.482500e-03 3.899200e-02 5.486000e-04 6.181000e-04 
     169 3 9.975790e-06  1010 1.276870e-05 4.743560e-05 6.795560e-05 4.388000e-03 6.265000e-04 2.605600e-02 4.870000e-05 9.322000e-04 
     170 1 5.772320e-06  1010 2.112420e-05 4.520680e-05 1.793160e-05 2.540000e-03 6.505000e-04 9.248000e-03 5.527000e-04 8.351000e-04 
     171 1 6.361410e-06  1010 2.435160e-05 4.859640e-05 9.356160e-05 1.618400e-02 4.615000e-04 1.614000e-02 2.748000e-04 8.955000e-04 
     172 2 9.244110e-06  1010 2.615670e-05 4.633420e-05 1.182180e-05 1.793600e-02 3.900000e-05 4.880000e-03 2.415000e-04 5.825000e-04 
     173 4 9.744880e-06  1010 2.551030e-05 4.648190e-05 3.472110e-05 1.463200e-02 2.115500e-03 1.073600e-02 2.431000e-04 5.828000e-04 
     174 1 7.389160e-06  1010 3.246090e-05 4.433440e-05 5.417630e-06 3.054000e-02 3.278000e-03 1.031200e-02 1.541000e-04 8.550000e-04 
     175 1 7.497380e-06  1010 4.248620e-05 4.692590e-05 4.494650e-05 2.511600e-02 3.614500e-03 1.326400e-02 9.565000e-04 3.480000e-05 
     176 1 8.686510e-06  1010 5.523110e-05 4.703380e-05 4.709110e-06 3.088000e-02 2.656000e-03 6.088000e-03 9.357000e-04 8.855000e-04 
     177 3 8.946350e-06  1010 6.355610e-05 4.749250e-05 8.261770e-05 3.731600e-02 5.440000e-04 1.392000e-02 8.187000e-04 4.077000e-04 
     178 3 6.469570e-06  1010 7.507650e-05 4.399230e-05 3.474400e-05 3.891200e-02 3.159000e-03 4.864000e-03 7.283000e-04 3.630000e-05 
     179 3 6.357920e-06  1010 7.698140e-05 4.384510e-05 4.626620e-05 7.680000e-03 6.325000e-04 3.536800e-02 1.758000e-04 7.462000e-04 
     180 2 5.434400e-06  1010 8.594660e-05 4.994850e-05 2.201550e-05 5.552000e-03 6.715000e-04 3.768000e-03 3.604000e-04 1.548000e-04 
     181 3 7.315300e-06  1010 8.394280e-05 4.799960e-05 2.859340e-05 2.785200e-02 4.930000e-04 3.720400e-02 1.888000e-04 1.439000e-04 
     182 2 7.133330e-06  1010 8.482420e-05 4.507910e-05 5.751960e-05 3.752000e-03 7.100000e-04 1.596000e-02 1.100000e-06 6.060000e-04 
     183 3 9.163150e-06  1010 9.068750e-05 4.531580e-05 3.827770e-05 2.101600e-02 8.410000e-04 1.896000e-03 3.164000e-04 2.545000e-04 
     184 1 8.215690e-06  1010 9.547220e-05 4.665580e-05 2.861270e-05 2.121200e-02 9.810000e-04 1.369600e-02 6.996000e-04 3.241000e-04 
     185 3 5.196850e-06  1010 9.563020e-05 4.610530e-05 5.412510e-05 3.444800e-02 1.587500e-03 2.944000e-02 6.253000e-04 4.018000e-04 
     186 1 6.052820e-06  1010 9.643710e-05 4.924690e-05 8.825390e-05 1.939600e-02 1.582000e-03 3.178800e-02 5.431000e-04 4.064000e-04 
     187 2 7.475330e-06  1010 4.196570e-06 5.519300e-05 5.020110e-06 1.573600e-02 1.087500e-03 2.179600e-02 4.390000e-04 3.862000e-04 
     188 3 9.474330e-06  1010 5.109520e-06 5.392560e-05 5.746470e-05 2.685600e-02 1.255000e-03 2.744800e-02 2.874000e-04 6.098000e-04 
     189 4 6.563930e-06  1010 1.429690e-05 5.282470e-05 1.272830e-05 2.965200e-02 4.465000e-03 3.574800e-02 5.017000e-04 1.669000e-04 
     190 1 8.333690e-06  1010 2.217080e-05 5.491290e-05 3.160880e-05 2.080400e-02 3.516000e-03 2.188000e-03 7.616000e-04 1.881000e-04 
     191 4 6.369880e-06  1010 2.287870e-05 5.086450e-05 6.337920e-05 1.390800e-02 2.778500e-03 1.214400e-02 7.624000e-04 9.460000e-05 
     192 4 5.421270e-06  1010 4.269340e-05 5.106660e-05 9.615590e-05 6.000000e-03 9.220000e-04 1.844000e-03 5.761000e-04 3.232000e-04 
     193 2 7.826950e-06  1010 6.495180e-05 5.402130e-05 1.297290e-05 2.344400e-02 1.060000e-03 7.816000e-03 7.477000e-04 7.696000e-04 
     194 2 7.444380e-06  1010 6.456570e-05 5.362560e-05 3.377920e-05 1.048400e-02 3.865000e-04 2.880800e-02 6.455000e-04 2.341000e-04 
     195 2 7.162750e-06  1010 9.274500e-05 5.191500e-05 1.458900e-05 1.776000e-03 4.569000e-03 2.887200e-02 1.232000e-04 7.404000e-04 
     196 2 9.618110e-06  1010 5.145560e-06 5.830670e-05 1.328760e-05 3.020000e-02 3.533500e-03 3.511200e-02 5.044000e-04 6.928000e-04 
     197 3 7.254350e-06  1010 1.093010e-05 6.068300e-05 5.848750e-05 9.712000e-03 2.789000e-03 2.329600e-02 3.472000e-04 8.241000e-04 
     198 3 6.504180e-06  1010 1.472810e-05 5.920180e-05 8.922330e-06 1.769600e-02 1.567000e-03 2.824000e-03 9.210000e-05 8.280000e-04 
     199 4 8.141930e-06  1010 1.795210e-05 5.722980e-05 5.966030e-05 2.751200e-02 8.310000e-04 3.691200e-02 1.478000e-04 2.933000e-04 
     200 4 5.619510e-06  1010 2.482550e-05 6.195590e-05 1.454240e-05 1.436800e-02 3.112500e-03 3.201600e-02 1.981000e-04 3.094000e-04 
     201 3 5.412220e-06  1010 2.062360e-05 5.632070e-05 5.084780e-05 2.945600e-02 4.940000e-03 1.143600e-02 6.723000e-04 5.230000e-04 
     202 2 7.941410e-06  1010 2.195980e-05 6.056010e-05 8.365440e-05 1.578800e-02 8.520000e-04 2.174800e-02 4.315000e-04 3.253000e-04 
     203 4 8.420170e-06  1010 1.980100e-05 6.045230e-05 9.550640e-05 2.733600e-02 1.289000e-03 3.939200e-02 6.944000e-04 8.319000e-04 
     204 3 9.016720e-06  1010 2.659170e-05 5.840800e-05 5.884350e-05 2.816400e-02 1.984000e-03 2.862800e-02 2.568000e-04 8.103000e-04 
     205 2 5.569670e-06  1010 3.684120e-05 5.878010e-05 2.297100e-05 1.769200e-02 3.700000e-04 3.356000e-02 9.700000e-06 5.570000e-04 
     206 4 8.179070e-06  1010 4.104420e-05 6.171390e-05 2.925050e-05 7.800000e-04 3.420500e-03 1.733200e-02 5.323000e-04 2.629000e-04 
     207 4 7.458210e-06  1010 3.988370e-05 6.106530e-05 8.003830e-05 1.323200e-02 2.012000e-03 1.882400e-02 2.794000e-04 6.806000e-04 
     208 3 7.113790e-06  1010 4.884220e-05 5.634040e-05 6.673620e-06 1.697200e-02 4.914500e-03 2.242800e-02 9.463000e-04 2.336000e-04 
     209 3 6.639170e-06  1010 4.378210e-05 6.059210e-05 6.822050e-05 1.080800e-02 2.011000e-03 1.076400e-02 9.065000e-04 4.564000e-04 
     210 3 9.785210e-06  1010 5.179480e-05 6.122890e-05 1.944250e-05 7.880000e-03 3.103500e-03 2.996000e-02 3.927000e-04 3.846000e-04 
     211 1 6.014980e-06  1010 5.726830e-05 5.635210e-05 1.011270e-05 3.287200e-02 7.715000e-04 2.015600e-02 2.480000e-05 5.386000e-04 
     212 2 9.299970e-06  1010 6.069960e-05 5.936170e-05 9.488570e-05 1.719600e-02 1.906500e-03 2.587200e-02 6.715000e-04 9.918000e-04 
     213 2 8.051920e-06  1010 7.343740e-05 6.114620e-05 1.695630e-05 3.551200e-02 8.055000e-04 1.230800e-02 8.372000e-04 7.552000e-04 
     214 1 7.134060e-06  1010 8.747690e-05 6.005800e-05 6.282390e-05 1.564800e-02 3.790500e-03 5.548000e-03 9.715000e-04 9.805000e-04 
     215 4 9.887030e-06  1010 8.852370e-05 6.132220e-05 1.253640e-05 3.076400e-02 4.355500e-03 1.902400e-02 5.690000e-05 2.348000e-04 
     216 1 7.007850e-06  1010 8.910600e-05 5.931970e-05 4.586180e-05 1.587200e-02 1.754000e-03 1.449600e-02 4.503000e-04 5.286000e-04 
     217 1 7.852430e-06  1010 9.565720e-05 5.853810e-05 4.388900e-06 3.234000e-02 3.428000e-03 3.152400e-02 5.825000e-04 5.140000e-05 
     218 1 9.336600e-06  1010 9.404300e-05 5.663120e-05 7.330240e-05 3.020400e-02 1.470500e-03 3.121200e-02 6.867000e-04 7.569000e-04 
     219 1 6.227420e-06  1010 9.407510e-05 5.862440e-05 9.587310e-05 1.509600e-02 2.653000e-03 2.674000e-02 7.195000e-04 6.020000e-04 
     220 2 9.011100e-06  1010 4.673110e-06 6.313360e-05 3.880580e-05 8.640000e-03 4.162500e-03 5.340000e-03 6.501000e-04 8.572000e-04 
     221 2 6.602860e-06  1010 3.999000e-06 6.685210e-05 5.046720e-05 3.161600e-02 2.987500e-03 8.600000e-04 7.269000e-04 9.883000e-04 