  Granular Flow Simulation 

       350  atoms 
          4  atom types 

   0  10  xlo xhi 
   0  10  ylo yhi 
   0  10  zlo zhi 

 Atoms

     1 3 7.405490e-01  1100 4.656850e-01 5.615900e-01 4.867300e+00 2.838000e-02 1.787000e-03 3.000400e-02 4.087000e-04 2.216000e-04 
     2 4 5.876670e-01  1100 3.185340e-01 5.825620e-02 7.046820e+00 3.970800e-02 3.505000e-03 1.948800e-02 9.476000e-04 2.039000e-04 
     3 2 9.294660e-01  1100 7.139020e-01 5.743940e-01 2.795840e+00 3.728800e-02 5.460000e-04 1.539200e-02 9.193000e-04 6.241000e-04 
     4 2 9.258100e-01  1100 6.310550e-01 2.380800e-01 6.049150e+00 3.688000e-03 3.300000e-05 2.456000e-03 1.212000e-04 7.252000e-04 
     5 4 9.279230e-01  1100 7.484080e-01 3.129480e-01 7.647710e+00 3.814400e-02 2.986500e-03 8.548000e-03 5.920000e-04 8.344000e-04 
     6 3 5.122800e-01  1100 1.261550e+00 4.558120e-01 5.153360e+00 6.512000e-03 3.296000e-03 2.175600e-02 3.596000e-04 1.880000e-05 
     7 3 7.242930e-01  1100 1.695320e+00 1.511690e-01 9.210550e+00 3.882000e-02 2.900000e-03 1.642400e-02 7.193000e-04 2.021000e-04 
     8 2 5.349940e-01  1100 2.332930e+00 6.840400e-02 3.131470e-01 2.388000e-02 4.550000e-03 3.604000e-02 5.236000e-04 4.691000e-04 
     9 2 9.432280e-01  1100 2.462950e+00 5.065830e-01 9.234250e+00 9.608000e-03 3.180000e-03 2.248000e-03 2.608000e-04 3.784000e-04 
     10 4 7.283300e-01  1100 2.944620e+00 3.235960e-01 7.535640e-01 2.812000e-03 2.628000e-03 1.774000e-02 4.931000e-04 3.404000e-04 
     11 2 7.303260e-01  1100 4.042640e+00 3.775990e-01 9.403470e+00 1.200000e-02 1.298000e-03 2.151200e-02 8.559000e-04 6.380000e-05 
     12 2 6.418280e-01  1100 4.992610e+00 4.419840e-01 2.418250e+00 3.254400e-02 2.555000e-04 5.360000e-03 7.244000e-04 7.614000e-04 
     13 2 7.822950e-01  1100 4.837400e+00 4.485450e-01 7.181300e+00 3.068000e-03 3.660000e-03 2.164000e-02 1.991000e-04 4.027000e-04 
     14 3 6.520330e-01  1100 4.898500e+00 7.932720e-03 7.801800e+00 1.418000e-02 8.215000e-04 3.429600e-02 1.573000e-04 6.743000e-04 
     15 3 5.527080e-01  1100 5.205680e+00 3.747010e-01 1.229810e+00 5.280000e-03 1.402000e-03 7.920000e-03 3.705000e-04 5.511000e-04 
     16 3 5.087030e-01  1100 6.858960e+00 4.463740e-01 7.659600e+00 6.324000e-03 1.297000e-03 6.224000e-03 8.623000e-04 5.140000e-05 
     17 2 9.017190e-01  1100 7.315010e+00 3.022570e-01 4.368840e+00 2.484000e-03 2.735500e-03 2.452000e-03 6.848000e-04 3.075000e-04 
     18 2 7.697600e-01  1100 6.886680e+00 3.286780e-01 5.134780e+00 2.807600e-02 2.706500e-03 2.644400e-02 6.342000e-04 9.655000e-04 
     19 2 7.813590e-01  1100 7.426590e+00 3.840880e-01 9.119680e+00 3.456000e-03 3.940500e-03 7.440000e-04 1.413000e-04 9.315000e-04 
     20 1 7.452530e-01  1100 8.724470e+00 5.483200e-01 1.792930e+00 2.467200e-02 4.348000e-03 1.164400e-02 7.930000e-05 3.780000e-04 
     21 2 5.195110e-01  1100 8.321730e+00 4.212770e-01 2.443720e+00 6.948000e-03 3.938000e-03 3.895600e-02 8.762000e-04 6.177000e-04 
     22 4 9.321810e-01  1100 8.869350e+00 2.054030e-01 6.455500e-01 2.605600e-02 4.847500e-03 3.058800e-02 4.204000e-04 5.625000e-04 
     23 4 7.128280e-01  1100 9.575380e+00 3.076670e-01 2.760760e+00 1.994800e-02 9.020000e-04 9.748000e-03 4.877000e-04 8.306000e-04 
     24 3 7.546430e-01  1100 9.584320e+00 5.224140e-01 8.780730e+00 1.138000e-02 4.653000e-03 2.728400e-02 4.603000e-04 9.577000e-04 
     25 4 7.189630e-01  1100 6.035810e-01 7.809100e-01 1.936120e+00 3.322400e-02 2.255000e-04 5.512000e-03 5.157000e-04 7.550000e-05 
     26 4 5.049410e-01  1100 4.004120e-01 7.780230e-01 3.854440e+00 3.273600e-02 1.203000e-03 2.519200e-02 2.720000e-04 8.881000e-04 
     27 4 8.220360e-01  1100 4.215960e-01 9.038810e-01 8.363860e+00 3.752800e-02 4.400000e-05 3.428400e-02 2.316000e-04 5.625000e-04 
     28 4 6.457630e-01  1100 7.730780e-01 1.116740e+00 1.230060e+00 1.200000e-05 3.358000e-03 3.599200e-02 8.996000e-04 1.943000e-04 
     29 4 5.686340e-01  1100 1.234290e+00 9.463850e-01 1.904580e+00 2.561600e-02 4.524500e-03 1.393600e-02 9.087000e-04 2.214000e-04 
     30 1 8.356220e-01  1100 1.398350e+00 1.056220e+00 5.857970e+00 2.920000e-04 2.862000e-03 1.945200e-02 6.037000e-04 7.058000e-04 
     31 2 9.782220e-01  1100 1.323020e+00 9.164610e-01 8.368070e+00 4.256000e-03 7.770000e-04 2.718000e-02 3.652000e-04 5.968000e-04 
     32 2 7.900140e-01  1100 2.423660e+00 6.494760e-01 2.024010e+00 4.272000e-03 2.512000e-03 2.816400e-02 5.986000e-04 5.863000e-04 
     33 2 6.168690e-01  1100 2.248310e+00 7.838180e-01 6.460170e+00 1.468400e-02 2.838500e-03 1.843600e-02 6.685000e-04 9.685000e-04 
     34 1 8.321030e-01  1100 2.935370e+00 8.727090e-01 3.735340e+00 9.584000e-03 9.410000e-04 1.457200e-02 8.946000e-04 5.818000e-04 
     35 4 9.653440e-01  1100 2.956120e+00 1.226410e+00 5.507430e+00 1.384400e-02 1.621000e-03 1.120800e-02 8.730000e-05 9.980000e-05 
     36 3 8.661370e-01  1100 3.366830e+00 1.039250e+00 1.461260e+00 9.984000e-03 3.580500e-03 3.048000e-03 5.390000e-04 1.666000e-04 
     37 1 8.445960e-01  1100 3.160260e+00 1.183010e+00 7.491230e+00 1.548400e-02 2.764500e-03 1.778400e-02 4.284000e-04 1.021000e-04 
     38 1 8.032630e-01  1100 4.307410e+00 6.472420e-01 1.337690e+00 1.684000e-02 7.110000e-04 6.628000e-03 6.172000e-04 1.462000e-04 
     39 3 6.453690e-01  1100 4.908200e+00 7.568230e-01 3.183090e+00 2.560400e-02 1.902000e-03 1.594800e-02 5.589000e-04 6.716000e-04 
     40 2 6.544200e-01  1100 5.515870e+00 1.033780e+00 7.632530e+00 3.150400e-02 1.983000e-03 3.682400e-02 2.258000e-04 6.399000e-04 
     41 1 9.396420e-01  1100 5.927030e+00 1.231580e+00 3.570400e+00 1.080000e-02 2.883500e-03 2.045200e-02 1.045000e-04 3.724000e-04 
     42 2 9.694920e-01  1100 6.287430e+00 8.551590e-01 5.195210e-01 3.376000e-02 9.700000e-05 3.656800e-02 9.900000e-06 1.628000e-04 
     43 1 5.261130e-01  1100 6.343890e+00 1.047710e+00 8.382010e+00 2.962000e-02 2.888000e-03 3.676000e-03 5.910000e-05 3.895000e-04 
     44 4 9.387170e-01  1100 6.733280e+00 1.206820e+00 9.227100e+00 3.304400e-02 4.661000e-03 3.972400e-02 3.226000e-04 8.000000e-04 
     45 4 7.362270e-01  1100 8.490500e+00 1.045090e+00 9.029460e+00 7.288000e-03 5.340000e-04 3.856000e-03 7.795000e-04 3.998000e-04 
     46 1 9.963440e-01  1100 9.389740e+00 1.074750e+00 9.499370e+00 2.616000e-03 3.661000e-03 1.252400e-02 3.355000e-04 7.551000e-04 
     47 3 5.783160e-01  1100 3.138140e-01 1.596790e+00 1.900970e+00 2.441600e-02 4.853000e-03 3.141600e-02 6.196000e-04 2.952000e-04 
     48 3 7.424200e-01  1100 4.077490e-01 1.253120e+00 5.136700e+00 2.806400e-02 3.044500e-03 2.409600e-02 9.929000e-04 6.400000e-04 
     49 2 9.770340e-01  1100 5.078230e-01 1.463860e+00 7.067520e+00 4.464000e-03 3.598500e-03 1.863600e-02 6.480000e-04 8.852000e-04 
     50 4 9.826230e-01  1100 6.567040e-01 1.601130e+00 2.774720e+00 3.832000e-03 1.513500e-03 1.192400e-02 5.398000e-04 2.096000e-04 
     51 2 7.368360e-01  1100 7.019050e-01 1.455150e+00 4.189510e+00 2.391200e-02 2.295000e-03 5.324000e-03 2.322000e-04 4.804000e-04 
     52 1 9.778820e-01  1100 1.234260e+00 1.718540e+00 9.374080e+00 3.249200e-02 2.400000e-04 1.180000e-02 7.399000e-04 1.129000e-04 
     53 1 6.007480e-01  1100 1.333140e+00 1.451300e+00 1.281050e+00 3.258400e-02 1.926500e-03 6.664000e-03 8.890000e-04 1.323000e-04 
     54 4 9.457630e-01  1100 1.805570e+00 1.498030e+00 4.571800e+00 3.576000e-03 1.808500e-03 1.268400e-02 8.598000e-04 6.400000e-05 
     55 3 6.484280e-01  1100 2.961400e+00 1.318400e+00 2.349500e+00 2.925200e-02 1.438000e-03 4.392000e-03 5.971000e-04 7.930000e-05 
     56 4 5.507690e-01  1100 3.241090e+00 1.631380e+00 3.881290e+00 3.615600e-02 4.083500e-03 3.328400e-02 6.548000e-04 6.270000e-04 
     57 3 8.670570e-01  1100 3.867780e+00 1.355700e+00 4.795130e+00 1.808800e-02 2.252500e-03 3.886400e-02 9.151000e-04 4.113000e-04 
     58 4 7.297660e-01  1100 4.558280e+00 1.294560e+00 6.422800e-01 2.824000e-03 4.033500e-03 8.728000e-03 4.332000e-04 6.386000e-04 
     59 1 6.867840e-01  1100 5.494770e+00 1.501880e+00 7.270270e-01 9.652000e-03 3.951000e-03 2.824400e-02 2.897000e-04 8.566000e-04 
     60 2 5.276120e-01  1100 6.188340e+00 1.580220e+00 1.416360e+00 2.927600e-02 1.414500e-03 1.560000e-03 6.319000e-04 7.636000e-04 
     61 1 6.715540e-01  1100 5.941120e+00 1.603490e+00 5.026220e+00 1.616000e-03 3.415000e-04 2.465200e-02 2.954000e-04 9.762000e-04 
     62 2 6.437790e-01  1100 6.860180e+00 1.868900e+00 4.762140e-01 1.698000e-02 2.745000e-04 2.677600e-02 6.220000e-04 7.816000e-04 
     63 4 5.899800e-01  1100 6.540370e+00 1.676060e+00 6.195650e+00 2.160800e-02 3.187500e-03 1.488000e-03 4.750000e-05 9.356000e-04 
     64 2 6.424620e-01  1100 7.987590e+00 1.611430e+00 1.841250e+00 3.815600e-02 2.121500e-03 1.320000e-04 9.947000e-04 7.392000e-04 
     65 3 8.087430e-01  1100 9.188880e+00 1.471290e+00 1.855480e+00 8.356000e-03 4.528000e-03 5.696000e-03 2.067000e-04 2.536000e-04 
     66 1 8.375730e-01  1100 9.464190e+00 1.483420e+00 9.909550e-01 4.652000e-03 2.086500e-03 3.449600e-02 6.074000e-04 7.193000e-04 
     67 1 8.335430e-01  1100 9.488930e+00 1.463090e+00 6.588040e+00 2.584800e-02 7.700000e-04 1.104000e-02 3.476000e-04 6.935000e-04 
     68 4 8.550550e-01  1100 9.381190e+00 1.296730e+00 8.112890e+00 4.336000e-03 2.700000e-03 2.126800e-02 7.178000e-04 7.733000e-04 
     69 1 5.053430e-01  1100 2.615010e-01 1.936290e+00 5.735290e-01 3.934000e-02 4.685500e-03 2.088800e-02 2.790000e-05 7.472000e-04 
     70 4 9.077940e-01  1100 4.541360e-01 2.273080e+00 9.544920e+00 9.932000e-03 3.305000e-03 2.270400e-02 6.680000e-05 3.184000e-04 
     71 2 6.241060e-01  1100 1.167450e+00 1.914770e+00 4.905110e+00 2.425600e-02 1.973000e-03 1.332000e-02 9.271000e-04 5.104000e-04 
     72 3 6.396420e-01  1100 1.131300e+00 2.164930e+00 5.953740e+00 3.266800e-02 1.295000e-03 1.653600e-02 8.770000e-05 7.731000e-04 
     73 1 5.184530e-01  1100 1.350640e+00 2.315870e+00 3.737130e-01 3.320400e-02 4.239500e-03 1.657200e-02 3.324000e-04 5.728000e-04 
     74 3 5.658470e-01  1100 1.545270e+00 2.010040e+00 7.659610e+00 1.956000e-02 4.725500e-03 3.936000e-02 5.262000e-04 9.539000e-04 
     75 2 9.514880e-01  1100 2.024710e+00 2.294830e+00 7.230020e-01 3.043200e-02 1.885000e-03 2.308000e-03 2.466000e-04 1.715000e-04 
     76 4 6.343340e-01  1100 2.150080e+00 2.312290e+00 5.616480e+00 3.660400e-02 3.360000e-04 1.586000e-02 5.429000e-04 9.073000e-04 
     77 2 7.840950e-01  1100 2.111760e+00 2.179850e+00 8.268870e+00 3.604000e-02 9.075000e-04 3.165200e-02 7.809000e-04 7.522000e-04 
     78 2 6.004710e-01  1100 2.653730e+00 2.145260e+00 6.903140e+00 8.568000e-03 2.879000e-03 2.376800e-02 5.219000e-04 2.862000e-04 
     79 1 8.304370e-01  1100 2.524370e+00 1.964510e+00 9.548690e+00 2.188400e-02 9.295000e-04 1.238000e-02 9.320000e-04 6.274000e-04 
     80 4 7.088090e-01  1100 3.350090e+00 2.124930e+00 2.716420e+00 3.138800e-02 1.457000e-03 3.607200e-02 1.471000e-04 4.628000e-04 
     81 2 5.114470e-01  1100 4.215350e+00 2.449750e+00 5.638880e-01 7.776000e-03 2.308500e-03 3.724000e-03 4.168000e-04 1.294000e-04 
     82 1 5.190290e-01  1100 4.850520e+00 2.000590e+00 8.321450e-01 2.987600e-02 1.735000e-03 1.276000e-02 2.803000e-04 5.494000e-04 
     83 3 6.647030e-01  1100 6.187470e+00 2.352940e+00 1.607650e+00 1.902400e-02 1.590500e-03 3.548000e-02 5.981000e-04 9.696000e-04 
     84 3 7.745570e-01  1100 5.855280e+00 2.212370e+00 2.342740e+00 2.333200e-02 2.299500e-03 2.629600e-02 3.640000e-05 4.421000e-04 
     85 2 9.417080e-01  1100 6.784520e+00 2.408240e+00 2.438980e+00 1.042000e-02 1.179500e-03 2.738000e-02 6.360000e-05 5.910000e-04 
     86 4 7.111790e-01  1100 6.670610e+00 2.271760e+00 3.944670e+00 3.392000e-03 1.385000e-04 1.895600e-02 3.229000e-04 1.109000e-04 
     87 4 5.244920e-01  1100 6.647880e+00 2.375690e+00 5.748040e+00 1.192400e-02 3.292500e-03 5.648000e-03 9.830000e-05 1.998000e-04 
     88 2 6.671850e-01  1100 7.909700e+00 2.033420e+00 4.044270e-01 3.668800e-02 7.940000e-04 3.804000e-02 1.700000e-04 1.629000e-04 
     89 3 9.124510e-01  1100 7.692690e+00 2.088020e+00 2.982600e+00 1.882000e-02 4.013500e-03 3.530800e-02 3.712000e-04 3.680000e-05 
     90 2 5.123400e-01  1100 7.858370e+00 2.041250e+00 7.372340e+00 1.077600e-02 2.043000e-03 1.749600e-02 3.970000e-05 2.727000e-04 
     91 1 5.535590e-01  1100 8.656870e+00 2.104670e+00 7.244920e+00 3.052000e-02 1.637000e-03 3.340000e-02 7.093000e-04 2.301000e-04 
     92 3 7.144670e-01  1100 8.816500e+00 2.082250e+00 2.537060e+00 3.088800e-02 3.730000e-03 1.300400e-02 6.414000e-04 3.585000e-04 
     93 4 9.750180e-01  1100 9.499590e+00 2.466330e+00 9.363200e+00 8.520000e-04 3.732000e-03 1.470400e-02 1.740000e-04 1.343000e-04 
     94 1 8.266760e-01  1100 6.181410e-01 2.984950e+00 4.143920e-01 3.520000e-02 8.695000e-04 3.179600e-02 6.210000e-05 9.986000e-04 
     95 4 9.732310e-01  1100 5.434340e-01 2.843750e+00 2.428430e+00 3.192800e-02 5.875000e-04 3.972000e-03 4.067000e-04 5.135000e-04 
     96 3 7.143800e-01  1100 4.018140e-01 3.104130e+00 9.099480e+00 1.296400e-02 8.700000e-04 3.807200e-02 4.631000e-04 3.878000e-04 
     97 2 8.673010e-01  1100 8.722990e-01 3.058410e+00 4.306860e+00 2.676400e-02 3.137000e-03 5.600000e-05 2.026000e-04 2.498000e-04 
     98 1 6.462590e-01  1100 1.869030e+00 3.082860e+00 9.300380e-01 1.185200e-02 4.209500e-03 1.181600e-02 8.696000e-04 3.647000e-04 
     99 1 7.082580e-01  1100 1.560850e+00 2.965730e+00 6.145780e+00 3.720000e-02 2.550500e-03 1.936000e-03 5.980000e-04 3.990000e-04 
     100 2 8.102000e-01  1100 2.785720e+00 2.698000e+00 5.075470e-01 1.127600e-02 8.285000e-04 1.770800e-02 2.300000e-05 9.263000e-04 
     101 3 8.651810e-01  1100 3.282800e+00 2.636730e+00 7.270920e+00 6.752000e-03 3.571500e-03 3.159600e-02 8.995000e-04 4.955000e-04 
     102 2 6.908060e-01  1100 3.281220e+00 2.532470e+00 8.922910e+00 2.980800e-02 4.535500e-03 3.654400e-02 4.529000e-04 6.092000e-04 
     103 4 7.727550e-01  1100 4.722830e+00 2.616440e+00 1.290760e+00 1.908400e-02 1.092500e-03 2.133200e-02 5.800000e-05 4.800000e-06 
     104 4 8.022440e-01  1100 5.320010e+00 2.550990e+00 3.346360e+00 2.614000e-02 4.355000e-03 3.216400e-02 1.062000e-04 5.877000e-04 
     105 3 6.451270e-01  1100 5.048560e+00 3.047080e+00 8.584390e+00 3.866400e-02 1.059000e-03 2.250800e-02 9.985000e-04 7.775000e-04 
     106 2 5.498400e-01  1100 5.429290e+00 3.100230e+00 9.546150e+00 1.252000e-02 4.183500e-03 3.003600e-02 8.664000e-04 6.572000e-04 
     107 3 7.504110e-01  1100 6.101370e+00 2.966200e+00 3.375440e+00 3.056000e-03 4.296500e-03 3.680000e-04 6.152000e-04 5.283000e-04 
     108 3 7.409440e-01  1100 5.782610e+00 2.534520e+00 6.451410e+00 3.165600e-02 2.617000e-03 1.907200e-02 2.690000e-05 8.258000e-04 
     109 1 9.948090e-01  1100 6.939690e+00 2.524000e+00 1.048560e+00 1.461600e-02 2.387000e-03 1.001200e-02 3.225000e-04 9.625000e-04 
     110 2 8.032220e-01  1100 6.930130e+00 2.945870e+00 6.646890e+00 2.340400e-02 4.449500e-03 1.231600e-02 4.638000e-04 3.137000e-04 
     111 2 5.754750e-01  1100 8.103720e+00 2.500400e+00 1.354030e+00 7.332000e-03 3.250000e-04 3.868000e-02 9.900000e-05 7.971000e-04 
     112 3 9.544990e-01  1100 7.694480e+00 2.995930e+00 5.136060e+00 3.076000e-03 2.547500e-03 8.352000e-03 5.710000e-04 2.852000e-04 
     113 4 6.929160e-01  1100 8.611750e+00 2.694380e+00 4.167780e-01 6.144000e-03 3.104000e-03 2.082000e-02 3.259000e-04 1.480000e-05 
     114 2 8.302770e-01  1100 8.428370e+00 2.556790e+00 3.683750e+00 3.307600e-02 3.668000e-03 9.020000e-03 4.505000e-04 9.410000e-05 
     115 1 6.099490e-01  1100 9.241200e+00 2.595330e+00 6.875500e+00 1.203600e-02 1.150000e-03 2.268800e-02 5.779000e-04 3.287000e-04 
     116 4 6.290370e-01  1100 9.497000e+00 2.728360e+00 2.291150e+00 1.535600e-02 1.090000e-04 3.992800e-02 7.480000e-05 3.055000e-04 
     117 4 5.546860e-01  1100 9.502220e+00 2.544270e+00 4.644810e+00 2.603200e-02 6.950000e-04 5.272000e-03 5.730000e-05 1.800000e-05 
     118 2 7.803610e-01  1100 4.514290e-01 3.165240e+00 1.299100e+00 3.269600e-02 3.847500e-03 3.818800e-02 3.009000e-04 1.622000e-04 
     119 2 5.878110e-01  1100 4.100640e-01 3.477980e+00 1.939650e+00 3.065200e-02 4.849000e-03 4.952000e-03 5.217000e-04 4.440000e-04 
     120 4 5.586050e-01  1100 2.847890e-01 3.556580e+00 4.614490e+00 1.496800e-02 1.934000e-03 7.448000e-03 5.619000e-04 7.668000e-04 
     121 3 5.553490e-01  1100 3.509300e-01 3.526920e+00 6.999380e+00 7.592000e-03 4.967500e-03 2.586000e-02 2.415000e-04 6.813000e-04 
     122 3 9.284410e-01  1100 4.659490e-01 3.150460e+00 8.153450e+00 2.586000e-02 1.632000e-03 5.124000e-03 9.128000e-04 7.146000e-04 
     123 3 5.024620e-01  1100 8.562350e-01 3.565570e+00 9.292090e+00 1.440000e-04 6.855000e-04 3.252000e-03 8.258000e-04 4.598000e-04 
     124 1 9.600490e-01  1100 1.418940e+00 3.673410e+00 2.083220e+00 1.131600e-02 1.923500e-03 2.636800e-02 4.445000e-04 9.193000e-04 
     125 4 5.396530e-01  1100 2.371710e+00 3.589360e+00 3.553540e+00 2.554400e-02 2.813000e-03 1.096000e-03 9.821000e-04 9.890000e-04 
     126 4 8.812590e-01  1100 2.670430e+00 3.479290e+00 1.387400e+00 2.368400e-02 3.169000e-03 3.940800e-02 5.783000e-04 9.326000e-04 
     127 1 5.396830e-01  1100 2.664710e+00 3.659690e+00 6.673750e+00 1.301200e-02 2.708000e-03 2.157200e-02 2.344000e-04 4.615000e-04 
     128 4 5.181370e-01  1100 3.495480e+00 3.543300e+00 3.945910e+00 3.956000e-02 1.575000e-03 1.495200e-02 8.106000e-04 9.050000e-04 
     129 4 9.682300e-01  1100 3.127030e+00 3.502770e+00 7.609680e+00 4.928000e-03 7.965000e-04 2.827200e-02 4.513000e-04 3.864000e-04 
     130 1 7.638910e-01  1100 4.231090e+00 3.526760e+00 4.082610e+00 2.943600e-02 7.630000e-04 3.790000e-02 2.499000e-04 6.030000e-04 
     131 3 5.997560e-01  1100 4.391670e+00 3.518070e+00 1.512880e+00 6.264000e-03 6.845000e-04 1.529200e-02 9.555000e-04 5.603000e-04 
     132 3 9.357250e-01  1100 5.491750e+00 3.448290e+00 3.731670e+00 1.738400e-02 3.549000e-03 2.771600e-02 1.426000e-04 8.459000e-04 
     133 2 7.830810e-01  1100 5.800280e+00 3.169240e+00 4.648310e-01 3.329200e-02 2.324500e-03 2.408400e-02 5.126000e-04 2.848000e-04 
     134 3 5.762940e-01  1100 6.025770e+00 3.539330e+00 5.630440e+00 1.439600e-02 5.660000e-04 3.101200e-02 9.720000e-04 6.633000e-04 
     135 4 6.916590e-01  1100 7.093840e+00 3.309560e+00 3.480790e-01 3.048000e-03 3.504500e-03 2.367200e-02 6.483000e-04 6.023000e-04 
     136 3 7.532900e-01  1100 8.031190e+00 3.370010e+00 1.775190e+00 2.227600e-02 9.000000e-04 1.504800e-02 6.147000e-04 6.565000e-04 
     137 3 9.702090e-01  1100 8.240810e+00 3.289650e+00 8.759750e-01 1.095600e-02 4.018500e-03 3.402800e-02 4.696000e-04 3.099000e-04 
     138 2 5.134250e-01  1100 8.350810e+00 3.142290e+00 5.514310e+00 5.280000e-03 2.570000e-03 9.028000e-03 5.778000e-04 3.316000e-04 
     139 4 9.213050e-01  1100 9.465030e+00 3.597850e+00 5.025310e+00 2.798800e-02 2.742000e-03 3.188000e-02 9.114000e-04 1.882000e-04 
     140 2 7.897430e-01  1100 4.446970e-01 4.264620e+00 2.338600e+00 1.943600e-02 1.039000e-03 3.987600e-02 3.762000e-04 1.006000e-04 
     141 3 6.545130e-01  1100 7.572140e-01 4.370980e+00 5.146100e-01 7.308000e-03 3.923000e-03 1.125200e-02 2.287000e-04 2.865000e-04 
     142 4 7.190140e-01  1100 7.929630e-01 3.955450e+00 1.469760e+00 4.048000e-03 2.632500e-03 2.841600e-02 4.235000e-04 3.548000e-04 
     143 2 7.320000e-01  1100 1.490780e+00 4.221650e+00 3.143720e+00 8.064000e-03 2.855000e-03 2.658800e-02 2.736000e-04 5.358000e-04 
     144 2 8.512210e-01  1100 1.673250e+00 4.266200e+00 7.643940e+00 5.388000e-03 2.110000e-03 1.659200e-02 4.446000e-04 9.909000e-04 
     145 3 6.631970e-01  1100 2.199300e+00 4.199760e+00 4.244070e-01 1.295200e-02 3.606000e-03 1.993200e-02 6.275000e-04 2.810000e-05 
     146 2 6.878270e-01  1100 2.010380e+00 4.290960e+00 4.091320e+00 3.802400e-02 3.655000e-04 3.796800e-02 5.346000e-04 7.096000e-04 
     147 1 5.396870e-01  1100 1.985050e+00 4.191470e+00 5.401230e+00 2.128400e-02 2.974500e-03 3.812800e-02 3.854000e-04 9.052000e-04 
     148 3 7.214590e-01  1100 1.912380e+00 4.365820e+00 9.285350e+00 9.908000e-03 4.310000e-03 2.931600e-02 8.735000e-04 8.659000e-04 
     149 1 5.095430e-01  1100 2.825850e+00 4.025340e+00 3.165560e-01 1.749200e-02 2.244000e-03 1.538800e-02 3.003000e-04 1.191000e-04 
     150 2 8.831800e-01  1100 3.002440e+00 3.946520e+00 9.532300e+00 2.676400e-02 3.263000e-03 1.600000e-03 4.000000e-04 9.553000e-04 
     151 1 9.913570e-01  1100 4.375160e+00 3.966910e+00 9.427820e+00 2.190800e-02 1.517500e-03 2.331600e-02 5.177000e-04 4.409000e-04 
     152 4 7.651920e-01  1100 5.479590e+00 4.281340e+00 3.452770e+00 2.436400e-02 3.037500e-03 2.258800e-02 6.180000e-05 8.758000e-04 
     153 3 8.628590e-01  1100 6.035640e+00 4.240070e+00 1.145380e+00 3.452800e-02 1.394500e-03 1.420800e-02 2.313000e-04 8.650000e-04 
     154 4 9.774700e-01  1100 6.484030e+00 4.284440e+00 3.892260e+00 1.522800e-02 3.998000e-03 3.520800e-02 1.184000e-04 3.551000e-04 
     155 2 9.941170e-01  1100 6.879770e+00 3.984150e+00 8.120000e-01 2.996000e-02 3.981000e-03 2.498000e-02 9.870000e-05 6.312000e-04 
     156 4 7.448790e-01  1100 7.310430e+00 3.755070e+00 1.641030e+00 6.268000e-03 4.770500e-03 2.496000e-02 8.903000e-04 8.646000e-04 
     157 2 7.426950e-01  1100 6.999400e+00 3.901110e+00 9.381310e+00 2.324000e-03 2.221500e-03 1.182800e-02 3.330000e-05 2.090000e-05 
     158 4 8.429450e-01  1100 8.585960e+00 4.218450e+00 2.281070e+00 1.358800e-02 2.284500e-03 2.984000e-03 8.391000e-04 7.680000e-05 
     159 4 9.052370e-01  1100 8.533410e+00 3.913500e+00 9.005050e+00 3.268800e-02 2.999000e-03 1.174800e-02 5.073000e-04 3.767000e-04 
     160 2 5.117730e-01  1100 9.198090e+00 3.820280e+00 2.533030e+00 1.510000e-02 4.213500e-03 9.388000e-03 1.137000e-04 1.492000e-04 
     161 3 9.222310e-01  1100 9.150980e+00 4.198720e+00 7.594990e+00 3.890800e-02 1.560000e-04 1.383600e-02 4.904000e-04 3.410000e-05 
     162 3 6.734900e-01  1100 9.614610e+00 4.020210e+00 6.815840e+00 2.421200e-02 9.360000e-04 3.394000e-02 5.995000e-04 7.823000e-04 
     163 4 7.311070e-01  1100 9.443700e+00 3.978000e+00 9.453090e+00 1.352800e-02 4.718000e-03 6.412000e-03 9.020000e-05 3.272000e-04 
     164 1 6.995690e-01  1100 5.500140e-01 4.882840e+00 3.415590e+00 3.712000e-02 4.740000e-03 6.312000e-03 9.783000e-04 8.175000e-04 
     165 1 9.425980e-01  1100 4.788740e-01 4.545850e+00 8.238220e+00 3.594000e-02 2.265000e-03 2.034800e-02 6.530000e-04 1.736000e-04 
     166 4 8.999570e-01  1100 5.722680e-01 4.664320e+00 9.351640e+00 3.402800e-02 4.054500e-03 2.413200e-02 4.611000e-04 6.761000e-04 
     167 1 7.381420e-01  1100 9.737260e-01 4.990470e+00 4.316410e+00 1.027200e-02 4.644500e-03 6.456000e-03 8.638000e-04 8.756000e-04 
     168 1 6.551180e-01  1100 1.410200e+00 4.885340e+00 5.550080e+00 1.142000e-02 3.363500e-03 2.542000e-02 2.628000e-04 7.572000e-04 
     169 3 9.975790e-01  1100 1.276870e+00 4.743560e+00 6.795560e+00 3.120000e-02 1.861500e-03 3.376000e-02 8.240000e-04 2.296000e-04 
     170 2 5.772320e-01  1100 2.112420e+00 4.520680e+00 1.793160e+00 2.805600e-02 2.028500e-03 3.129200e-02 3.290000e-04 3.589000e-04 
     171 4 6.361410e-01  1100 2.435160e+00 4.859640e+00 9.356160e+00 1.970000e-02 2.194000e-03 1.058000e-02 9.413000e-04 3.632000e-04 
     172 4 9.244110e-01  1100 2.615670e+00 4.633420e+00 1.182180e+00 3.870800e-02 3.393500e-03 1.258800e-02 2.441000e-04 2.674000e-04 
     173 4 9.744880e-01  1100 2.551030e+00 4.648190e+00 3.472110e+00 1.904800e-02 2.325500e-03 7.328000e-03 9.572000e-04 3.373000e-04 
     174 2 7.389160e-01  1100 3.246090e+00 4.433440e+00 5.417630e-01 3.980000e-02 4.766500e-03 1.790000e-02 5.108000e-04 8.690000e-05 
     175 4 7.497380e-01  1100 4.248620e+00 4.692590e+00 4.494650e+00 1.962400e-02 1.773500e-03 1.306800e-02 5.646000e-04 4.516000e-04 
     176 1 8.686510e-01  1100 5.523110e+00 4.703380e+00 4.709110e-01 2.014000e-02 1.695000e-03 1.119200e-02 9.938000e-04 4.547000e-04 
     177 3 8.946350e-01  1100 6.355610e+00 4.749250e+00 8.261770e+00 3.075200e-02 4.479500e-03 3.727200e-02 7.710000e-04 2.900000e-05 
     178 3 6.469570e-01  1100 7.507650e+00 4.399230e+00 3.474400e+00 1.552400e-02 2.727000e-03 1.598800e-02 3.138000e-04 6.371000e-04 
     179 1 6.357920e-01  1100 7.698140e+00 4.384510e+00 4.626620e+00 1.813200e-02 3.746500e-03 1.517600e-02 5.780000e-05 5.940000e-05 
     180 3 5.434400e-01  1100 8.594660e+00 4.994850e+00 2.201550e+00 5.312000e-03 6.240000e-04 2.371600e-02 4.400000e-05 1.692000e-04 
     181 4 7.315300e-01  1100 8.394280e+00 4.799960e+00 2.859340e+00 3.034000e-02 2.266000e-03 2.740000e-03 8.130000e-04 6.847000e-04 
     182 2 7.133330e-01  1100 8.482420e+00 4.507910e+00 5.751960e+00 2.260800e-02 3.735000e-04 8.208000e-03 4.121000e-04 5.546000e-04 
     183 1 9.163150e-01  1100 9.068750e+00 4.531580e+00 3.827770e+00 2.594800e-02 3.317000e-03 2.894400e-02 3.842000e-04 6.000000e-06 
     184 4 8.215690e-01  1100 9.547220e+00 4.665580e+00 2.861270e+00 3.192400e-02 3.518500e-03 2.300800e-02 5.231000e-04 2.881000e-04 
     185 2 5.196850e-01  1100 9.563020e+00 4.610530e+00 5.412510e+00 8.816000e-03 4.595000e-03 8.008000e-03 8.922000e-04 3.766000e-04 
     186 1 6.052820e-01  1100 9.643710e+00 4.924690e+00 8.825390e+00 3.431600e-02 3.300500e-03 3.374000e-02 4.059000e-04 1.465000e-04 
     187 1 7.475330e-01  1100 4.196570e-01 5.519300e+00 5.020110e-01 3.619200e-02 3.450500e-03 1.694800e-02 6.044000e-04 7.450000e-05 
     188 3 9.474330e-01  1100 5.109520e-01 5.392560e+00 5.746470e+00 1.168000e-02 4.269000e-03 2.179200e-02 9.480000e-05 4.607000e-04 
     189 3 6.563930e-01  1100 1.429690e+00 5.282470e+00 1.272830e+00 2.903600e-02 2.339500e-03 2.112000e-02 3.360000e-04 3.704000e-04 
     190 2 8.333690e-01  1100 2.217080e+00 5.491290e+00 3.160880e+00 1.357600e-02 2.292500e-03 7.404000e-03 1.448000e-04 8.246000e-04 
     191 3 6.369880e-01  1100 2.287870e+00 5.086450e+00 6.337920e+00 1.090800e-02 4.030500e-03 3.264000e-03 2.449000e-04 5.375000e-04 
     192 3 5.421270e-01  1100 4.269340e+00 5.106660e+00 9.615590e+00 6.808000e-03 4.124000e-03 1.856400e-02 3.790000e-04 8.175000e-04 
     193 2 7.826950e-01  1100 6.495180e+00 5.402130e+00 1.297290e+00 2.656000e-02 9.520000e-04 1.220000e-03 2.703000e-04 4.604000e-04 
     194 2 7.444380e-01  1100 6.456570e+00 5.362560e+00 3.377920e+00 2.143600e-02 1.280000e-04 1.740000e-02 2.156000e-04 1.400000e-05 
     195 2 7.162750e-01  1100 9.274500e+00 5.191500e+00 1.458900e+00 3.316400e-02 2.840000e-04 2.231600e-02 6.337000e-04 4.900000e-06 
     196 4 9.618110e-01  1100 5.145560e-01 5.830670e+00 1.328760e+00 1.069200e-02 7.145000e-04 2.555200e-02 7.997000e-04 1.662000e-04 
     197 1 7.254350e-01  1100 1.093010e+00 6.068300e+00 5.848750e+00 7.044000e-03 8.570000e-04 1.368000e-03 2.085000e-04 3.659000e-04 
     198 4 6.504180e-01  1100 1.472810e+00 5.920180e+00 8.922330e-01 1.724800e-02 3.129500e-03 2.839600e-02 8.963000e-04 7.182000e-04 
     199 2 8.141930e-01  1100 1.795210e+00 5.722980e+00 5.966030e+00 1.902800e-02 1.475000e-04 6.772000e-03 7.457000e-04 1.594000e-04 
     200 2 5.619510e-01  1100 2.482550e+00 6.195590e+00 1.454240e+00 3.140800e-02 2.361500e-03 2.373600e-02 5.364000e-04 2.787000e-04 
     201 4 5.412220e-01  1100 2.062360e+00 5.632070e+00 5.084780e+00 5.224000e-03 3.392500e-03 2.432400e-02 9.700000e-04 6.450000e-04 
     202 3 7.941410e-01  1100 2.195980e+00 6.056010e+00 8.365440e+00 2.052000e-03 5.740000e-04 3.089600e-02 5.649000e-04 2.872000e-04 
     203 1 8.420170e-01  1100 1.980100e+00 6.045230e+00 9.550640e+00 2.510000e-02 1.180000e-03 2.248000e-03 2.177000e-04 3.219000e-04 
     204 3 9.016720e-01  1100 2.659170e+00 5.840800e+00 5.884350e+00 1.160000e-03 1.445500e-03 3.419200e-02 8.578000e-04 1.554000e-04 
     205 1 5.569670e-01  1100 3.684120e+00 5.878010e+00 2.297100e+00 5.448000e-03 8.635000e-04 1.537200e-02 8.620000e-04 3.877000e-04 
     206 4 8.179070e-01  1100 4.104420e+00 6.171390e+00 2.925050e+00 2.778400e-02 1.618500e-03 1.598400e-02 3.133000e-04 8.958000e-04 
     207 4 7.458210e-01  1100 3.988370e+00 6.106530e+00 8.003830e+00 2.062800e-02 4.005500e-03 1.301600e-02 3.270000e-04 8.878000e-04 
     208 3 7.113790e-01  1100 4.884220e+00 5.634040e+00 6.673620e-01 2.170400e-02 1.498000e-03 2.221600e-02 8.400000e-04 3.936000e-04 
     209 3 6.639170e-01  1100 4.378210e+00 6.059210e+00 6.822050e+00 3.234000e-02 3.878500e-03 1.181600e-02 4.925000e-04 6.755000e-04 
     210 4 9.785210e-01  1100 5.179480e+00 6.122890e+00 1.944250e+00 3.174800e-02 2.764000e-03 1.464400e-02 5.190000e-05 2.522000e-04 
     211 1 6.014980e-01  1100 5.726830e+00 5.635210e+00 1.011270e+00 2.007600e-02 2.773500e-03 1.396000e-02 7.780000e-04 9.500000e-04 
     212 4 9.299970e-01  1100 6.069960e+00 5.936170e+00 9.488570e+00 1.106400e-02 3.653500e-03 2.520800e-02 4.267000e-04 6.247000e-04 
     213 4 8.051920e-01  1100 7.343740e+00 6.114620e+00 1.695630e+00 4.784000e-03 3.868500e-03 2.658000e-02 2.799000e-04 2.069000e-04 
     214 4 7.134060e-01  1100 8.747690e+00 6.005800e+00 6.282390e+00 3.546400e-02 4.504500e-03 3.968400e-02 3.335000e-04 1.096000e-04 
     215 1 9.887030e-01  1100 8.852370e+00 6.132220e+00 1.253640e+00 3.881200e-02 6.905000e-04 3.777600e-02 3.669000e-04 5.659000e-04 
     216 2 7.007850e-01  1100 8.910600e+00 5.931970e+00 4.586180e+00 3.770400e-02 3.970500e-03 1.401200e-02 7.948000e-04 2.743000e-04 
     217 1 7.852430e-01  1100 9.565720e+00 5.853810e+00 4.388900e-01 2.552400e-02 9.470000e-04 7.720000e-03 3.860000e-05 7.110000e-05 
     218 2 9.336600e-01  1100 9.404300e+00 5.663120e+00 7.330240e+00 3.620000e-03 1.445000e-04 3.678400e-02 7.267000e-04 1.584000e-04 
     219 1 6.227420e-01  1100 9.407510e+00 5.862440e+00 9.587310e+00 2.988000e-03 6.365000e-04 1.154800e-02 8.727000e-04 4.950000e-05 
     220 2 9.011100e-01  1100 4.673110e-01 6.313360e+00 3.880580e+00 7.296000e-03 6.685000e-04 2.203600e-02 2.858000e-04 6.809000e-04 
     221 3 6.602860e-01  1100 3.999000e-01 6.685210e+00 5.046720e+00 1.264000e-03 6.415000e-04 3.677600e-02 6.569000e-04 7.818000e-04 