  Granular Flow Simulation 

       1  atoms 
          1  atom types 

   0.0  1.000000e-03  xlo xhi 
   0.0  1.000000e-03  ylo yhi 
   0.0  1.000000e-03  zlo zhi 

 Atoms

     1   1 7.405490e-05  1100 5-04 5-04 5-04 0.04 0.005 0.04 0.001 0.001
