  Granular Flow Simulation 

       1  atoms 
          1  atom types 

   0  1.000000e-03  xlo xhi 
   0  1.000000e-03  ylo yhi 
   0  1.000000e-03  zlo zhi 

 Atoms

     1 1 7.405490e-05  1100 5-04 5e-04 5e-04 1.205600e-02 2.795000e-03 3.956800e-02 5.038000e-04 8.090000e-04 
