  Granular Flow Simulation 

       1  atoms 
          1  atom types 

   0  4.000000e-05  xlo xhi 
   0  4.000000e-05  ylo yhi 
   0  4.000000e-05  zlo zhi 

 Atoms

     1 1 1.0839e-6 150 8.6e-07 8.6e-07 8.6e-07 1.4307e-6 4.00e-02 5.00e-03 4.00e-02 1.000e-03 1.0000e-04 
