  Granular Flow Simulation 

       5  atoms 
          5  atom types 

   0  1.000000e-04  xlo xhi 
   0  1.000000e-04  ylo yhi 
   0  1.000000e-04  zlo zhi 

 Atoms

     1 4 7.405490e-07  300 4.656850e-06 5.615900e-06 4.867300e-05 1.205600e-02 2.795000e-03 3.956800e-02 5.038000e-04 8.090000e-04 
     2 2 5.876670e-07  300 3.185340e-06 5.825620e-07 7.046820e-05 2.804400e-02 4.270500e-03 2.676000e-03 6.128000e-04 3.565000e-04 
     3 1 9.294660e-07  300 7.139020e-06 5.743940e-06 2.795840e-05 2.665600e-02 1.739500e-03 3.757600e-02 8.195000e-04 7.320000e-05 
     4 5 9.258100e-07  300 6.310550e-06 2.380800e-06 6.049150e-05 2.156400e-02 2.230000e-03 7.240000e-04 5.319000e-04 5.910000e-04 
     5 3 2.279230e-07  300 7.484080e-06 3.129480e-06 7.647710e-05 2.792400e-02 2.710000e-04 2.735600e-02 2.020000e-04 9.102000e-04 
 