  Granular Flow Simulation 

       1  atoms 
          1  atom types 

   0.0  100  xlo xhi 
   0.0  100  ylo yhi 
   0.0  100  zlo zhi 

 Atoms

     1   1   1.0 1100   50 50 50 0.04 0.005 0.04 0.001 0.001
