LAMMPS (1 Feb 2014)

atom_style	bio
#atom_style	sphere
atom_modify map array
#atom_modify map array sort 1 1e-4
boundary	pp pp pp
newton		off
communicate     single vel yes

units si

read_data 	IC5nut.in
  orthogonal box = (0 0 0) to (0.001 0.001 0.001)
  1 by 1 by 1 MPI processor grid
  reading atoms ...
  1 atoms
#read_data 	IC350_2.in

neighbor       1e-3 bin
#neigh_modify delay 0 every 1 check yes page 500000 one 50000
neigh_modify   delay 0


group ch1 type 1
1 atoms in group ch1

fix		garv all gravity 0.09 spherical 0.0 -180.0
pair_style      gran/hooke/history 2000.0 NULL 50.0 NULL 0.5 0
pair_coeff      * *

#Defining affinity variables: list from Jaya
variable KsHET equal 0.01
variable Ko2HET equal 0.81
variable Kno2HET equal 0.0003
variable Kno3HET equal 0.0003

variable Knh4AOB equal 0.001
variable Ko2AOB equal 0.0005

variable Kno2NOB equal 0.0013
variable Ko2NOB equal 0.00068


#Defining maximum growth variables: list from Jaya
variable MumHET equal 0.00006944444
variable MumAOB equal 0.00003472222
variable MumNOB equal 0.00003472222
variable etaHET equal 0.6

#Defining decay rates variables: list from Jaya
variable bHET equal 0.00000462962
variable bAOB equal 0.00000127314
variable bNOB equal 0.00000127314
variable bEPS equal 0.00000196759

#variable rate1 equal 0.001
fix g1 all nugrowth 10 v_KsHET v_Ko2HET v_Kno2HET v_Kno3HET v_Knh4AOB v_Ko2AOB v_Kno2NOB v_Ko2NOB v_MumHET v_MumAOB v_MumNOB v_etaHET v_bHET v_bAOB v_bNOB v_bEPS
fix d1 all divide 10 0.5 1952

timestep	1e-3
fix		1 all nve/sphere
dump		id all custom 10 snapshot2.bubblemd id type diameter x y z vx vy vz
#dump		id all custom 1 snapshot2.bubblemd id type diameter x y z fx fy fz

thermo_style    custom step atoms ke vol

thermo		1
thermo_modify	lost error

run 5000000
Memory usage per processor = 51.0472 Mbytes
Step Atoms KinEng Volume 
       0        1            0        1e-09 
       1        1            0        1e-09 
       2        1            0        1e-09 
       3        1            0        1e-09 
       4        1            0        1e-09 
       5        1            0        1e-09 
       6        1            0        1e-09 
       7        1            0        1e-09 
       8        1            0        1e-09 
       9        1            0        1e-09 
      10        1            0        1e-09 
      11        1            0        1e-09 
      12        1            0        1e-09 
      13        1            0        1e-09 
      14        1            0        1e-09 
      15        1            0        1e-09 
      16        1            0        1e-09 
      17        1            0        1e-09 
      18        1            0        1e-09 
      19        1            0        1e-09 
      20        1            0        1e-09 
      21        1            0        1e-09 
      22        1            0        1e-09 
      23        1            0        1e-09 
      24        1            0        1e-09 
      25        1            0        1e-09 
      26        1            0        1e-09 
      27        1            0        1e-09 
      28        1            0        1e-09 
      29        1            0        1e-09 
      30        1            0        1e-09 
      31        1            0        1e-09 
      32        1            0        1e-09 
      33        1            0        1e-09 
      34        1            0        1e-09 
      35        1            0        1e-09 
      36        1            0        1e-09 
      37        1            0        1e-09 
      38        1            0        1e-09 
      39        1            0        1e-09 
      40        1            0        1e-09 
      41        1            0        1e-09 
      42        1            0        1e-09 
      43        1            0        1e-09 
      44        1            0        1e-09 
      45        1            0        1e-09 
      46        1            0        1e-09 
      47        1            0        1e-09 
      48        1            0        1e-09 
      49        1            0        1e-09 
      50        1            0        1e-09 
      51        1            0        1e-09 
      52        1            0        1e-09 
      53        1            0        1e-09 
      54        1            0        1e-09 
      55        1            0        1e-09 
      56        1            0        1e-09 
      57        1            0        1e-09 
      58        1            0        1e-09 
      59        1            0        1e-09 
      60        1            0        1e-09 
      61        1            0        1e-09 
      62        1            0        1e-09 
      63        1            0        1e-09 
      64        1            0        1e-09 
      65        1            0        1e-09 
      66        1            0        1e-09 
      67        1            0        1e-09 
      68        1            0        1e-09 
      69        1            0        1e-09 
      70        1            0        1e-09 
      71        1            0        1e-09 
      72        1            0        1e-09 
      73        1            0        1e-09 
      74        1            0        1e-09 
      75        1            0        1e-09 
      76        1            0        1e-09 
      77        1            0        1e-09 
      78        1            0        1e-09 
      79        1            0        1e-09 
      80        1            0        1e-09 
      81        1            0        1e-09 
      82        1            0        1e-09 
      83        1            0        1e-09 
      84        1            0        1e-09 
      85        1            0        1e-09 
      86        1            0        1e-09 
      87        1            0        1e-09 
      88        1            0        1e-09 
      89        1            0        1e-09 
      90        1            0        1e-09 
      91        1            0        1e-09 
      92        1            0        1e-09 
      93        1            0        1e-09 
      94        1            0        1e-09 
      95        1            0        1e-09 
      96        1            0        1e-09 
      97        1            0        1e-09 
      98        1            0        1e-09 
      99        1            0        1e-09 
     100        1            0        1e-09 
     101        1            0        1e-09 
     102        1            0        1e-09 
     103        1            0        1e-09 
     104        1            0        1e-09 
     105        1            0        1e-09 
     106        1            0        1e-09 
     107        1            0        1e-09 
     108        1            0        1e-09 
     109        1            0        1e-09 
     110        1            0        1e-09 
     111        1            0        1e-09 
     112        1            0        1e-09 
     113        1            0        1e-09 
     114        1            0        1e-09 
     115        1            0        1e-09 
     116        1            0        1e-09 
     117        1            0        1e-09 
     118        1            0        1e-09 
     119        1            0        1e-09 
     120        1            0        1e-09 
     121        1            0        1e-09 
     122        1            0        1e-09 
     123        1            0        1e-09 
     124        1            0        1e-09 
     125        1            0        1e-09 
     126        1            0        1e-09 
     127        1            0        1e-09 
     128        1            0        1e-09 
     129        1            0        1e-09 
     130        1            0        1e-09 
     131        1            0        1e-09 
     132        1            0        1e-09 
     133        1            0        1e-09 
     134        1            0        1e-09 
     135        1            0        1e-09 
     136        1            0        1e-09 
     137        1            0        1e-09 
     138        1            0        1e-09 
     139        1            0        1e-09 
     140        1            0        1e-09 
     141        1            0        1e-09 
     142        1            0        1e-09 
     143        1            0        1e-09 
     144        1            0        1e-09 
     145        1            0        1e-09 
     146        1            0        1e-09 
     147        1            0        1e-09 
     148        1            0        1e-09 
     149        1            0        1e-09 
     150        1            0        1e-09 
     151        1            0        1e-09 
     152        1            0        1e-09 
     153        1            0        1e-09 
     154        1            0        1e-09 
     155        1            0        1e-09 
     156        1            0        1e-09 
     157        1            0        1e-09 
     158        1            0        1e-09 
     159        1            0        1e-09 
     160        1            0        1e-09 
     161        1            0        1e-09 
     162        1            0        1e-09 
     163        1            0        1e-09 
     164        1            0        1e-09 
     165        1            0        1e-09 
     166        1            0        1e-09 
     167        1            0        1e-09 
     168        1            0        1e-09 
     169        1            0        1e-09 
     170        1            0        1e-09 
     171        1            0        1e-09 
     172        1            0        1e-09 
     173        1            0        1e-09 
     174        1            0        1e-09 
     175        1            0        1e-09 
     176        1            0        1e-09 
     177        1            0        1e-09 
     178        1            0        1e-09 
     179        1            0        1e-09 
     180        1            0        1e-09 
     181        1            0        1e-09 
     182        1            0        1e-09 
     183        1            0        1e-09 
     184        1            0        1e-09 
     185        1            0        1e-09 
     186        1            0        1e-09 
     187        1            0        1e-09 
     188        1            0        1e-09 
     189        1            0        1e-09 
     190        1            0        1e-09 
     191        1            0        1e-09 
     192        1            0        1e-09 
     193        1            0        1e-09 
     194        1            0        1e-09 
     195        1            0        1e-09 
     196        1            0        1e-09 
     197        1            0        1e-09 
     198        1            0        1e-09 
     199        1            0        1e-09 
     200        1            0        1e-09 
     201        1            0        1e-09 
     202        1            0        1e-09 
     203        1            0        1e-09 
     204        1            0        1e-09 
     205        1            0        1e-09 
     206        1            0        1e-09 
     207        1            0        1e-09 
     208        1            0        1e-09 
     209        1            0        1e-09 
     210        1            0        1e-09 
     211        1            0        1e-09 
     212        1            0        1e-09 
     213        1            0        1e-09 
     214        1            0        1e-09 
     215        1            0        1e-09 
     216        1            0        1e-09 
     217        1            0        1e-09 
     218        1            0        1e-09 
     219        1            0        1e-09 
     220        1            0        1e-09 
     221        1            0        1e-09 
     222        1            0        1e-09 
     223        1            0        1e-09 
     224        1            0        1e-09 
     225        1            0        1e-09 
     226        1            0        1e-09 
     227        1            0        1e-09 
     228        1            0        1e-09 
     229        1            0        1e-09 
     230        1            0        1e-09 
     231        1            0        1e-09 
     232        1            0        1e-09 
     233        1            0        1e-09 
     234        1            0        1e-09 
     235        1            0        1e-09 
     236        1            0        1e-09 
     237        1            0        1e-09 
     238        1            0        1e-09 
     239        1            0        1e-09 
     240        1            0        1e-09 
     241        1            0        1e-09 
     242        1            0        1e-09 
     243        1            0        1e-09 
     244        1            0        1e-09 
     245        1            0        1e-09 
     246        1            0        1e-09 
     247        1            0        1e-09 
     248        1            0        1e-09 
     249        1            0        1e-09 
     250        1            0        1e-09 
     251        1            0        1e-09 
     252        1            0        1e-09 
     253        1            0        1e-09 
     254        1            0        1e-09 
     255        1            0        1e-09 
     256        1            0        1e-09 
     257        1            0        1e-09 
     258        1            0        1e-09 
     259        1            0        1e-09 
     260        1            0        1e-09 
     261        1            0        1e-09 
     262        1            0        1e-09 
     263        1            0        1e-09 
     264        1            0        1e-09 
     265        1            0        1e-09 
     266        1            0        1e-09 
     267        1            0        1e-09 
     268        1            0        1e-09 
     269        1            0        1e-09 
     270        1            0        1e-09 
     271        1            0        1e-09 
     272        1            0        1e-09 
     273        1            0        1e-09 
     274        1            0        1e-09 
     275        1            0        1e-09 
     276        1            0        1e-09 
     277        1            0        1e-09 
     278        1            0        1e-09 
     279        1            0        1e-09 
     280        1            0        1e-09 
     281        1            0        1e-09 
     282        1            0        1e-09 
     283        1            0        1e-09 
     284        1            0        1e-09 
     285        1            0        1e-09 
     286        1            0        1e-09 
     287        1            0        1e-09 
     288        1            0        1e-09 
     289        1            0        1e-09 
     290        1            0        1e-09 
     291        1            0        1e-09 
     292        1            0        1e-09 
     293        1            0        1e-09 
     294        1            0        1e-09 
     295        1            0        1e-09 
     296        1            0        1e-09 
     297        1            0        1e-09 
     298        1            0        1e-09 
     299        1            0        1e-09 
     300        1            0        1e-09 
     301        1            0        1e-09 
     302        1            0        1e-09 
     303        1            0        1e-09 
     304        1            0        1e-09 
     305        1            0        1e-09 
     306        1            0        1e-09 
     307        1            0        1e-09 
     308        1            0        1e-09 
     309        1            0        1e-09 
     310        1            0        1e-09 
     311        1            0        1e-09 
     312        1            0        1e-09 
     313        1            0        1e-09 
     314        1            0        1e-09 
     315        1            0        1e-09 
     316        1            0        1e-09 
     317        1            0        1e-09 
     318        1            0        1e-09 
     319        1            0        1e-09 
     320        1            0        1e-09 
     321        1            0        1e-09 
     322        1            0        1e-09 
     323        1            0        1e-09 
     324        1            0        1e-09 
     325        1            0        1e-09 
     326        1            0        1e-09 
     327        1            0        1e-09 
     328        1            0        1e-09 
     329        1            0        1e-09 
     330        1            0        1e-09 
     331        1            0        1e-09 
     332        1            0        1e-09 
     333        1            0        1e-09 
     334        1            0        1e-09 
     335        1            0        1e-09 
     336        1            0        1e-09 
     337        1            0        1e-09 
     338        1            0        1e-09 
     339        1            0        1e-09 
     340        1            0        1e-09 
     341        1            0        1e-09 
     342        1            0        1e-09 
     343        1            0        1e-09 
     344        1            0        1e-09 
     345        1            0        1e-09 
     346        1            0        1e-09 
     347        1            0        1e-09 
     348        1            0        1e-09 
     349        1            0        1e-09 
     350        1            0        1e-09 
     351        1            0        1e-09 
     352        1            0        1e-09 
     353        1            0        1e-09 
     354        1            0        1e-09 
     355        1            0        1e-09 
     356        1            0        1e-09 
     357        1            0        1e-09 
     358        1            0        1e-09 
     359        1            0        1e-09 
     360        1            0        1e-09 
     361        1            0        1e-09 
     362        1            0        1e-09 
     363        1            0        1e-09 
     364        1            0        1e-09 
     365        1            0        1e-09 
     366        1            0        1e-09 
     367        1            0        1e-09 
     368        1            0        1e-09 
     369        1            0        1e-09 
     370        1            0        1e-09 
     371        1            0        1e-09 
     372        1            0        1e-09 
     373        1            0        1e-09 
     374        1            0        1e-09 
     375        1            0        1e-09 
     376        1            0        1e-09 
     377        1            0        1e-09 
     378        1            0        1e-09 
     379        1            0        1e-09 
     380        1            0        1e-09 
     381        1            0        1e-09 
     382        1            0        1e-09 
     383        1            0        1e-09 
     384        1            0        1e-09 
     385        1            0        1e-09 
     386        1            0        1e-09 
     387        1            0        1e-09 
     388        1            0        1e-09 
     389        1            0        1e-09 
     390        1            0        1e-09 
     391        1            0        1e-09 
     392        1            0        1e-09 
     393        1            0        1e-09 
     394        1            0        1e-09 
     395        1            0        1e-09 
     396        1            0        1e-09 
     397        1            0        1e-09 
     398        1            0        1e-09 
     399        1            0        1e-09 
     400        1            0        1e-09 
     401        1            0        1e-09 
     402        1            0        1e-09 
     403        1            0        1e-09 
     404        1            0        1e-09 
     405        1            0        1e-09 
     406        1            0        1e-09 
     407        1            0        1e-09 
     408        1            0        1e-09 
     409        1            0        1e-09 
     410        1            0        1e-09 
     411        1            0        1e-09 
     412        1            0        1e-09 
     413        1            0        1e-09 
     414        1            0        1e-09 
     415        1            0        1e-09 
     416        1            0        1e-09 
     417        1            0        1e-09 
     418        1            0        1e-09 
     419        1            0        1e-09 
     420        1            0        1e-09 
     421        1            0        1e-09 
     422        1            0        1e-09 
     423        1            0        1e-09 
     424        1            0        1e-09 
     425        1            0        1e-09 
     426        1            0        1e-09 
     427        1            0        1e-09 
     428        1            0        1e-09 
     429        1            0        1e-09 
     430        1            0        1e-09 
     431        1            0        1e-09 
     432        1            0        1e-09 
     433        1            0        1e-09 
     434        1            0        1e-09 
     435        1            0        1e-09 
     436        1            0        1e-09 
     437        1            0        1e-09 
     438        1            0        1e-09 
     439        1            0        1e-09 
     440        1            0        1e-09 
     441        1            0        1e-09 
     442        1            0        1e-09 
     443        1            0        1e-09 
     444        1            0        1e-09 
     445        1            0        1e-09 
     446        1            0        1e-09 
     447        1            0        1e-09 
     448        1            0        1e-09 
     449        1            0        1e-09 
     450        1            0        1e-09 
     451        1            0        1e-09 
     452        1            0        1e-09 
     453        1            0        1e-09 
     454        1            0        1e-09 
     455        1            0        1e-09 
     456        1            0        1e-09 
     457        1            0        1e-09 
     458        1            0        1e-09 
     459        1            0        1e-09 
     460        1            0        1e-09 
     461        1            0        1e-09 
     462        1            0        1e-09 
     463        1            0        1e-09 
     464        1            0        1e-09 
     465        1            0        1e-09 
     466        1            0        1e-09 
     467        1            0        1e-09 
     468        1            0        1e-09 
     469        1            0        1e-09 
     470        1            0        1e-09 
     471        1            0        1e-09 
     472        1            0        1e-09 
     473        1            0        1e-09 
     474        1            0        1e-09 
     475        1            0        1e-09 
     476        1            0        1e-09 
     477        1            0        1e-09 
     478        1            0        1e-09 
     479        1            0        1e-09 
     480        1            0        1e-09 
     481        1            0        1e-09 
     482        1            0        1e-09 
     483        1            0        1e-09 
     484        1            0        1e-09 
     485        1            0        1e-09 
     486        1            0        1e-09 
     487        1            0        1e-09 
     488        1            0        1e-09 
     489        1            0        1e-09 
     490        1            0        1e-09 
     491        1            0        1e-09 
     492        1            0        1e-09 
     493        1            0        1e-09 
     494        1            0        1e-09 
     495        1            0        1e-09 
     496        1            0        1e-09 
     497        1            0        1e-09 
     498        1            0        1e-09 
     499        1            0        1e-09 
     500        1            0        1e-09 
     501        1            0        1e-09 
     502        1            0        1e-09 
     503        1            0        1e-09 
     504        1            0        1e-09 
     505        1            0        1e-09 
     506        1            0        1e-09 
     507        1            0        1e-09 
     508        1            0        1e-09 
     509        1            0        1e-09 
     510        1            0        1e-09 
     511        1            0        1e-09 
     512        1            0        1e-09 
     513        1            0        1e-09 
     514        1            0        1e-09 
     515        1            0        1e-09 
     516        1            0        1e-09 
     517        1            0        1e-09 
     518        1            0        1e-09 
     519        1            0        1e-09 
     520        1            0        1e-09 
     521        1            0        1e-09 
     522        1            0        1e-09 
     523        1            0        1e-09 
     524        1            0        1e-09 
     525        1            0        1e-09 
     526        1            0        1e-09 
     527        1            0        1e-09 
     528        1            0        1e-09 
     529        1            0        1e-09 
     530        1            0        1e-09 
     531        1            0        1e-09 
     532        1            0        1e-09 
     533        1            0        1e-09 
     534        1            0        1e-09 
     535        1            0        1e-09 
     536        1            0        1e-09 
     537        1            0        1e-09 
     538        1            0        1e-09 
     539        1            0        1e-09 
     540        1            0        1e-09 
     541        1            0        1e-09 
     542        1            0        1e-09 
     543        1            0        1e-09 
     544        1            0        1e-09 
     545        1            0        1e-09 
     546        1            0        1e-09 
     547        1            0        1e-09 
     548        1            0        1e-09 
     549        1            0        1e-09 
     550        1            0        1e-09 
     551        1            0        1e-09 
     552        1            0        1e-09 
     553        1            0        1e-09 
     554        1            0        1e-09 
     555        1            0        1e-09 
     556        1            0        1e-09 
     557        1            0        1e-09 
     558        1            0        1e-09 
     559        1            0        1e-09 
     560        1            0        1e-09 
     561        1            0        1e-09 
     562        1            0        1e-09 
     563        1            0        1e-09 
     564        1            0        1e-09 
     565        1            0        1e-09 
     566        1            0        1e-09 
     567        1            0        1e-09 
     568        1            0        1e-09 
     569        1            0        1e-09 
     570        1            0        1e-09 
     571        1            0        1e-09 
     572        1            0        1e-09 
     573        1            0        1e-09 
     574        1            0        1e-09 
     575        1            0        1e-09 
     576        1            0        1e-09 
     577        1            0        1e-09 
     578        1            0        1e-09 
     579        1            0        1e-09 
     580        1            0        1e-09 
     581        1            0        1e-09 
     582        1            0        1e-09 
     583        1            0        1e-09 
     584        1            0        1e-09 
     585        1            0        1e-09 
     586        1            0        1e-09 
     587        1            0        1e-09 
     588        1            0        1e-09 
     589        1            0        1e-09 
     590        1            0        1e-09 
     591        1            0        1e-09 
     592        1            0        1e-09 
     593        1            0        1e-09 
     594        1            0        1e-09 
     595        1            0        1e-09 
     596        1            0        1e-09 
     597        1            0        1e-09 
     598        1            0        1e-09 
     599        1            0        1e-09 
     600        1            0        1e-09 
     601        1            0        1e-09 
     602        1            0        1e-09 
     603        1            0        1e-09 
     604        1            0        1e-09 
     605        1            0        1e-09 
     606        1            0        1e-09 
     607        1            0        1e-09 
     608        1            0        1e-09 
     609        1            0        1e-09 
     610        1            0        1e-09 
     611        1            0        1e-09 
     612        1            0        1e-09 
     613        1            0        1e-09 
     614        1            0        1e-09 
     615        1            0        1e-09 
     616        1            0        1e-09 
     617        1            0        1e-09 
     618        1            0        1e-09 
     619        1            0        1e-09 
     620        1            0        1e-09 
     621        1            0        1e-09 
     622        1            0        1e-09 
     623        1            0        1e-09 
     624        1            0        1e-09 
     625        1            0        1e-09 
     626        1            0        1e-09 
     627        1            0        1e-09 
     628        1            0        1e-09 
     629        1            0        1e-09 
     630        1            0        1e-09 
     631        1            0        1e-09 
     632        1            0        1e-09 
     633        1            0        1e-09 
     634        1            0        1e-09 
     635        1            0        1e-09 
     636        1            0        1e-09 
     637        1            0        1e-09 
     638        1            0        1e-09 
     639        1            0        1e-09 
     640        1            0        1e-09 
     641        1            0        1e-09 
     642        1            0        1e-09 
     643        1            0        1e-09 
     644        1            0        1e-09 
     645        1            0        1e-09 
     646        1            0        1e-09 
     647        1            0        1e-09 
     648        1            0        1e-09 
     649        1            0        1e-09 
     650        1            0        1e-09 
     651        1            0        1e-09 
     652        1            0        1e-09 
     653        1            0        1e-09 
     654        1            0        1e-09 
     655        1            0        1e-09 
     656        1            0        1e-09 
     657        1            0        1e-09 
     658        1            0        1e-09 
     659        1            0        1e-09 
     660        1            0        1e-09 
     661        1            0        1e-09 
     662        1            0        1e-09 
     663        1            0        1e-09 
     664        1            0        1e-09 
     665        1            0        1e-09 
     666        1            0        1e-09 
     667        1            0        1e-09 
     668        1            0        1e-09 
     669        1            0        1e-09 
     670        1            0        1e-09 
     671        1            0        1e-09 
     672        1            0        1e-09 
     673        1            0        1e-09 
     674        1            0        1e-09 
     675        1            0        1e-09 
     676        1            0        1e-09 
     677        1            0        1e-09 
     678        1            0        1e-09 
     679        1            0        1e-09 
     680        1            0        1e-09 
     681        1            0        1e-09 
     682        1            0        1e-09 
     683        1            0        1e-09 
     684        1            0        1e-09 
     685        1            0        1e-09 
     686        1            0        1e-09 
     687        1            0        1e-09 
     688        1            0        1e-09 
     689        1            0        1e-09 
     690        1            0        1e-09 
     691        1            0        1e-09 
     692        1            0        1e-09 
     693        1            0        1e-09 
     694        1            0        1e-09 
     695        1            0        1e-09 
     696        1            0        1e-09 
     697        1            0        1e-09 
     698        1            0        1e-09 
     699        1            0        1e-09 
     700        1            0        1e-09 
     701        1            0        1e-09 
     702        1            0        1e-09 
     703        1            0        1e-09 
     704        1            0        1e-09 
     705        1            0        1e-09 
     706        1            0        1e-09 
     707        1            0        1e-09 
     708        1            0        1e-09 
     709        1            0        1e-09 
     710        1            0        1e-09 
     711        1            0        1e-09 
     712        1            0        1e-09 
     713        1            0        1e-09 
     714        1            0        1e-09 
     715        1            0        1e-09 
     716        1            0        1e-09 
     717        1            0        1e-09 
     718        1            0        1e-09 
     719        1            0        1e-09 
     720        1            0        1e-09 
     721        1            0        1e-09 
     722        1            0        1e-09 
     723        1            0        1e-09 
     724        1            0        1e-09 
     725        1            0        1e-09 
     726        1            0        1e-09 
     727        1            0        1e-09 
     728        1            0        1e-09 
     729        1            0        1e-09 
     730        1            0        1e-09 
     731        1            0        1e-09 
     732        1            0        1e-09 
     733        1            0        1e-09 
     734        1            0        1e-09 
     735        1            0        1e-09 
     736        1            0        1e-09 
     737        1            0        1e-09 
     738        1            0        1e-09 
     739        1            0        1e-09 
     740        1            0        1e-09 
     741        1            0        1e-09 
     742        1            0        1e-09 
     743        1            0        1e-09 
     744        1            0        1e-09 
     745        1            0        1e-09 
     746        1            0        1e-09 
     747        1            0        1e-09 
     748        1            0        1e-09 
     749        1            0        1e-09 
     750        1            0        1e-09 
     751        1            0        1e-09 
     752        1            0        1e-09 
     753        1            0        1e-09 
     754        1            0        1e-09 
     755        1            0        1e-09 
     756        1            0        1e-09 
     757        1            0        1e-09 
     758        1            0        1e-09 
     759        1            0        1e-09 
     760        1            0        1e-09 
     761        1            0        1e-09 
     762        1            0        1e-09 
     763        1            0        1e-09 
     764        1            0        1e-09 
     765        1            0        1e-09 
     766        1            0        1e-09 
     767        1            0        1e-09 
     768        1            0        1e-09 
     769        1            0        1e-09 
     770        1            0        1e-09 
     771        1            0        1e-09 
     772        1            0        1e-09 
     773        1            0        1e-09 
     774        1            0        1e-09 
     775        1            0        1e-09 
     776        1            0        1e-09 
     777        1            0        1e-09 
     778        1            0        1e-09 
     779        1            0        1e-09 
     780        1            0        1e-09 
     781        1            0        1e-09 
     782        1            0        1e-09 
     783        1            0        1e-09 
     784        1            0        1e-09 
     785        1            0        1e-09 
     786        1            0        1e-09 
     787        1            0        1e-09 
     788        1            0        1e-09 
     789        1            0        1e-09 
     790        1            0        1e-09 
     791        1            0        1e-09 
     792        1            0        1e-09 
     793        1            0        1e-09 
     794        1            0        1e-09 
     795        1            0        1e-09 
     796        1            0        1e-09 
     797        1            0        1e-09 
     798        1            0        1e-09 
     799        1            0        1e-09 
     800        1            0        1e-09 
     801        1            0        1e-09 
     802        1            0        1e-09 
     803        1            0        1e-09 
     804        1            0        1e-09 
     805        1            0        1e-09 
     806        1            0        1e-09 
     807        1            0        1e-09 
     808        1            0        1e-09 
     809        1            0        1e-09 
     810        1            0        1e-09 
     811        1            0        1e-09 
     812        1            0        1e-09 
     813        1            0        1e-09 
     814        1            0        1e-09 
     815        1            0        1e-09 
     816        1            0        1e-09 
     817        1            0        1e-09 
     818        1            0        1e-09 
     819        1            0        1e-09 
     820        1            0        1e-09 
     821        1            0        1e-09 
     822        1            0        1e-09 
     823        1            0        1e-09 
     824        1            0        1e-09 
     825        1            0        1e-09 
     826        1            0        1e-09 
     827        1            0        1e-09 
     828        1            0        1e-09 
     829        1            0        1e-09 
     830        1            0        1e-09 
     831        1            0        1e-09 
     832        1            0        1e-09 
     833        1            0        1e-09 
     834        1            0        1e-09 
     835        1            0        1e-09 
     836        1            0        1e-09 
     837        1            0        1e-09 
     838        1            0        1e-09 
     839        1            0        1e-09 
     840        1            0        1e-09 
     841        1            0        1e-09 
     842        1            0        1e-09 
     843        1            0        1e-09 
     844        1            0        1e-09 
     845        1            0        1e-09 
     846        1            0        1e-09 
     847        1            0        1e-09 
     848        1            0        1e-09 
     849        1            0        1e-09 
     850        1            0        1e-09 
     851        1            0        1e-09 
     852        1            0        1e-09 
     853        1            0        1e-09 
     854        1            0        1e-09 
     855        1            0        1e-09 
     856        1            0        1e-09 
     857        1            0        1e-09 
     858        1            0        1e-09 
     859        1            0        1e-09 
     860        1            0        1e-09 
     861        1            0        1e-09 
     862        1            0        1e-09 
     863        1            0        1e-09 
     864        1            0        1e-09 
     865        1            0        1e-09 
     866        1            0        1e-09 
     867        1            0        1e-09 
     868        1            0        1e-09 
     869        1            0        1e-09 
     870        1            0        1e-09 
     871        1            0        1e-09 
     872        1            0        1e-09 
     873        1            0        1e-09 
     874        1            0        1e-09 
     875        1            0        1e-09 
     876        1            0        1e-09 
     877        1            0        1e-09 
     878        1            0        1e-09 
     879        1            0        1e-09 
     880        1            0        1e-09 
     881        1            0        1e-09 
     882        1            0        1e-09 
     883        1            0        1e-09 
     884        1            0        1e-09 
     885        1            0        1e-09 
     886        1            0        1e-09 
     887        1            0        1e-09 
     888        1            0        1e-09 
     889        1            0        1e-09 
     890        1            0        1e-09 
     891        1            0        1e-09 
     892        1            0        1e-09 
     893        1            0        1e-09 
     894        1            0        1e-09 
     895        1            0        1e-09 
     896        1            0        1e-09 
     897        1            0        1e-09 
     898        1            0        1e-09 
     899        1            0        1e-09 
     900        1            0        1e-09 
     901        1            0        1e-09 
     902        1            0        1e-09 
     903        1            0        1e-09 
     904        1            0        1e-09 
     905        1            0        1e-09 
     906        1            0        1e-09 
     907        1            0        1e-09 
     908        1            0        1e-09 
     909        1            0        1e-09 
     910        1            0        1e-09 
     911        1            0        1e-09 
     912        1            0        1e-09 
     913        1            0        1e-09 
     914        1            0        1e-09 
     915        1            0        1e-09 
     916        1            0        1e-09 
     917        1            0        1e-09 
     918        1            0        1e-09 
     919        1            0        1e-09 
     920        1            0        1e-09 
     921        1            0        1e-09 
     922        1            0        1e-09 
     923        1            0        1e-09 
     924        1            0        1e-09 
     925        1            0        1e-09 
     926        1            0        1e-09 
     927        1            0        1e-09 
     928        1            0        1e-09 
     929        1            0        1e-09 
     930        1            0        1e-09 
     931        1            0        1e-09 
     932        1            0        1e-09 
     933        1            0        1e-09 
     934        1            0        1e-09 
     935        1            0        1e-09 
     936        1            0        1e-09 
     937        1            0        1e-09 
     938        1            0        1e-09 
     939        1            0        1e-09 
     940        1            0        1e-09 
     941        1            0        1e-09 
     942        1            0        1e-09 
     943        1            0        1e-09 
     944        1            0        1e-09 
     945        1            0        1e-09 
     946        1            0        1e-09 
     947        1            0        1e-09 
     948        1            0        1e-09 
     949        1            0        1e-09 
     950        1            0        1e-09 
     951        1            0        1e-09 
     952        1            0        1e-09 
     953        1            0        1e-09 
     954        1            0        1e-09 
     955        1            0        1e-09 
     956        1            0        1e-09 
     957        1            0        1e-09 
     958        1            0        1e-09 
     959        1            0        1e-09 
     960        1            0        1e-09 
     961        1            0        1e-09 
     962        1            0        1e-09 
     963        1            0        1e-09 
     964        1            0        1e-09 
     965        1            0        1e-09 
     966        1            0        1e-09 
     967        1            0        1e-09 
     968        1            0        1e-09 
     969        1            0        1e-09 
     970        1            0        1e-09 
     971        1            0        1e-09 
     972        1            0        1e-09 
     973        1            0        1e-09 
     974        1            0        1e-09 
     975        1            0        1e-09 
     976        1            0        1e-09 
     977        1            0        1e-09 
     978        1            0        1e-09 
     979        1            0        1e-09 
     980        1            0        1e-09 
     981        1            0        1e-09 
     982        1            0        1e-09 
     983        1            0        1e-09 
     984        1            0        1e-09 
     985        1            0        1e-09 
     986        1            0        1e-09 
     987        1            0        1e-09 
     988        1            0        1e-09 
     989        1            0        1e-09 
     990        1            0        1e-09 
     991        1            0        1e-09 
     992        1            0        1e-09 
     993        1            0        1e-09 
     994        1            0        1e-09 
     995        1            0        1e-09 
     996        1            0        1e-09 
     997        1            0        1e-09 
     998        1            0        1e-09 
     999        1            0        1e-09 
    1000        1            0        1e-09 
    1001        1            0        1e-09 
    1002        1            0        1e-09 
    1003        1            0        1e-09 
    1004        1            0        1e-09 
    1005        1            0        1e-09 
    1006        1            0        1e-09 
    1007        1            0        1e-09 
    1008        1            0        1e-09 
    1009        1            0        1e-09 
    1010        1            0        1e-09 
    1011        1            0        1e-09 
    1012        1            0        1e-09 
    1013        1            0        1e-09 
    1014        1            0        1e-09 
    1015        1            0        1e-09 
    1016        1            0        1e-09 
    1017        1            0        1e-09 
    1018        1            0        1e-09 
    1019        1            0        1e-09 
    1020        1            0        1e-09 
    1021        1            0        1e-09 
    1022        1            0        1e-09 
    1023        1            0        1e-09 
    1024        1            0        1e-09 
    1025        1            0        1e-09 
    1026        1            0        1e-09 
    1027        1            0        1e-09 
    1028        1            0        1e-09 
    1029        1            0        1e-09 
    1030        1            0        1e-09 
    1031        1            0        1e-09 
    1032        1            0        1e-09 
    1033        1            0        1e-09 
    1034        1            0        1e-09 
    1035        1            0        1e-09 
    1036        1            0        1e-09 
    1037        1            0        1e-09 
    1038        1            0        1e-09 
    1039        1            0        1e-09 
    1040        1            0        1e-09 
    1041        1            0        1e-09 
    1042        1            0        1e-09 
    1043        1            0        1e-09 
    1044        1            0        1e-09 
    1045        1            0        1e-09 
    1046        1            0        1e-09 
    1047        1            0        1e-09 
    1048        1            0        1e-09 
    1049        1            0        1e-09 
    1050        1            0        1e-09 
    1051        1            0        1e-09 
    1052        1            0        1e-09 
    1053        1            0        1e-09 
    1054        1            0        1e-09 
    1055        1            0        1e-09 
    1056        1            0        1e-09 
    1057        1            0        1e-09 
    1058        1            0        1e-09 
    1059        1            0        1e-09 
    1060        1            0        1e-09 
    1061        1            0        1e-09 
    1062        1            0        1e-09 
    1063        1            0        1e-09 
    1064        1            0        1e-09 
    1065        1            0        1e-09 
    1066        1            0        1e-09 
    1067        1            0        1e-09 
    1068        1            0        1e-09 
    1069        1            0        1e-09 
    1070        1            0        1e-09 
    1071        1            0        1e-09 
    1072        1            0        1e-09 
    1073        1            0        1e-09 
    1074        1            0        1e-09 
    1075        1            0        1e-09 
    1076        1            0        1e-09 
    1077        1            0        1e-09 
    1078        1            0        1e-09 
    1079        1            0        1e-09 
    1080        1            0        1e-09 
    1081        1            0        1e-09 
    1082        1            0        1e-09 
    1083        1            0        1e-09 
    1084        1            0        1e-09 
    1085        1            0        1e-09 
    1086        1            0        1e-09 
    1087        1            0        1e-09 
    1088        1            0        1e-09 
    1089        1            0        1e-09 
    1090        1            0        1e-09 
    1091        1            0        1e-09 
    1092        1            0        1e-09 
    1093        1            0        1e-09 
    1094        1            0        1e-09 
    1095        1            0        1e-09 
    1096        1            0        1e-09 
    1097        1            0        1e-09 
    1098        1            0        1e-09 
    1099        1            0        1e-09 
    1100        1            0        1e-09 
    1101        1            0        1e-09 
    1102        1            0        1e-09 
    1103        1            0        1e-09 
    1104        1            0        1e-09 
    1105        1            0        1e-09 
    1106        1            0        1e-09 
    1107        1            0        1e-09 
    1108        1            0        1e-09 
    1109        1            0        1e-09 
    1110        1            0        1e-09 
    1111        1            0        1e-09 
    1112        1            0        1e-09 
    1113        1            0        1e-09 
    1114        1            0        1e-09 
    1115        1            0        1e-09 
    1116        1            0        1e-09 
    1117        1            0        1e-09 
    1118        1            0        1e-09 
    1119        1            0        1e-09 
    1120        1            0        1e-09 
    1121        1            0        1e-09 
    1122        1            0        1e-09 
    1123        1            0        1e-09 
    1124        1            0        1e-09 
    1125        1            0        1e-09 
    1126        1            0        1e-09 
    1127        1            0        1e-09 
    1128        1            0        1e-09 
    1129        1            0        1e-09 
    1130        1            0        1e-09 
    1131        1            0        1e-09 
    1132        1            0        1e-09 
    1133        1            0        1e-09 
    1134        1            0        1e-09 
    1135        1            0        1e-09 
    1136        1            0        1e-09 
    1137        1            0        1e-09 
    1138        1            0        1e-09 
    1139        1            0        1e-09 
    1140        1            0        1e-09 
    1141        1            0        1e-09 
    1142        1            0        1e-09 
    1143        1            0        1e-09 
    1144        1            0        1e-09 
    1145        1            0        1e-09 
    1146        1            0        1e-09 
    1147        1            0        1e-09 
    1148        1            0        1e-09 
    1149        1            0        1e-09 
    1150        1            0        1e-09 
    1151        1            0        1e-09 
    1152        1            0        1e-09 
    1153        1            0        1e-09 
    1154        1            0        1e-09 
    1155        1            0        1e-09 
    1156        1            0        1e-09 
    1157        1            0        1e-09 
    1158        1            0        1e-09 
    1159        1            0        1e-09 
    1160        1            0        1e-09 
    1161        1            0        1e-09 
    1162        1            0        1e-09 
    1163        1            0        1e-09 
    1164        1            0        1e-09 
    1165        1            0        1e-09 
    1166        1            0        1e-09 
    1167        1            0        1e-09 
    1168        1            0        1e-09 
    1169        1            0        1e-09 
    1170        1            0        1e-09 
    1171        1            0        1e-09 
    1172        1            0        1e-09 
    1173        1            0        1e-09 
    1174        1            0        1e-09 
    1175        1            0        1e-09 
    1176        1            0        1e-09 
    1177        1            0        1e-09 
    1178        1            0        1e-09 
    1179        1            0        1e-09 
    1180        1            0        1e-09 
    1181        1            0        1e-09 
    1182        1            0        1e-09 
    1183        1            0        1e-09 
    1184        1            0        1e-09 
    1185        1            0        1e-09 
    1186        1            0        1e-09 
    1187        1            0        1e-09 
    1188        1            0        1e-09 
    1189        1            0        1e-09 
    1190        1            0        1e-09 
    1191        1            0        1e-09 
    1192        1            0        1e-09 
    1193        1            0        1e-09 
    1194        1            0        1e-09 
    1195        1            0        1e-09 
    1196        1            0        1e-09 
    1197        1            0        1e-09 
    1198        1            0        1e-09 
    1199        1            0        1e-09 
    1200        1            0        1e-09 
    1201        1            0        1e-09 
    1202        1            0        1e-09 
    1203        1            0        1e-09 
    1204        1            0        1e-09 
    1205        1            0        1e-09 
    1206        1            0        1e-09 
    1207        1            0        1e-09 
    1208        1            0        1e-09 
    1209        1            0        1e-09 
    1210        1            0        1e-09 
    1211        1            0        1e-09 
    1212        1            0        1e-09 
    1213        1            0        1e-09 
    1214        1            0        1e-09 
    1215        1            0        1e-09 
    1216        1            0        1e-09 
    1217        1            0        1e-09 
    1218        1            0        1e-09 
    1219        1            0        1e-09 
    1220        1            0        1e-09 
    1221        1            0        1e-09 
    1222        1            0        1e-09 
    1223        1            0        1e-09 
    1224        1            0        1e-09 
    1225        1            0        1e-09 
    1226        1            0        1e-09 
    1227        1            0        1e-09 
    1228        1            0        1e-09 
    1229        1            0        1e-09 
    1230        1            0        1e-09 
    1231        1            0        1e-09 
    1232        1            0        1e-09 
    1233        1            0        1e-09 
    1234        1            0        1e-09 
    1235        1            0        1e-09 
    1236        1            0        1e-09 
    1237        1            0        1e-09 
    1238        1            0        1e-09 
    1239        1            0        1e-09 
    1240        1            0        1e-09 
    1241        1            0        1e-09 
    1242        1            0        1e-09 
    1243        1            0        1e-09 
    1244        1            0        1e-09 
    1245        1            0        1e-09 
    1246        1            0        1e-09 
    1247        1            0        1e-09 
    1248        1            0        1e-09 
    1249        1            0        1e-09 
    1250        1            0        1e-09 
    1251        1            0        1e-09 
    1252        1            0        1e-09 
    1253        1            0        1e-09 
    1254        1            0        1e-09 
    1255        1            0        1e-09 
    1256        1            0        1e-09 
    1257        1            0        1e-09 
    1258        1            0        1e-09 
    1259        1            0        1e-09 
    1260        1            0        1e-09 
    1261        1            0        1e-09 
    1262        1            0        1e-09 
    1263        1            0        1e-09 
    1264        1            0        1e-09 
    1265        1            0        1e-09 
    1266        1            0        1e-09 
    1267        1            0        1e-09 
    1268        1            0        1e-09 
    1269        1            0        1e-09 
    1270        1            0        1e-09 
    1271        1            0        1e-09 
    1272        1            0        1e-09 
    1273        1            0        1e-09 
    1274        1            0        1e-09 
    1275        1            0        1e-09 
    1276        1            0        1e-09 
    1277        1            0        1e-09 
    1278        1            0        1e-09 
    1279        1            0        1e-09 
    1280        1            0        1e-09 
    1281        1            0        1e-09 
    1282        1            0        1e-09 
    1283        1            0        1e-09 
    1284        1            0        1e-09 
    1285        1            0        1e-09 
    1286        1            0        1e-09 
    1287        1            0        1e-09 
    1288        1            0        1e-09 
    1289        1            0        1e-09 
    1290        1            0        1e-09 
    1291        1            0        1e-09 
    1292        1            0        1e-09 
    1293        1            0        1e-09 
    1294        1            0        1e-09 
    1295        1            0        1e-09 
    1296        1            0        1e-09 
    1297        1            0        1e-09 
    1298        1            0        1e-09 
    1299        1            0        1e-09 
    1300        1            0        1e-09 
    1301        1            0        1e-09 
    1302        1            0        1e-09 
    1303        1            0        1e-09 
    1304        1            0        1e-09 
    1305        1            0        1e-09 
    1306        1            0        1e-09 
    1307        1            0        1e-09 
    1308        1            0        1e-09 
    1309        1            0        1e-09 
    1310        1            0        1e-09 
    1311        1            0        1e-09 
    1312        1            0        1e-09 
    1313        1            0        1e-09 
    1314        1            0        1e-09 
    1315        1            0        1e-09 
    1316        1            0        1e-09 
    1317        1            0        1e-09 
    1318        1            0        1e-09 
    1319        1            0        1e-09 
    1320        1            0        1e-09 
    1321        1            0        1e-09 
    1322        1            0        1e-09 
    1323        1            0        1e-09 
    1324        1            0        1e-09 
    1325        1            0        1e-09 
    1326        1            0        1e-09 
    1327        1            0        1e-09 
    1328        1            0        1e-09 
    1329        1            0        1e-09 
    1330        1            0        1e-09 
    1331        1            0        1e-09 
    1332        1            0        1e-09 
    1333        1            0        1e-09 
    1334        1            0        1e-09 
    1335        1            0        1e-09 
    1336        1            0        1e-09 
    1337        1            0        1e-09 
    1338        1            0        1e-09 
    1339        1            0        1e-09 
    1340        1            0        1e-09 
    1341        1            0        1e-09 
    1342        1            0        1e-09 
    1343        1            0        1e-09 
    1344        1            0        1e-09 
    1345        1            0        1e-09 
    1346        1            0        1e-09 
    1347        1            0        1e-09 
    1348        1            0        1e-09 
    1349        1            0        1e-09 
    1350        1            0        1e-09 
    1351        1            0        1e-09 
    1352        1            0        1e-09 
    1353        1            0        1e-09 
    1354        1            0        1e-09 
    1355        1            0        1e-09 
    1356        1            0        1e-09 
    1357        1            0        1e-09 
    1358        1            0        1e-09 
    1359        1            0        1e-09 
    1360        1            0        1e-09 
    1361        1            0        1e-09 
    1362        1            0        1e-09 
    1363        1            0        1e-09 
    1364        1            0        1e-09 
    1365        1            0        1e-09 
    1366        1            0        1e-09 
    1367        1            0        1e-09 
    1368        1            0        1e-09 
    1369        1            0        1e-09 
    1370        1            0        1e-09 
    1371        1            0        1e-09 
    1372        1            0        1e-09 
    1373        1            0        1e-09 
    1374        1            0        1e-09 
    1375        1            0        1e-09 
    1376        1            0        1e-09 
    1377        1            0        1e-09 
    1378        1            0        1e-09 
    1379        1            0        1e-09 
    1380        1            0        1e-09 
    1381        1            0        1e-09 
    1382        1            0        1e-09 
    1383        1            0        1e-09 
    1384        1            0        1e-09 
    1385        1            0        1e-09 
    1386        1            0        1e-09 
    1387        1            0        1e-09 
    1388        1            0        1e-09 
    1389        1            0        1e-09 
    1390        1            0        1e-09 
    1391        1            0        1e-09 
    1392        1            0        1e-09 
    1393        1            0        1e-09 
    1394        1            0        1e-09 
    1395        1            0        1e-09 
    1396        1            0        1e-09 
    1397        1            0        1e-09 
    1398        1            0        1e-09 
    1399        1            0        1e-09 
    1400        1            0        1e-09 
    1401        1            0        1e-09 
    1402        1            0        1e-09 
    1403        1            0        1e-09 
    1404        1            0        1e-09 
    1405        1            0        1e-09 
    1406        1            0        1e-09 
    1407        1            0        1e-09 
    1408        1            0        1e-09 
    1409        1            0        1e-09 
    1410        1            0        1e-09 
    1411        1            0        1e-09 
    1412        1            0        1e-09 
    1413        1            0        1e-09 
    1414        1            0        1e-09 
    1415        1            0        1e-09 
    1416        1            0        1e-09 
    1417        1            0        1e-09 
    1418        1            0        1e-09 
    1419        1            0        1e-09 
    1420        1            0        1e-09 
    1421        1            0        1e-09 
    1422        1            0        1e-09 
    1423        1            0        1e-09 
    1424        1            0        1e-09 
    1425        1            0        1e-09 
    1426        1            0        1e-09 
    1427        1            0        1e-09 
    1428        1            0        1e-09 
    1429        1            0        1e-09 
    1430        1            0        1e-09 
    1431        1            0        1e-09 
    1432        1            0        1e-09 
    1433        1            0        1e-09 
    1434        1            0        1e-09 
    1435        1            0        1e-09 
    1436        1            0        1e-09 
    1437        1            0        1e-09 
    1438        1            0        1e-09 
    1439        1            0        1e-09 
    1440        1            0        1e-09 
    1441        1            0        1e-09 
    1442        1            0        1e-09 
    1443        1            0        1e-09 
    1444        1            0        1e-09 
    1445        1            0        1e-09 
    1446        1            0        1e-09 
    1447        1            0        1e-09 
    1448        1            0        1e-09 
    1449        1            0        1e-09 
    1450        1            0        1e-09 
    1451        1            0        1e-09 
    1452        1            0        1e-09 
    1453        1            0        1e-09 
    1454        1            0        1e-09 
    1455        1            0        1e-09 
    1456        1            0        1e-09 
    1457        1            0        1e-09 
    1458        1            0        1e-09 
    1459        1            0        1e-09 
    1460        1            0        1e-09 
    1461        1            0        1e-09 
    1462        1            0        1e-09 
    1463        1            0        1e-09 
    1464        1            0        1e-09 
    1465        1            0        1e-09 
    1466        1            0        1e-09 
    1467        1            0        1e-09 
    1468        1            0        1e-09 
    1469        1            0        1e-09 
    1470        1            0        1e-09 
    1471        1            0        1e-09 
    1472        1            0        1e-09 
    1473        1            0        1e-09 
    1474        1            0        1e-09 
    1475        1            0        1e-09 
    1476        1            0        1e-09 
    1477        1            0        1e-09 
    1478        1            0        1e-09 
    1479        1            0        1e-09 
    1480        1            0        1e-09 
    1481        1            0        1e-09 
    1482        1            0        1e-09 
    1483        1            0        1e-09 
    1484        1            0        1e-09 
    1485        1            0        1e-09 
    1486        1            0        1e-09 
    1487        1            0        1e-09 
    1488        1            0        1e-09 
    1489        1            0        1e-09 
    1490        1            0        1e-09 
    1491        1            0        1e-09 
    1492        1            0        1e-09 
    1493        1            0        1e-09 
    1494        1            0        1e-09 
    1495        1            0        1e-09 
    1496        1            0        1e-09 
    1497        1            0        1e-09 
    1498        1            0        1e-09 
    1499        1            0        1e-09 
    1500        1            0        1e-09 
    1501        1            0        1e-09 
    1502        1            0        1e-09 
    1503        1            0        1e-09 
    1504        1            0        1e-09 
    1505        1            0        1e-09 
    1506        1            0        1e-09 
    1507        1            0        1e-09 
    1508        1            0        1e-09 
    1509        1            0        1e-09 
    1510        1            0        1e-09 
    1511        1            0        1e-09 
    1512        1            0        1e-09 
    1513        1            0        1e-09 
    1514        1            0        1e-09 
    1515        1            0        1e-09 
    1516        1            0        1e-09 
    1517        1            0        1e-09 
    1518        1            0        1e-09 
    1519        1            0        1e-09 
    1520        1            0        1e-09 
    1521        1            0        1e-09 
    1522        1            0        1e-09 
    1523        1            0        1e-09 
    1524        1            0        1e-09 
    1525        1            0        1e-09 
    1526        1            0        1e-09 
    1527        1            0        1e-09 
    1528        1            0        1e-09 
    1529        1            0        1e-09 
    1530        1            0        1e-09 
    1531        1            0        1e-09 
    1532        1            0        1e-09 
    1533        1            0        1e-09 
    1534        1            0        1e-09 
    1535        1            0        1e-09 
    1536        1            0        1e-09 
    1537        1            0        1e-09 
    1538        1            0        1e-09 
    1539        1            0        1e-09 
    1540        1            0        1e-09 
    1541        1            0        1e-09 
    1542        1            0        1e-09 
    1543        1            0        1e-09 
    1544        1            0        1e-09 
    1545        1            0        1e-09 
    1546        1            0        1e-09 
    1547        1            0        1e-09 
    1548        1            0        1e-09 
    1549        1            0        1e-09 
    1550        1            0        1e-09 
    1551        1            0        1e-09 
    1552        1            0        1e-09 
    1553        1            0        1e-09 
    1554        1            0        1e-09 
    1555        1            0        1e-09 
    1556        1            0        1e-09 
    1557        1            0        1e-09 
    1558        1            0        1e-09 
    1559        1            0        1e-09 
    1560        1            0        1e-09 
    1561        1            0        1e-09 
    1562        1            0        1e-09 
    1563        1            0        1e-09 
    1564        1            0        1e-09 
    1565        1            0        1e-09 
    1566        1            0        1e-09 
    1567        1            0        1e-09 
    1568        1            0        1e-09 
    1569        1            0        1e-09 
    1570        1            0        1e-09 
    1571        1            0        1e-09 
    1572        1            0        1e-09 
    1573        1            0        1e-09 
    1574        1            0        1e-09 
    1575        1            0        1e-09 
    1576        1            0        1e-09 
    1577        1            0        1e-09 
    1578        1            0        1e-09 
    1579        1            0        1e-09 
    1580        1            0        1e-09 
    1581        1            0        1e-09 
    1582        1            0        1e-09 
    1583        1            0        1e-09 
    1584        1            0        1e-09 
    1585        1            0        1e-09 
    1586        1            0        1e-09 
    1587        1            0        1e-09 
    1588        1            0        1e-09 
    1589        1            0        1e-09 
    1590        1            0        1e-09 
    1591        1            0        1e-09 
    1592        1            0        1e-09 
    1593        1            0        1e-09 
    1594        1            0        1e-09 
    1595        1            0        1e-09 
    1596        1            0        1e-09 
    1597        1            0        1e-09 
    1598        1            0        1e-09 
    1599        1            0        1e-09 
    1600        1            0        1e-09 
    1601        1            0        1e-09 
    1602        1            0        1e-09 
    1603        1            0        1e-09 
    1604        1            0        1e-09 
    1605        1            0        1e-09 
    1606        1            0        1e-09 
    1607        1            0        1e-09 
    1608        1            0        1e-09 
    1609        1            0        1e-09 
    1610        1            0        1e-09 
    1611        1            0        1e-09 
    1612        1            0        1e-09 
    1613        1            0        1e-09 
    1614        1            0        1e-09 
    1615        1            0        1e-09 
    1616        1            0        1e-09 
    1617        1            0        1e-09 
    1618        1            0        1e-09 
    1619        1            0        1e-09 
    1620        1            0        1e-09 
    1621        1            0        1e-09 
    1622        1            0        1e-09 
    1623        1            0        1e-09 
    1624        1            0        1e-09 
    1625        1            0        1e-09 
    1626        1            0        1e-09 
    1627        1            0        1e-09 
    1628        1            0        1e-09 
    1629        1            0        1e-09 
    1630        1            0        1e-09 
    1631        1            0        1e-09 
    1632        1            0        1e-09 
    1633        1            0        1e-09 
    1634        1            0        1e-09 
    1635        1            0        1e-09 
    1636        1            0        1e-09 
    1637        1            0        1e-09 
    1638        1            0        1e-09 
    1639        1            0        1e-09 
    1640        1            0        1e-09 
    1641        1            0        1e-09 
    1642        1            0        1e-09 
    1643        1            0        1e-09 
    1644        1            0        1e-09 
    1645        1            0        1e-09 
    1646        1            0        1e-09 
    1647        1            0        1e-09 
    1648        1            0        1e-09 
    1649        1            0        1e-09 
    1650        1            0        1e-09 
    1651        1            0        1e-09 
    1652        1            0        1e-09 
    1653        1            0        1e-09 
    1654        1            0        1e-09 
    1655        1            0        1e-09 
    1656        1            0        1e-09 
    1657        1            0        1e-09 
    1658        1            0        1e-09 
    1659        1            0        1e-09 
    1660        1            0        1e-09 
    1661        1            0        1e-09 
    1662        1            0        1e-09 
    1663        1            0        1e-09 
    1664        1            0        1e-09 
    1665        1            0        1e-09 
    1666        1            0        1e-09 
    1667        1            0        1e-09 
    1668        1            0        1e-09 
    1669        1            0        1e-09 
    1670        1            0        1e-09 
    1671        1            0        1e-09 
    1672        1            0        1e-09 
    1673        1            0        1e-09 
    1674        1            0        1e-09 
    1675        1            0        1e-09 
    1676        1            0        1e-09 
    1677        1            0        1e-09 
    1678        1            0        1e-09 
    1679        1            0        1e-09 
    1680        1            0        1e-09 
    1681        1            0        1e-09 
    1682        1            0        1e-09 
    1683        1            0        1e-09 
    1684        1            0        1e-09 
    1685        1            0        1e-09 
    1686        1            0        1e-09 
    1687        1            0        1e-09 
    1688        1            0        1e-09 
    1689        1            0        1e-09 
    1690        1            0        1e-09 
    1691        1            0        1e-09 
    1692        1            0        1e-09 
    1693        1            0        1e-09 
    1694        1            0        1e-09 
    1695        1            0        1e-09 
    1696        1            0        1e-09 
    1697        1            0        1e-09 
    1698        1            0        1e-09 
    1699        1            0        1e-09 
    1700        1            0        1e-09 
    1701        1            0        1e-09 
    1702        1            0        1e-09 
    1703        1            0        1e-09 
    1704        1            0        1e-09 
    1705        1            0        1e-09 
    1706        1            0        1e-09 
    1707        1            0        1e-09 
    1708        1            0        1e-09 
    1709        1            0        1e-09 
    1710        1            0        1e-09 
    1711        1            0        1e-09 
    1712        1            0        1e-09 
    1713        1            0        1e-09 
    1714        1            0        1e-09 
    1715        1            0        1e-09 
    1716        1            0        1e-09 
    1717        1            0        1e-09 
    1718        1            0        1e-09 
    1719        1            0        1e-09 
    1720        1            0        1e-09 
    1721        1            0        1e-09 
    1722        1            0        1e-09 
    1723        1            0        1e-09 
    1724        1            0        1e-09 
    1725        1            0        1e-09 
    1726        1            0        1e-09 
    1727        1            0        1e-09 
    1728        1            0        1e-09 
    1729        1            0        1e-09 
    1730        1            0        1e-09 
    1731        1            0        1e-09 
    1732        1            0        1e-09 
    1733        1            0        1e-09 
    1734        1            0        1e-09 
    1735        1            0        1e-09 
[...]
   10704        1            0        1e-09 
   10705        1            0        1e-09 
   10706        1            0        1e-09 
   10707        1            0        1e-09 
   10708        1            0        1e-09 
   10709        1            0        1e-09 
   10710        1            0        1e-09 
   10711        1            0        1e-09 
   10712        1            0        1e-09 
   10713        1            0        1e-09 
   10714        1            0        1e-09 
   10715        1            0        1e-09 
   10716        1            0        1e-09 
   10717        1            0        1e-09 
   10718        1            0        1e-09 
   10719        1            0        1e-09 
   10720        1            0        1e-09 
   10721        1            0        1e-09 
   10722        1            0        1e-09 
   10723        1            0        1e-09 
   10724        1            0        1e-09 
   10725        1            0        1e-09 
   10726        1            0        1e-09 
   10727        1            0        1e-09 
   10728        1            0        1e-09 
   10729        1            0        1e-09 
   10730        1            0        1e-09 
   10731        1            0        1e-09 
   10732        1            0        1e-09 
   10733        1            0        1e-09 
   10734        1            0        1e-09 
   10735        1            0        1e-09 
   10736        1            0        1e-09 
   10737        1            0        1e-09 
   10738        1            0        1e-09 
   10739        1            0        1e-09 
   10740        1            0        1e-09 
   10741        1            0        1e-09 
   10742        1            0        1e-09 
   10743        1            0        1e-09 
   10744        1            0        1e-09 
   10745        1            0        1e-09 
   10746        1            0        1e-09 
   10747        1            0        1e-09 
   10748        1            0        1e-09 
   10749        1            0        1e-09 
   10750        1            0        1e-09 
   10751        1            0        1e-09 
   10752        1            0        1e-09 
   10753        1            0        1e-09 
   10754        1            0        1e-09 
   10755        1            0        1e-09 
   10756        1            0        1e-09 
   10757        1            0        1e-09 
   10758        1            0        1e-09 
   10759        1            0        1e-09 
   10760        1            0        1e-09 
   10761        1            0        1e-09 
   10762        1            0        1e-09 
   10763        1            0        1e-09 
   10764        1            0        1e-09 
   10765        1            0        1e-09 
   10766        1            0        1e-09 
   10767        1            0        1e-09 
   10768        1            0        1e-09 
   10769        1            0        1e-09 
   10770        1            0        1e-09 
   10771        1            0        1e-09 
   10772        1            0        1e-09 
   10773        1            0        1e-09 
   10774        1            0        1e-09 
   10775        1            0        1e-09 
   10776        1            0        1e-09 
   10777        1            0        1e-09 
   10778        1            0        1e-09 
   10779        1            0        1e-09 
   10780        1            0        1e-09 
   10781        1            0        1e-09 
   10782        1            0        1e-09 
   10783        1            0        1e-09 
   10784        1            0        1e-09 
   10785        1            0        1e-09 
   10786        1            0        1e-09 
   10787        1            0        1e-09 
   10788        1            0        1e-09 
   10789        1            0        1e-09 
   10790        1            0        1e-09 
   10791        1            0        1e-09 
   10792        1            0        1e-09 
   10793        1            0        1e-09 
   10794        1            0        1e-09 
   10795        1            0        1e-09 
   10796        1            0        1e-09 
   10797        1            0        1e-09 
   10798        1            0        1e-09 
   10799        1            0        1e-09 
   10800        1            0        1e-09 
   10801        1            0        1e-09 
   10802        1            0        1e-09 
   10803        1            0        1e-09 
   10804        1            0        1e-09 
   10805        1            0        1e-09 
   10806        1            0        1e-09 
   10807        1            0        1e-09 
   10808        1            0        1e-09 
   10809        1            0        1e-09 
   10810        1            0        1e-09 
   10811        1            0        1e-09 
   10812        1            0        1e-09 
   10813        1            0        1e-09 
   10814        1            0        1e-09 
   10815        1            0        1e-09 
   10816        1            0        1e-09 
   10817        1            0        1e-09 
   10818        1            0        1e-09 
   10819        1            0        1e-09 
   10820        1            0        1e-09 
   10821        1            0        1e-09 
   10822        1            0        1e-09 
   10823        1            0        1e-09 
   10824        1            0        1e-09 
   10825        1            0        1e-09 
   10826        1            0        1e-09 
   10827        1            0        1e-09 
   10828        1            0        1e-09 
   10829        1            0        1e-09 
   10830        1            0        1e-09 
   10831        1            0        1e-09 
   10832        1            0        1e-09 
   10833        1            0        1e-09 
   10834        1            0        1e-09 
   10835        1            0        1e-09 
   10836        1            0        1e-09 
   10837        1            0        1e-09 
   10838        1            0        1e-09 
   10839        1            0        1e-09 
   10840        1            0        1e-09 
   10841        1            0        1e-09 
   10842        1            0        1e-09 
   10843        1            0        1e-09 
   10844        1            0        1e-09 
   10845        1            0        1e-09 
   10846        1            0        1e-09 
   10847        1            0        1e-09 
   10848        1            0        1e-09 
   10849        1            0        1e-09 
   10850        1            0        1e-09 
   10851        1            0        1e-09 
   10852        1            0        1e-09 
   10853        1            0        1e-09 
   10854        1            0        1e-09 
   10855        1            0        1e-09 
   10856        1            0        1e-09 
   10857        1            0        1e-09 
   10858        1            0        1e-09 
   10859        1            0        1e-09 
   10860        1            0        1e-09 
   10861        1            0        1e-09 
   10862        1            0        1e-09 
   10863        1            0        1e-09 
   10864        1            0        1e-09 
   10865        1            0        1e-09 
   10866        1            0        1e-09 
   10867        1            0        1e-09 
   10868        1            0        1e-09 
   10869        1            0        1e-09 
   10870        1            0        1e-09 
   10871        1            0        1e-09 
   10872        1            0        1e-09 
   10873        1            0        1e-09 
   10874        1            0        1e-09 
   10875        1            0        1e-09 
   10876        1            0        1e-09 
   10877        1            0        1e-09 
   10878        1            0        1e-09 
   10879        1            0        1e-09 
   10880        1            0        1e-09 
   10881        1            0        1e-09 
   10882        1            0        1e-09 
   10883        1            0        1e-09 
   10884        1            0        1e-09 
   10885        1            0        1e-09 
   10886        1            0        1e-09 
   10887        1            0        1e-09 
   10888        1            0        1e-09 
   10889        1            0        1e-09 
   10890        1            0        1e-09 
   10891        1            0        1e-09 
   10892        1            0        1e-09 
   10893        1            0        1e-09 
   10894        1            0        1e-09 
   10895        1            0        1e-09 
   10896        1            0        1e-09 
   10897        1            0        1e-09 
   10898        1            0        1e-09 
   10899        1            0        1e-09 
   10900        1            0        1e-09 
   10901        1            0        1e-09 
   10902        1            0        1e-09 
   10903        1            0        1e-09 
   10904        1            0        1e-09 
   10905        1            0        1e-09 
   10906        1            0        1e-09 
   10907        1            0        1e-09 
   10908        1            0        1e-09 
   10909        1            0        1e-09 
   10910        1            0        1e-09 
   10911        1            0        1e-09 
   10912        1            0        1e-09 
   10913        1            0        1e-09 
   10914        1            0        1e-09 
   10915        1            0        1e-09 
   10916        1            0        1e-09 
   10917        1            0        1e-09 
   10918        1            0        1e-09 
   10919        1            0        1e-09 
   10920        1            0        1e-09 
   10921        1            0        1e-09 
   10922        1            0        1e-09 
   10923        1            0        1e-09 
   10924        1            0        1e-09 
   10925        1            0        1e-09 
   10926        1            0        1e-09 
   10927        1            0        1e-09 
   10928        1            0        1e-09 
   10929        1            0        1e-09 
   10930        1            0        1e-09 
   10931        1            0        1e-09 
   10932        1            0        1e-09 
   10933        1            0        1e-09 
   10934        1            0        1e-09 
   10935        1            0        1e-09 
   10936        1            0        1e-09 
   10937        1            0        1e-09 
   10938        1            0        1e-09 
   10939        1            0        1e-09 
   10940        1            0        1e-09 
   10941        1            0        1e-09 
   10942        1            0        1e-09 
   10943        1            0        1e-09 
   10944        1            0        1e-09 
   10945        1            0        1e-09 
   10946        1            0        1e-09 
   10947        1            0        1e-09 
   10948        1            0        1e-09 
   10949        1            0        1e-09 
   10950        1            0        1e-09 
   10951        1            0        1e-09 
   10952        1            0        1e-09 
   10953        1            0        1e-09 
   10954        1            0        1e-09 
   10955        1            0        1e-09 
   10956        1            0        1e-09 
   10957        1            0        1e-09 
   10958        1            0        1e-09 
   10959        1            0        1e-09 
   10960        1            0        1e-09 
   10961        1            0        1e-09 
   10962        1            0        1e-09 
   10963        1            0        1e-09 
   10964        1            0        1e-09 
   10965        1            0        1e-09 
   10966        1            0        1e-09 
   10967        1            0        1e-09 
   10968        1            0        1e-09 
   10969        1            0        1e-09 
   10970        1            0        1e-09 
   10971        1            0        1e-09 
   10972        1            0        1e-09 
   10973        1            0        1e-09 
   10974        1            0        1e-09 
   10975        1            0        1e-09 
   10976        1            0        1e-09 
   10977        1            0        1e-09 
   10978        1            0        1e-09 
   10979        1            0        1e-09 
   10980        1            0        1e-09 
   10981        1            0        1e-09 
   10982        1            0        1e-09 
   10983        1            0        1e-09 
   10984        1            0        1e-09 
   10985        1            0        1e-09 
   10986        1            0        1e-09 
   10987        1            0        1e-09 
   10988        1            0        1e-09 
   10989        1            0        1e-09 
   10990        1            0        1e-09 
   10991        1            0        1e-09 
   10992        1            0        1e-09 
   10993        1            0        1e-09 
   10994        1            0        1e-09 
   10995        1            0        1e-09 
   10996        1            0        1e-09 
   10997        1            0        1e-09 
   10998        1            0        1e-09 
   10999        1            0        1e-09 
   11000        1            0        1e-09 
   11001        1            0        1e-09 
   11002        1            0        1e-09 
   11003        1            0        1e-09 
   11004        1            0        1e-09 
   11005        1            0        1e-09 
   11006        1            0        1e-09 
   11007        1            0        1e-09 
   11008        1            0        1e-09 
   11009        1            0        1e-09 
   11010        1            0        1e-09 
   11011        1            0        1e-09 
   11012        1            0        1e-09 
   11013        1            0        1e-09 
   11014        1            0        1e-09 
   11015        1            0        1e-09 
   11016        1            0        1e-09 
   11017        1            0        1e-09 
   11018        1            0        1e-09 
   11019        1            0        1e-09 
   11020        1            0        1e-09 
   11021        1            0        1e-09 
   11022        1            0        1e-09 
   11023        1            0        1e-09 
   11024        1            0        1e-09 
   11025        1            0        1e-09 
   11026        1            0        1e-09 
   11027        1            0        1e-09 
   11028        1            0        1e-09 
   11029        1            0        1e-09 
   11030        1            0        1e-09 
   11031        1            0        1e-09 
   11032        1            0        1e-09 
   11033        1            0        1e-09 
   11034        1            0        1e-09 
   11035        1            0        1e-09 
   11036        1            0        1e-09 
   11037        1            0        1e-09 
   11038        1            0        1e-09 
   11039        1            0        1e-09 
   11040        1            0        1e-09 
   11041        1            0        1e-09 
   11042        1            0        1e-09 
   11043        1            0        1e-09 
   11044        1            0        1e-09 
   11045        1            0        1e-09 
   11046        1            0        1e-09 
   11047        1            0        1e-09 
   11048        1            0        1e-09 
   11049        1            0        1e-09 
   11050        1            0        1e-09 
   11051        1            0        1e-09 
   11052        1            0        1e-09 
   11053        1            0        1e-09 
   11054        1            0        1e-09 
   11055        1            0        1e-09 
   11056        1            0        1e-09 
   11057        1            0        1e-09 
   11058        1            0        1e-09 
   11059        1            0        1e-09 
   11060        1            0        1e-09 
   11061        1            0        1e-09 
   11062        1            0        1e-09 
   11063        1            0        1e-09 
   11064        1            0        1e-09 
   11065        1            0        1e-09 
   11066        1            0        1e-09 
   11067        1            0        1e-09 
   11068        1            0        1e-09 
   11069        1            0        1e-09 
   11070        1            0        1e-09 
   11071        1            0        1e-09 
   11072        1            0        1e-09 
   11073        1            0        1e-09 
   11074        1            0        1e-09 
   11075        1            0        1e-09 
   11076        1            0        1e-09 
   11077        1            0        1e-09 
   11078        1            0        1e-09 
   11079        1            0        1e-09 
   11080        1            0        1e-09 
   11081        1            0        1e-09 
   11082        1            0        1e-09 
   11083        1            0        1e-09 
   11084        1            0        1e-09 
   11085        1            0        1e-09 
   11086        1            0        1e-09 
   11087        1            0        1e-09 
   11088        1            0        1e-09 
   11089        1            0        1e-09 
   11090        1            0        1e-09 
   11091        1            0        1e-09 
   11092        1            0        1e-09 
   11093        1            0        1e-09 
   11094        1            0        1e-09 
   11095        1            0        1e-09 
   11096        1            0        1e-09 
   11097        1            0        1e-09 
   11098        1            0        1e-09 
   11099        1            0        1e-09 
   11100        1            0        1e-09 
   11101        1            0        1e-09 
   11102        1            0        1e-09 
   11103        1            0        1e-09 
   11104        1            0        1e-09 
   11105        1            0        1e-09 
   11106        1            0        1e-09 
   11107        1            0        1e-09 
   11108        1            0        1e-09 
   11109        1            0        1e-09 
   11110        1            0        1e-09 
   11111        1            0        1e-09 
   11112        1            0        1e-09 
   11113        1            0        1e-09 
   11114        1            0        1e-09 
   11115        1            0        1e-09 
   11116        1            0        1e-09 
   11117        1            0        1e-09 
   11118        1            0        1e-09 
   11119        1            0        1e-09 
   11120        1            0        1e-09 
   11121        1            0        1e-09 
   11122        1            0        1e-09 
   11123        1            0        1e-09 
   11124        1            0        1e-09 
   11125        1            0        1e-09 
   11126        1            0        1e-09 
   11127        1            0        1e-09 
   11128        1            0        1e-09 
   11129        1            0        1e-09 
   11130        1            0        1e-09 
   11131        1            0        1e-09 
   11132        1            0        1e-09 
   11133        1            0        1e-09 
   11134        1            0        1e-09 
   11135        1            0        1e-09 
   11136        1            0        1e-09 
   11137        1            0        1e-09 
   11138        1            0        1e-09 
   11139        1            0        1e-09 
   11140        1            0        1e-09 
   11141        1            0        1e-09 
   11142        1            0        1e-09 
   11143        1            0        1e-09 
   11144        1            0        1e-09 
   11145        1            0        1e-09 
   11146        1            0        1e-09 
ERROR: Lost atoms: original 1 current 0 (../thermo.cpp:392)
