LAMMPS (1 Feb 2014)

atom_style	bio
#atom_modify map hash
atom_modify map array sort 1 0.5
boundary	pp pp pp
newton		off
#comm_modify     vel yes
communicate     single vel yes

#units si

read_data 	ICnorm.in
  orthogonal box = (0 0 0) to (100 100 100)
  1 by 1 by 1 MPI processor grid
  reading atoms ...
  1 atoms
#read_data 	IC350_2.in

neighbor       0.1 bin
neigh_modify delay 0 every 1 check yes page 500000 one 50000

#neigh_modify   delay 0


group ch1 type 1
1 atoms in group ch1

#fix		garv all gravity 10.0 spherical 0.0 -180.0

#region		slab block 0.0 20 0.0 20.0 0.0 20.0
#fix		ins all pour 10000 1 300719000 region slab

pair_style      gran/hooke/history 2000.0 NULL 50.0 NULL 0.5 0
pair_coeff      * *

#Defining affinity variables: list from Jaya
variable KsHET equal 0.01
variable Ko2HET equal 0.81
variable Kno2HET equal 0.0003
variable Kno3HET equal 0.0003

variable Knh4AOB equal 0.001
variable Ko2AOB equal 0.0005

variable Kno2NOB equal 0.0013
variable Ko2NOB equal 0.00068


#Defining maximum growth variables: list from Jaya
variable MumHET equal 0.00006944444
variable MumAOB equal 0.00003472222
variable MumNOB equal 0.00003472222
variable etaHET equal 0.6

#Defining decay rates variables: list from Jaya
variable bHET equal 0.00000462962
variable bAOB equal 0.00000127314
variable bNOB equal 0.00000127314
variable bEPS equal 0.00000196759

#variable rate1 equal 0.001
fix g1 ch1 nugrowth 10000 v_KsHET v_Ko2HET v_Kno2HET v_Kno3HET v_Knh4AOB v_Ko2AOB v_Kno2NOB v_Ko2NOB v_MumHET v_MumAOB v_MumNOB v_etaHET v_bHET v_bAOB v_bNOB v_bEPS
#fix d1 ch1 divide 1 0.99 195244365346

timestep	1e-2
fix		1 all nve/sphere
dump		id all custom 1000000 snapshot2.bubblemd id type diameter x y z vx vy vz
#dump		id all custom 1 snapshot2.bubblemd id type diameter x y z fx fy fz

thermo_style    custom step atoms ke vol

thermo		100000
thermo_modify	lost error

run 500000000
Memory usage per processor = 56.8183 Mbytes
Step Atoms KinEng Volume 
       0        1            0      1000000 
  100000        1            0      1000000 
  200000        1            0      1000000 
  300000        1            0      1000000 
  400000        1            0      1000000 
  500000        1            0      1000000 
  600000        1            0      1000000 
  700000        1            0      1000000 
  800000        1            0      1000000 
  900000        1            0      1000000 
 1000000        1            0      1000000 
 1100000        1            0      1000000 
 1200000        1            0      1000000 
 1300000        1            0      1000000 
 1400000        1            0      1000000 
 1500000        1            0      1000000 
 1600000        1            0      1000000 
 1700000        1            0      1000000 
 1800000        1            0      1000000 
 1900000        1            0      1000000 
 2000000        1            0      1000000 
 2100000        1            0      1000000 
 2200000        1            0      1000000 
 2300000        1            0      1000000 
 2400000        1            0      1000000 
 2500000        1            0      1000000 
 2600000        1            0      1000000 
 2700000        1            0      1000000 
 2800000        1            0      1000000 
 2900000        1            0      1000000 
 3000000        1            0      1000000 
 3100000        1            0      1000000 
 3200000        1            0      1000000 
 3300000        1            0      1000000 
 3400000        1            0      1000000 
 3500000        1            0      1000000 
 3600000        1            0      1000000 
 3700000        1            0      1000000 
 3800000        1            0      1000000 
 3900000        1            0      1000000 
 4000000        1            0      1000000 
 4100000        1            0      1000000 
 4200000        1            0      1000000 
 4300000        1            0      1000000 
 4400000        1            0      1000000 
 4500000        1            0      1000000 
 4600000        1            0      1000000 
 4700000        1            0      1000000 
 4800000        1            0      1000000 
 4900000        1            0      1000000 
 5000000        1            0      1000000 
 5100000        1            0      1000000 
 5200000        1            0      1000000 
 5300000        1            0      1000000 
 5400000        1            0      1000000 
 5500000        1            0      1000000 
 5600000        1            0      1000000 
 5700000        1            0      1000000 
 5800000        1            0      1000000 
 5900000        1            0      1000000 
 6000000        1            0      1000000 
 6100000        1            0      1000000 
 6200000        1            0      1000000 
 6300000        1            0      1000000 
 6400000        1            0      1000000 
 6500000        1            0      1000000 
 6600000        1            0      1000000 
 6700000        1            0      1000000 
 6800000        1            0      1000000 
 6900000        1            0      1000000 
 7000000        1            0      1000000 
 7100000        1            0      1000000 
 7200000        1            0      1000000 
 7300000        1            0      1000000 
 7400000        1            0      1000000 
 7500000        1            0      1000000 
 7600000        1            0      1000000 
 7700000        1            0      1000000 
 7800000        1            0      1000000 
 7900000        1            0      1000000 
 8000000        1            0      1000000 
 8100000        1            0      1000000 
 8200000        1            0      1000000 
 8300000        1            0      1000000 
 8400000        1            0      1000000 
 8500000        1            0      1000000 
 8600000        1            0      1000000 
 8700000        1            0      1000000 
 8800000        1            0      1000000 
 8900000        1            0      1000000 
 9000000        1            0      1000000 
 9100000        1            0      1000000 
 9200000        1            0      1000000 
 9300000        1            0      1000000 
 9400000        1            0      1000000 
 9500000        1            0      1000000 
 9600000        1            0      1000000 
 9700000        1            0      1000000 
 9800000        1            0      1000000 
 9900000        1            0      1000000 
10000000        1            0      1000000 
10100000        1            0      1000000 
10200000        1            0      1000000 
10300000        1            0      1000000 
10400000        1            0      1000000 
10500000        1            0      1000000 
10600000        1            0      1000000 
10700000        1            0      1000000 
10800000        1            0      1000000 
10900000        1            0      1000000 
11000000        1            0      1000000 
11100000        1            0      1000000 
11200000        1            0      1000000 
11300000        1            0      1000000 
11400000        1            0      1000000 
11500000        1            0      1000000 
11600000        1            0      1000000 
11700000        1            0      1000000 
11800000        1            0      1000000 
11900000        1            0      1000000 
12000000        1            0      1000000 
12100000        1            0      1000000 
12200000        1            0      1000000 
12300000        1            0      1000000 
12400000        1            0      1000000 
12500000        1            0      1000000 
12600000        1            0      1000000 
12700000        1            0      1000000 
12800000        1            0      1000000 
12900000        1            0      1000000 
13000000        1            0      1000000 
13100000        1            0      1000000 
13200000        1            0      1000000 
13300000        1            0      1000000 
13400000        1            0      1000000 
13500000        1            0      1000000 
13600000        1            0      1000000 
13700000        1            0      1000000 
13800000        1            0      1000000 
13900000        1            0      1000000 
14000000        1            0      1000000 
14100000        1            0      1000000 
14200000        1            0      1000000 
14300000        1            0      1000000 
14400000        1            0      1000000 
14500000        1            0      1000000 
14600000        1            0      1000000 
14700000        1            0      1000000 
14800000        1            0      1000000 
14900000        1            0      1000000 
15000000        1            0      1000000 
15100000        1            0      1000000 
15200000        1            0      1000000 
15300000        1            0      1000000 
15400000        1            0      1000000 
15500000        1            0      1000000 
15600000        1            0      1000000 
15700000        1            0      1000000 
15800000        1            0      1000000 
15900000        1            0      1000000 
16000000        1            0      1000000 
16100000        1            0      1000000 
16200000        1            0      1000000 
16300000        1            0      1000000 
16400000        1            0      1000000 
16500000        1            0      1000000 
16600000        1            0      1000000 
16700000        1            0      1000000 
16800000        1            0      1000000 
16900000        1            0      1000000 
17000000        1            0      1000000 
17100000        1            0      1000000 
17200000        1            0      1000000 
17300000        1            0      1000000 
17400000        1            0      1000000 
17500000        1            0      1000000 
17600000        1            0      1000000 
17700000        1            0      1000000 
17800000        1            0      1000000 
17900000        1            0      1000000 
18000000        1            0      1000000 
18100000        1            0      1000000 
18200000        1            0      1000000 
18300000        1            0      1000000 
18400000        1            0      1000000 
18500000        1            0      1000000 
18600000        1            0      1000000 
18700000        1            0      1000000 
18800000        1            0      1000000 
18900000        1            0      1000000 
19000000        1            0      1000000 
19100000        1            0      1000000 
19200000        1            0      1000000 
19300000        1            0      1000000 
19400000        1            0      1000000 
19500000        1            0      1000000 
19600000        1            0      1000000 
19700000        1            0      1000000 
19800000        1            0      1000000 
19900000        1            0      1000000 
20000000        1            0      1000000 
20100000        1            0      1000000 
20200000        1            0      1000000 
20300000        1            0      1000000 
20400000        1            0      1000000 
20500000        1            0      1000000 
20600000        1            0      1000000 
20700000        1            0      1000000 
20800000        1            0      1000000 
20900000        1            0      1000000 
21000000        1            0      1000000 
21100000        1            0      1000000 
21200000        1            0      1000000 
21300000        1            0      1000000 
21400000        1            0      1000000 
21500000        1            0      1000000 
21600000        1            0      1000000 
21700000        1            0      1000000 
21800000        1            0      1000000 
21900000        1            0      1000000 
22000000        1            0      1000000 
22100000        1            0      1000000 
22200000        1            0      1000000 
22300000        1            0      1000000 
22400000        1            0      1000000 
22500000        1            0      1000000 
22600000        1            0      1000000 
22700000        1            0      1000000 
22800000        1            0      1000000 
22900000        1            0      1000000 
23000000        1            0      1000000 
23100000        1            0      1000000 
23200000        1            0      1000000 
23300000        1            0      1000000 
23400000        1            0      1000000 
23500000        1            0      1000000 
23600000        1            0      1000000 
23700000        1            0      1000000 
23800000        1            0      1000000 
23900000        1            0      1000000 
24000000        1            0      1000000 
24100000        1            0      1000000 
24200000        1            0      1000000 
24300000        1            0      1000000 
24400000        1            0      1000000 
24500000        1            0      1000000 
24600000        1            0      1000000 
24700000        1            0      1000000 
24800000        1            0      1000000 
24900000        1            0      1000000 
25000000        1            0      1000000 
25100000        1            0      1000000 
25200000        1            0      1000000 
25300000        1            0      1000000 
25400000        1            0      1000000 
25500000        1            0      1000000 
25600000        1            0      1000000 
25700000        1            0      1000000 
25800000        1            0      1000000 
25900000        1            0      1000000 
26000000        1            0      1000000 
26100000        1            0      1000000 
26200000        1            0      1000000 
26300000        1            0      1000000 
26400000        1            0      1000000 
26500000        1            0      1000000 
26600000        1            0      1000000 
26700000        1            0      1000000 
26800000        1            0      1000000 
26900000        1            0      1000000 
27000000        1            0      1000000 
27100000        1            0      1000000 
27200000        1            0      1000000 
27300000        1            0      1000000 
27400000        1            0      1000000 
27500000        1            0      1000000 
27600000        1            0      1000000 
27700000        1            0      1000000 
27800000        1            0      1000000 
27900000        1            0      1000000 
28000000        1            0      1000000 
28100000        1            0      1000000 
28200000        1            0      1000000 
28300000        1            0      1000000 
28400000        1            0      1000000 
28500000        1            0      1000000 
28600000        1            0      1000000 
28700000        1            0      1000000 
28800000        1            0      1000000 
28900000        1            0      1000000 
29000000        1            0      1000000 
29100000        1            0      1000000 
29200000        1            0      1000000 
29300000        1            0      1000000 
29400000        1            0      1000000 
29500000        1            0      1000000 
29600000        1            0      1000000 
29700000        1            0      1000000 
29800000        1            0      1000000 
29900000        1            0      1000000 
30000000        1            0      1000000 
30100000        1            0      1000000 
30200000        1            0      1000000 
30300000        1            0      1000000 
30400000        1            0      1000000 
30500000        1            0      1000000 
30600000        1            0      1000000 
30700000        1            0      1000000 
30800000        1            0      1000000 
30900000        1            0      1000000 
31000000        1            0      1000000 
31100000        1            0      1000000 
31200000        1            0      1000000 
31300000        1            0      1000000 
31400000        1            0      1000000 
31500000        1            0      1000000 
31600000        1            0      1000000 
31700000        1            0      1000000 
31800000        1            0      1000000 
31900000        1            0      1000000 
32000000        1            0      1000000 
32100000        1            0      1000000 
32200000        1            0      1000000 
32300000        1            0      1000000 
32400000        1            0      1000000 
32500000        1            0      1000000 
32600000        1            0      1000000 
32700000        1            0      1000000 
32800000        1            0      1000000 
32900000        1            0      1000000 
33000000        1            0      1000000 
33100000        1            0      1000000 
33200000        1            0      1000000 
33300000        1            0      1000000 
33400000        1            0      1000000 
33500000        1            0      1000000 
33600000        1            0      1000000 
33700000        1            0      1000000 
33800000        1            0      1000000 
33900000        1            0      1000000 
34000000        1            0      1000000 
34100000        1            0      1000000 
34200000        1            0      1000000 
34300000        1            0      1000000 
34400000        1            0      1000000 
34500000        1            0      1000000 
34600000        1            0      1000000 
34700000        1            0      1000000 
34800000        1            0      1000000 
34900000        1            0      1000000 
35000000        1            0      1000000 
35100000        1            0      1000000 
35200000        1            0      1000000 
35300000        1            0      1000000 
35400000        1            0      1000000 
35500000        1            0      1000000 
35600000        1            0      1000000 
35700000        1            0      1000000 
35800000        1            0      1000000 
35900000        1            0      1000000 
36000000        1            0      1000000 
36100000        1            0      1000000 
36200000        1            0      1000000 
36300000        1            0      1000000 
36400000        1            0      1000000 
36500000        1            0      1000000 
36600000        1            0      1000000 
36700000        1            0      1000000 
36800000        1            0      1000000 
36900000        1            0      1000000 
37000000        1            0      1000000 
37100000        1            0      1000000 
37200000        1            0      1000000 
37300000        1            0      1000000 
37400000        1            0      1000000 
37500000        1            0      1000000 
37600000        1            0      1000000 
37700000        1            0      1000000 
37800000        1            0      1000000 
37900000        1            0      1000000 
38000000        1            0      1000000 
38100000        1            0      1000000 
38200000        1            0      1000000 
38300000        1            0      1000000 
38400000        1            0      1000000 
38500000        1            0      1000000 
38600000        1            0      1000000 
38700000        1            0      1000000 
38800000        1            0      1000000 
38900000        1            0      1000000 
39000000        1            0      1000000 
39100000        1            0      1000000 
39200000        1            0      1000000 
39300000        1            0      1000000 
39400000        1            0      1000000 
39500000        1            0      1000000 
39600000        1            0      1000000 
39700000        1            0      1000000 
39800000        1            0      1000000 
39900000        1            0      1000000 
40000000        1            0      1000000 
40100000        1            0      1000000 
40200000        1            0      1000000 
40300000        1            0      1000000 
40400000        1            0      1000000 
40500000        1            0      1000000 
40600000        1            0      1000000 
40700000        1            0      1000000 
40800000        1            0      1000000 
40900000        1            0      1000000 
41000000        1            0      1000000 
41100000        1            0      1000000 
41200000        1            0      1000000 
41300000        1            0      1000000 
41400000        1            0      1000000 
41500000        1            0      1000000 
41600000        1            0      1000000 
41700000        1            0      1000000 
41800000        1            0      1000000 
41900000        1            0      1000000 
42000000        1            0      1000000 
42100000        1            0      1000000 
42200000        1            0      1000000 
42300000        1            0      1000000 
42400000        1            0      1000000 
42500000        1            0      1000000 
42600000        1            0      1000000 
42700000        1            0      1000000 
42800000        1            0      1000000 
42900000        1            0      1000000 
43000000        1            0      1000000 
43100000        1            0      1000000 
43200000        1            0      1000000 
43300000        1            0      1000000 
43400000        1            0      1000000 
43500000        1            0      1000000 
43600000        1            0      1000000 
43700000        1            0      1000000 
43800000        1            0      1000000 
43900000        1            0      1000000 
44000000        1            0      1000000 
44100000        1            0      1000000 
44200000        1            0      1000000 
44300000        1            0      1000000 
44400000        1            0      1000000 
44500000        1            0      1000000 
44600000        1            0      1000000 
44700000        1            0      1000000 
44800000        1            0      1000000 
44900000        1            0      1000000 
45000000        1            0      1000000 
45100000        1            0      1000000 
45200000        1            0      1000000 
45300000        1            0      1000000 
45400000        1            0      1000000 
45500000        1            0      1000000 
45600000        1            0      1000000 
45700000        1            0      1000000 
45800000        1            0      1000000 
45900000        1            0      1000000 
46000000        1            0      1000000 
46100000        1            0      1000000 
46200000        1            0      1000000 
46300000        1            0      1000000 
46400000        1            0      1000000 
46500000        1            0      1000000 
46600000        1            0      1000000 
46700000        1            0      1000000 
46800000        1            0      1000000 
46900000        1            0      1000000 
47000000        1            0      1000000 
47100000        1            0      1000000 
47200000        1            0      1000000 
47300000        1            0      1000000 
47400000        1            0      1000000 
47500000        1            0      1000000 
47600000        1            0      1000000 
47700000        1            0      1000000 
47800000        1            0      1000000 
47900000        1            0      1000000 
48000000        1            0      1000000 
48100000        1            0      1000000 
48200000        1            0      1000000 
48300000        1            0      1000000 
48400000        1            0      1000000 
48500000        1            0      1000000 
48600000        1            0      1000000 
48700000        1            0      1000000 
48800000        1            0      1000000 
48900000        1            0      1000000 
49000000        1            0      1000000 
49100000        1            0      1000000 
49200000        1            0      1000000 
49300000        1            0      1000000 
49400000        1            0      1000000 
49500000        1            0      1000000 
49600000        1            0      1000000 
49700000        1            0      1000000 
49800000        1            0      1000000 
49900000        1            0      1000000 
50000000        1            0      1000000 
50100000        1            0      1000000 
50200000        1            0      1000000 
50300000        1            0      1000000 
50400000        1            0      1000000 
50500000        1            0      1000000 
50600000        1            0      1000000 
50700000        1            0      1000000 
50800000        1            0      1000000 
50900000        1            0      1000000 
51000000        1            0      1000000 
51100000        1            0      1000000 
51200000        1            0      1000000 
51300000        1            0      1000000 
51400000        1            0      1000000 
51500000        1            0      1000000 
51600000        1            0      1000000 
51700000        1            0      1000000 
51800000        1            0      1000000 
51900000        1            0      1000000 
52000000        1            0      1000000 
52100000        1            0      1000000 
52200000        1            0      1000000 
52300000        1            0      1000000 
52400000        1            0      1000000 
52500000        1            0      1000000 
52600000        1            0      1000000 
52700000        1            0      1000000 
52800000        1            0      1000000 
52900000        1            0      1000000 
53000000        1            0      1000000 
53100000        1            0      1000000 
53200000        1            0      1000000 
53300000        1            0      1000000 
53400000        1            0      1000000 
53500000        1            0      1000000 
53600000        1            0      1000000 
53700000        1            0      1000000 
53800000        1            0      1000000 
53900000        1            0      1000000 
54000000        1            0      1000000 
54100000        1            0      1000000 
54200000        1            0      1000000 
54300000        1            0      1000000 
54400000        1            0      1000000 
54500000        1            0      1000000 
54600000        1            0      1000000 
54700000        1            0      1000000 
54800000        1            0      1000000 
54900000        1            0      1000000 
55000000        1            0      1000000 
55100000        1            0      1000000 
55200000        1            0      1000000 
55300000        1            0      1000000 
55400000        1            0      1000000 
55500000        1            0      1000000 
55600000        1            0      1000000 
55700000        1            0      1000000 
55800000        1            0      1000000 
55900000        1            0      1000000 
56000000        1            0      1000000 
56100000        1            0      1000000 
56200000        1            0      1000000 
56300000        1            0      1000000 
56400000        1            0      1000000 
56500000        1            0      1000000 
56600000        1            0      1000000 
56700000        1            0      1000000 
56800000        1            0      1000000 
56900000        1            0      1000000 
57000000        1            0      1000000 
57100000        1            0      1000000 
57200000        1            0      1000000 
57300000        1            0      1000000 
57400000        1            0      1000000 
57500000        1            0      1000000 
57600000        1            0      1000000 
57700000        1            0      1000000 
57800000        1            0      1000000 
57900000        1            0      1000000 
58000000        1            0      1000000 
58100000        1            0      1000000 
58200000        1            0      1000000 
58300000        1            0      1000000 
58400000        1            0      1000000 
58500000        1            0      1000000 
58600000        1            0      1000000 
58700000        1            0      1000000 
58800000        1            0      1000000 
58900000        1            0      1000000 
59000000        1            0      1000000 
59100000        1            0      1000000 
59200000        1            0      1000000 
59300000        1            0      1000000 
59400000        1            0      1000000 
59500000        1            0      1000000 
59600000        1            0      1000000 
59700000        1            0      1000000 
59800000        1            0      1000000 
59900000        1            0      1000000 
60000000        1            0      1000000 
60100000        1            0      1000000 
60200000        1            0      1000000 
60300000        1            0      1000000 
60400000        1            0      1000000 
60500000        1            0      1000000 
60600000        1            0      1000000 
60700000        1            0      1000000 
60800000        1            0      1000000 
60900000        1            0      1000000 
61000000        1            0      1000000 
61100000        1            0      1000000 
61200000        1            0      1000000 
61300000        1            0      1000000 
61400000        1            0      1000000 
61500000        1            0      1000000 
61600000        1            0      1000000 
61700000        1            0      1000000 
61800000        1            0      1000000 
61900000        1            0      1000000 
62000000        1            0      1000000 
62100000        1            0      1000000 
62200000        1            0      1000000 
62300000        1            0      1000000 
62400000        1            0      1000000 
62500000        1            0      1000000 
62600000        1            0      1000000 
62700000        1            0      1000000 
62800000        1            0      1000000 
62900000        1            0      1000000 
63000000        1            0      1000000 
63100000        1            0      1000000 
63200000        1            0      1000000 
63300000        1            0      1000000 
63400000        1            0      1000000 
63500000        1            0      1000000 
63600000        1            0      1000000 
63700000        1            0      1000000 
63800000        1            0      1000000 
63900000        1            0      1000000 
64000000        1            0      1000000 
64100000        1            0      1000000 
64200000        1            0      1000000 
64300000        1            0      1000000 
64400000        1            0      1000000 
64500000        1            0      1000000 
64600000        1            0      1000000 
64700000        1            0      1000000 
64800000        1            0      1000000 
64900000        1            0      1000000 
65000000        1            0      1000000 
65100000        1            0      1000000 
65200000        1            0      1000000 
65300000        1            0      1000000 
65400000        1            0      1000000 
65500000        1            0      1000000 
65600000        1            0      1000000 
65700000        1            0      1000000 
65800000        1            0      1000000 
65900000        1            0      1000000 
66000000        1            0      1000000 
66100000        1            0      1000000 
66200000        1            0      1000000 
66300000        1            0      1000000 
66400000        1            0      1000000 
66500000        1            0      1000000 
66600000        1            0      1000000 
66700000        1            0      1000000 
66800000        1            0      1000000 
66900000        1            0      1000000 
67000000        1            0      1000000 
67100000        1            0      1000000 
67200000        1            0      1000000 
67300000        1            0      1000000 
67400000        1            0      1000000 
67500000        1            0      1000000 
67600000        1            0      1000000 
67700000        1            0      1000000 
67800000        1            0      1000000 
67900000        1            0      1000000 
68000000        1            0      1000000 
68100000        1            0      1000000 
68200000        1            0      1000000 
68300000        1            0      1000000 
68400000        1            0      1000000 
68500000        1            0      1000000 
68600000        1            0      1000000 
68700000        1            0      1000000 
68800000        1            0      1000000 
68900000        1            0      1000000 
69000000        1            0      1000000 
69100000        1            0      1000000 
69200000        1            0      1000000 
69300000        1            0      1000000 
69400000        1            0      1000000 
69500000        1            0      1000000 
69600000        1            0      1000000 
69700000        1            0      1000000 
69800000        1            0      1000000 
69900000        1            0      1000000 
70000000        1            0      1000000 
70100000        1            0      1000000 
70200000        1            0      1000000 
70300000        1            0      1000000 
70400000        1            0      1000000 
70500000        1            0      1000000 
70600000        1            0      1000000 
70700000        1            0      1000000 
70800000        1            0      1000000 
70900000        1            0      1000000 
71000000        1            0      1000000 
71100000        1            0      1000000 
71200000        1            0      1000000 
71300000        1            0      1000000 
71400000        1            0      1000000 
71500000        1            0      1000000 
71600000        1            0      1000000 
71700000        1            0      1000000 
71800000        1            0      1000000 
71900000        1            0      1000000 
72000000        1            0      1000000 
72100000        1            0      1000000 
72200000        1            0      1000000 
72300000        1            0      1000000 
72400000        1            0      1000000 
72500000        1            0      1000000 
72600000        1            0      1000000 
72700000        1            0      1000000 
72800000        1            0      1000000 
72900000        1            0      1000000 
73000000        1            0      1000000 
73100000        1            0      1000000 
73200000        1            0      1000000 
73300000        1            0      1000000 
73400000        1            0      1000000 
73500000        1            0      1000000 
73600000        1            0      1000000 
73700000        1            0      1000000 
73800000        1            0      1000000 
73900000        1            0      1000000 
74000000        1            0      1000000 
74100000        1            0      1000000 
74200000        1            0      1000000 
74300000        1            0      1000000 
74400000        1            0      1000000 
74500000        1            0      1000000 
74600000        1            0      1000000 
74700000        1            0      1000000 
74800000        1            0      1000000 
74900000        1            0      1000000 
75000000        1            0      1000000 
75100000        1            0      1000000 
75200000        1            0      1000000 
75300000        1            0      1000000 
75400000        1            0      1000000 
75500000        1            0      1000000 
75600000        1            0      1000000 
75700000        1            0      1000000 
75800000        1            0      1000000 
75900000        1            0      1000000 
76000000        1            0      1000000 
76100000        1            0      1000000 
76200000        1            0      1000000 
76300000        1            0      1000000 
76400000        1            0      1000000 
76500000        1            0      1000000 
76600000        1            0      1000000 
76700000        1            0      1000000 
76800000        1            0      1000000 
76900000        1            0      1000000 
77000000        1            0      1000000 
77100000        1            0      1000000 
77200000        1            0      1000000 
77300000        1            0      1000000 
77400000        1            0      1000000 
77500000        1            0      1000000 
77600000        1            0      1000000 
77700000        1            0      1000000 
77800000        1            0      1000000 
77900000        1            0      1000000 
78000000        1            0      1000000 
78100000        1            0      1000000 
78200000        1            0      1000000 
78300000        1            0      1000000 
78400000        1            0      1000000 
78500000        1            0      1000000 
78600000        1            0      1000000 
78700000        1            0      1000000 
78800000        1            0      1000000 
78900000        1            0      1000000 
79000000        1            0      1000000 
79100000        1            0      1000000 
79200000        1            0      1000000 
79300000        1            0      1000000 
79400000        1            0      1000000 
79500000        1            0      1000000 
79600000        1            0      1000000 
79700000        1            0      1000000 
79800000        1            0      1000000 
79900000        1            0      1000000 
80000000        1            0      1000000 
80100000        1            0      1000000 
80200000        1            0      1000000 
80300000        1            0      1000000 
80400000        1            0      1000000 
80500000        1            0      1000000 
80600000        1            0      1000000 
80700000        1            0      1000000 
80800000        1            0      1000000 
80900000        1            0      1000000 
81000000        1            0      1000000 
81100000        1            0      1000000 
81200000        1            0      1000000 
81300000        1            0      1000000 
81400000        1            0      1000000 
81500000        1            0      1000000 
81600000        1            0      1000000 
81700000        1            0      1000000 
81800000        1            0      1000000 
81900000        1            0      1000000 
82000000        1            0      1000000 
82100000        1            0      1000000 
82200000        1            0      1000000 
82300000        1            0      1000000 
82400000        1            0      1000000 
82500000        1            0      1000000 
82600000        1            0      1000000 
82700000        1            0      1000000 
82800000        1            0      1000000 
82900000        1            0      1000000 
83000000        1            0      1000000 
83100000        1            0      1000000 
83200000        1            0      1000000 
83300000        1            0      1000000 
83400000        1            0      1000000 
83500000        1            0      1000000 
83600000        1            0      1000000 
83700000        1            0      1000000 
83800000        1            0      1000000 
83900000        1            0      1000000 
84000000        1            0      1000000 
84100000        1            0      1000000 
84200000        1            0      1000000 
84300000        1            0      1000000 
84400000        1            0      1000000 
84500000        1            0      1000000 
84600000        1            0      1000000 
84700000        1            0      1000000 
84800000        1            0      1000000 
84900000        1            0      1000000 
85000000        1            0      1000000 
85100000        1            0      1000000 
85200000        1            0      1000000 
85300000        1            0      1000000 
85400000        1            0      1000000 
85500000        1            0      1000000 
85600000        1            0      1000000 
85700000        1            0      1000000 
85800000        1            0      1000000 
85900000        1            0      1000000 
86000000        1            0      1000000 
86100000        1            0      1000000 
86200000        1            0      1000000 
86300000        1            0      1000000 
86400000        1            0      1000000 
86500000        1            0      1000000 
86600000        1            0      1000000 
86700000        1            0      1000000 
86800000        1            0      1000000 
86900000        1            0      1000000 
87000000        1            0      1000000 
87100000        1            0      1000000 
87200000        1            0      1000000 
87300000        1            0      1000000 
87400000        1            0      1000000 
87500000        1            0      1000000 
87600000        1            0      1000000 
87700000        1            0      1000000 
87800000        1            0      1000000 
87900000        1            0      1000000 
88000000        1            0      1000000 
88100000        1            0      1000000 
88200000        1            0      1000000 
88300000        1            0      1000000 
88400000        1            0      1000000 
88500000        1            0      1000000 
88600000        1            0      1000000 
88700000        1            0      1000000 
88800000        1            0      1000000 
88900000        1            0      1000000 
89000000        1            0      1000000 
89100000        1            0      1000000 
89200000        1            0      1000000 
89300000        1            0      1000000 
89400000        1            0      1000000 
89500000        1            0      1000000 
89600000        1            0      1000000 
89700000        1            0      1000000 
89800000        1            0      1000000 
89900000        1            0      1000000 
90000000        1            0      1000000 
90100000        1            0      1000000 
90200000        1            0      1000000 
90300000        1            0      1000000 
90400000        1            0      1000000 
90500000        1            0      1000000 
90600000        1            0      1000000 
90700000        1            0      1000000 
90800000        1            0      1000000 
90900000        1            0      1000000 
91000000        1            0      1000000 
91100000        1            0      1000000 
91200000        1            0      1000000 
91300000        1            0      1000000 
91400000        1            0      1000000 
91500000        1            0      1000000 
91600000        1            0      1000000 
91700000        1            0      1000000 
91800000        1            0      1000000 
91900000        1            0      1000000 
92000000        1            0      1000000 
92100000        1            0      1000000 
92200000        1            0      1000000 
92300000        1            0      1000000 
92400000        1            0      1000000 
92500000        1            0      1000000 
92600000        1            0      1000000 
92700000        1            0      1000000 
92800000        1            0      1000000 
92900000        1            0      1000000 
93000000        1            0      1000000 
93100000        1            0      1000000 
93200000        1            0      1000000 
93300000        1            0      1000000 
93400000        1            0      1000000 
93500000        1            0      1000000 
93600000        1            0      1000000 
93700000        1            0      1000000 
93800000        1            0      1000000 
93900000        1            0      1000000 
94000000        1            0      1000000 
94100000        1            0      1000000 
94200000        1            0      1000000 
94300000        1            0      1000000 
94400000        1            0      1000000 
94500000        1            0      1000000 
94600000        1            0      1000000 
94700000        1            0      1000000 
94800000        1            0      1000000 
94900000        1            0      1000000 
95000000        1            0      1000000 
95100000        1            0      1000000 
95200000        1            0      1000000 
95300000        1            0      1000000 
95400000        1            0      1000000 
95500000        1            0      1000000 
95600000        1            0      1000000 
95700000        1            0      1000000 
95800000        1            0      1000000 
95900000        1            0      1000000 
96000000        1            0      1000000 
96100000        1            0      1000000 
96200000        1            0      1000000 
96300000        1            0      1000000 
96400000        1            0      1000000 
96500000        1            0      1000000 
96600000        1            0      1000000 
96700000        1            0      1000000 
96800000        1            0      1000000 
96900000        1            0      1000000 
97000000        1            0      1000000 
97100000        1            0      1000000 
97200000        1            0      1000000 
97300000        1            0      1000000 
97400000        1            0      1000000 
97500000        1            0      1000000 
97600000        1            0      1000000 
97700000        1            0      1000000 
97800000        1            0      1000000 
97900000        1            0      1000000 
98000000        1            0      1000000 
98100000        1            0      1000000 
98200000        1            0      1000000 
98300000        1            0      1000000 
98400000        1            0      1000000 
98500000        1            0      1000000 
98600000        1            0      1000000 
98700000        1            0      1000000 
98800000        1            0      1000000 
98900000        1            0      1000000 
99000000        1            0      1000000 
99100000        1            0      1000000 
99200000        1            0      1000000 
99300000        1            0      1000000 
99400000        1            0      1000000 
99500000        1            0      1000000 
99600000        1            0      1000000 
99700000        1            0      1000000 
99800000        1            0      1000000 
99900000        1            0      1000000 
100000000        1            0      1000000 
100100000        1            0      1000000 
100200000        1            0      1000000 
100300000        1            0      1000000 
100400000        1            0      1000000 
100500000        1            0      1000000 
100600000        1            0      1000000 
100700000        1            0      1000000 
100800000        1            0      1000000 
100900000        1            0      1000000 
101000000        1            0      1000000 
101100000        1            0      1000000 
101200000        1            0      1000000 
101300000        1            0      1000000 
101400000        1            0      1000000 
101500000        1            0      1000000 
101600000        1            0      1000000 
101700000        1            0      1000000 
101800000        1            0      1000000 
101900000        1            0      1000000 
102000000        1            0      1000000 
102100000        1            0      1000000 
102200000        1            0      1000000 
102300000        1            0      1000000 
102400000        1            0      1000000 
102500000        1            0      1000000 
102600000        1            0      1000000 
102700000        1            0      1000000 
102800000        1            0      1000000 
102900000        1            0      1000000 
103000000        1            0      1000000 
103100000        1            0      1000000 
103200000        1            0      1000000 
103300000        1            0      1000000 
103400000        1            0      1000000 
103500000        1            0      1000000 
103600000        1            0      1000000 
103700000        1            0      1000000 
103800000        1            0      1000000 
103900000        1            0      1000000 
104000000        1            0      1000000 
104100000        1            0      1000000 
104200000        1            0      1000000 
104300000        1            0      1000000 
104400000        1            0      1000000 
104500000        1            0      1000000 
104600000        1            0      1000000 
104700000        1            0      1000000 
104800000        1            0      1000000 
104900000        1            0      1000000 
105000000        1            0      1000000 
105100000        1            0      1000000 
105200000        1            0      1000000 
105300000        1            0      1000000 
105400000        1            0      1000000 
105500000        1            0      1000000 
105600000        1            0      1000000 
105700000        1            0      1000000 
105800000        1            0      1000000 
105900000        1            0      1000000 
106000000        1            0      1000000 
106100000        1            0      1000000 
106200000        1            0      1000000 
106300000        1            0      1000000 
106400000        1            0      1000000 
106500000        1            0      1000000 
106600000        1            0      1000000 
106700000        1            0      1000000 
106800000        1            0      1000000 
106900000        1            0      1000000 
107000000        1            0      1000000 
107100000        1            0      1000000 
107200000        1            0      1000000 
107300000        1            0      1000000 
107400000        1            0      1000000 
107500000        1            0      1000000 
107600000        1            0      1000000 
107700000        1            0      1000000 
107800000        1            0      1000000 
107900000        1            0      1000000 
108000000        1            0      1000000 
108100000        1            0      1000000 
108200000        1            0      1000000 
108300000        1            0      1000000 
108400000        1            0      1000000 
108500000        1            0      1000000 
108600000        1            0      1000000 
108700000        1            0      1000000 
108800000        1            0      1000000 
108900000        1            0      1000000 
109000000        1            0      1000000 
109100000        1            0      1000000 
109200000        1            0      1000000 
109300000        1            0      1000000 
109400000        1            0      1000000 
109500000        1            0      1000000 
109600000        1            0      1000000 
109700000        1            0      1000000 
109800000        1            0      1000000 
109900000        1            0      1000000 
110000000        1            0      1000000 
110100000        1            0      1000000 
110200000        1            0      1000000 
110300000        1            0      1000000 
110400000        1            0      1000000 
110500000        1            0      1000000 
110600000        1            0      1000000 
110700000        1            0      1000000 
110800000        1            0      1000000 
110900000        1            0      1000000 
111000000        1            0      1000000 
111100000        1            0      1000000 
111200000        1            0      1000000 
111300000        1            0      1000000 
111400000        1            0      1000000 
111500000        1            0      1000000 
111600000        1            0      1000000 
111700000        1            0      1000000 
111800000        1            0      1000000 
111900000        1            0      1000000 
112000000        1            0      1000000 
112100000        1            0      1000000 
112200000        1            0      1000000 
112300000        1            0      1000000 
112400000        1            0      1000000 
112500000        1            0      1000000 
112600000        1            0      1000000 
112700000        1            0      1000000 
112800000        1            0      1000000 
112900000        1            0      1000000 
113000000        1            0      1000000 
113100000        1            0      1000000 
113200000        1            0      1000000 
113300000        1            0      1000000 
113400000        1            0      1000000 
113500000        1            0      1000000 
113600000        1            0      1000000 
113700000        1            0      1000000 
113800000        1            0      1000000 
113900000        1            0      1000000 
114000000        1            0      1000000 
114100000        1            0      1000000 
114200000        1            0      1000000 
114300000        1            0      1000000 
114400000        1            0      1000000 
114500000        1            0      1000000 
114600000        1            0      1000000 
114700000        1            0      1000000 
114800000        1            0      1000000 
114900000        1            0      1000000 
115000000        1            0      1000000 
115100000        1            0      1000000 
115200000        1            0      1000000 
115300000        1            0      1000000 
115400000        1            0      1000000 
115500000        1            0      1000000 
115600000        1            0      1000000 
115700000        1            0      1000000 
115800000        1            0      1000000 
115900000        1            0      1000000 
116000000        1            0      1000000 
116100000        1            0      1000000 
116200000        1            0      1000000 
116300000        1            0      1000000 
116400000        1            0      1000000 
116500000        1            0      1000000 
116600000        1            0      1000000 
116700000        1            0      1000000 
116800000        1            0      1000000 
116900000        1            0      1000000 
117000000        1            0      1000000 
117100000        1            0      1000000 
117200000        1            0      1000000 
117300000        1            0      1000000 
117400000        1            0      1000000 
117500000        1            0      1000000 
117600000        1            0      1000000 
117700000        1            0      1000000 
117800000        1            0      1000000 
117900000        1            0      1000000 
118000000        1            0      1000000 
118100000        1            0      1000000 
118200000        1            0      1000000 
118300000        1            0      1000000 
118400000        1            0      1000000 
118500000        1            0      1000000 
118600000        1            0      1000000 
118700000        1            0      1000000 
118800000        1            0      1000000 
118900000        1            0      1000000 
119000000        1            0      1000000 
119100000        1            0      1000000 
119200000        1            0      1000000 
119300000        1            0      1000000 
119400000        1            0      1000000 
119500000        1            0      1000000 
119600000        1            0      1000000 
119700000        1            0      1000000 
119800000        1            0      1000000 
119900000        1            0      1000000 
120000000        1            0      1000000 
120100000        1            0      1000000 
120200000        1            0      1000000 
120300000        1            0      1000000 
120400000        1            0      1000000 
120500000        1            0      1000000 
120600000        1            0      1000000 
120700000        1            0      1000000 
120800000        1            0      1000000 
120900000        1            0      1000000 
121000000        1            0      1000000 
121100000        1            0      1000000 
121200000        1            0      1000000 
121300000        1            0      1000000 
121400000        1            0      1000000 
121500000        1            0      1000000 
121600000        1            0      1000000 
121700000        1            0      1000000 
121800000        1            0      1000000 
121900000        1            0      1000000 
122000000        1            0      1000000 
122100000        1            0      1000000 
122200000        1            0      1000000 
122300000        1            0      1000000 
122400000        1            0      1000000 
122500000        1            0      1000000 
122600000        1            0      1000000 
122700000        1            0      1000000 
122800000        1            0      1000000 
122900000        1            0      1000000 
123000000        1            0      1000000 
123100000        1            0      1000000 
123200000        1            0      1000000 
123300000        1            0      1000000 
123400000        1            0      1000000 
123500000        1            0      1000000 
123600000        1            0      1000000 
123700000        1            0      1000000 
123800000        1            0      1000000 
123900000        1            0      1000000 
124000000        1            0      1000000 
124100000        1            0      1000000 
124200000        1            0      1000000 
124300000        1            0      1000000 
124400000        1            0      1000000 
124500000        1            0      1000000 
124600000        1            0      1000000 
124700000        1            0      1000000 
124800000        1            0      1000000 
124900000        1            0      1000000 
125000000        1            0      1000000 
125100000        1            0      1000000 
125200000        1            0      1000000 
125300000        1            0      1000000 
125400000        1            0      1000000 
125500000        1            0      1000000 
125600000        1            0      1000000 
125700000        1            0      1000000 
125800000        1            0      1000000 
125900000        1            0      1000000 
126000000        1            0      1000000 
126100000        1            0      1000000 
126200000        1            0      1000000 
126300000        1            0      1000000 
126400000        1            0      1000000 
126500000        1            0      1000000 
126600000        1            0      1000000 
126700000        1            0      1000000 
126800000        1            0      1000000 
126900000        1            0      1000000 
127000000        1            0      1000000 
127100000        1            0      1000000 
127200000        1            0      1000000 
127300000        1            0      1000000 
127400000        1            0      1000000 
127500000        1            0      1000000 
127600000        1            0      1000000 
127700000        1            0      1000000 
127800000        1            0      1000000 
127900000        1            0      1000000 
128000000        1            0      1000000 
128100000        1            0      1000000 
128200000        1            0      1000000 
128300000        1            0      1000000 
128400000        1            0      1000000 
128500000        1            0      1000000 
128600000        1            0      1000000 
128700000        1            0      1000000 
128800000        1            0      1000000 
128900000        1            0      1000000 
129000000        1            0      1000000 
129100000        1            0      1000000 
129200000        1            0      1000000 
129300000        1            0      1000000 
129400000        1            0      1000000 
129500000        1            0      1000000 
129600000        1            0      1000000 
129700000        1            0      1000000 
129800000        1            0      1000000 
129900000        1            0      1000000 
130000000        1            0      1000000 
130100000        1            0      1000000 
130200000        1            0      1000000 
130300000        1            0      1000000 
130400000        1            0      1000000 
130500000        1            0      1000000 
130600000        1            0      1000000 
130700000        1            0      1000000 
130800000        1            0      1000000 
130900000        1            0      1000000 
131000000        1            0      1000000 
131100000        1            0      1000000 
131200000        1            0      1000000 
131300000        1            0      1000000 
131400000        1            0      1000000 
131500000        1            0      1000000 
131600000        1            0      1000000 
131700000        1            0      1000000 
131800000        1            0      1000000 
131900000        1            0      1000000 
132000000        1            0      1000000 
132100000        1            0      1000000 
132200000        1            0      1000000 
132300000        1            0      1000000 
132400000        1            0      1000000 
132500000        1            0      1000000 
132600000        1            0      1000000 
132700000        1            0      1000000 
132800000        1            0      1000000 
132900000        1            0      1000000 
133000000        1            0      1000000 
133100000        1            0      1000000 
133200000        1            0      1000000 
133300000        1            0      1000000 
133400000        1            0      1000000 
133500000        1            0      1000000 
133600000        1            0      1000000 
133700000        1            0      1000000 
133800000        1            0      1000000 
133900000        1            0      1000000 
134000000        1            0      1000000 
134100000        1            0      1000000 
134200000        1            0      1000000 
134300000        1            0      1000000 
134400000        1            0      1000000 
134500000        1            0      1000000 
134600000        1            0      1000000 
134700000        1            0      1000000 
134800000        1            0      1000000 
134900000        1            0      1000000 
135000000        1            0      1000000 
135100000        1            0      1000000 
135200000        1            0      1000000 
135300000        1            0      1000000 
135400000        1            0      1000000 
135500000        1            0      1000000 
135600000        1            0      1000000 
135700000        1            0      1000000 
135800000        1            0      1000000 
135900000        1            0      1000000 
136000000        1            0      1000000 
136100000        1            0      1000000 
136200000        1            0      1000000 
136300000        1            0      1000000 
136400000        1            0      1000000 
136500000        1            0      1000000 
136600000        1            0      1000000 
136700000        1            0      1000000 
136800000        1            0      1000000 
136900000        1            0      1000000 
137000000        1            0      1000000 
137100000        1            0      1000000 
137200000        1            0      1000000 
137300000        1            0      1000000 
137400000        1            0      1000000 
137500000        1            0      1000000 
137600000        1            0      1000000 
137700000        1            0      1000000 
137800000        1            0      1000000 
137900000        1            0      1000000 
138000000        1            0      1000000 
138100000        1            0      1000000 
138200000        1            0      1000000 
138300000        1            0      1000000 
138400000        1            0      1000000 
138500000        1            0      1000000 
138600000        1            0      1000000 
138700000        1            0      1000000 
138800000        1            0      1000000 
138900000        1            0      1000000 
139000000        1            0      1000000 
139100000        1            0      1000000 
139200000        1            0      1000000 
139300000        1            0      1000000 
139400000        1            0      1000000 
139500000        1            0      1000000 
139600000        1            0      1000000 
139700000        1            0      1000000 
139800000        1            0      1000000 
139900000        1            0      1000000 
140000000        1            0      1000000 
140100000        1            0      1000000 
140200000        1            0      1000000 
140300000        1            0      1000000 
140400000        1            0      1000000 
140500000        1            0      1000000 
140600000        1            0      1000000 
140700000        1            0      1000000 
140800000        1            0      1000000 
140900000        1            0      1000000 
141000000        1            0      1000000 
141100000        1            0      1000000 
141200000        1            0      1000000 
141300000        1            0      1000000 
141400000        1            0      1000000 
141500000        1            0      1000000 
141600000        1            0      1000000 
141700000        1            0      1000000 
141800000        1            0      1000000 
141900000        1            0      1000000 
142000000        1            0      1000000 
142100000        1            0      1000000 
142200000        1            0      1000000 
142300000        1            0      1000000 
142400000        1            0      1000000 
142500000        1            0      1000000 
142600000        1            0      1000000 
142700000        1            0      1000000 
142800000        1            0      1000000 
142900000        1            0      1000000 
143000000        1            0      1000000 
143100000        1            0      1000000 
143200000        1            0      1000000 
143300000        1            0      1000000 
143400000        1            0      1000000 
143500000        1            0      1000000 
143600000        1            0      1000000 
143700000        1            0      1000000 
143800000        1            0      1000000 
143900000        1            0      1000000 
144000000        1            0      1000000 
144100000        1            0      1000000 
144200000        1            0      1000000 
144300000        1            0      1000000 
144400000        1            0      1000000 
144500000        1            0      1000000 
144600000        1            0      1000000 
144700000        1            0      1000000 
144800000        1            0      1000000 
144900000        1            0      1000000 
145000000        1            0      1000000 
145100000        1            0      1000000 
145200000        1            0      1000000 
145300000        1            0      1000000 
145400000        1            0      1000000 
145500000        1            0      1000000 
145600000        1            0      1000000 
145700000        1            0      1000000 
145800000        1            0      1000000 
145900000        1            0      1000000 
146000000        1            0      1000000 
146100000        1            0      1000000 
146200000        1            0      1000000 
146300000        1            0      1000000 
146400000        1            0      1000000 
146500000        1            0      1000000 
146600000        1            0      1000000 
146700000        1            0      1000000 
146800000        1            0      1000000 
146900000        1            0      1000000 
147000000        1            0      1000000 
147100000        1            0      1000000 
147200000        1            0      1000000 
147300000        1            0      1000000 
147400000        1            0      1000000 
147500000        1            0      1000000 
147600000        1            0      1000000 
147700000        1            0      1000000 
147800000        1            0      1000000 
147900000        1            0      1000000 
148000000        1            0      1000000 
148100000        1            0      1000000 
148200000        1            0      1000000 
148300000        1            0      1000000 
148400000        1            0      1000000 
148500000        1            0      1000000 
148600000        1            0      1000000 
148700000        1            0      1000000 
148800000        1            0      1000000 
148900000        1            0      1000000 
149000000        1            0      1000000 
149100000        1            0      1000000 
149200000        1            0      1000000 
149300000        1            0      1000000 
149400000        1            0      1000000 
149500000        1            0      1000000 
149600000        1            0      1000000 
149700000        1            0      1000000 
149800000        1            0      1000000 
149900000        1            0      1000000 
150000000        1            0      1000000 
150100000        1            0      1000000 
150200000        1            0      1000000 
150300000        1            0      1000000 
150400000        1            0      1000000 
150500000        1            0      1000000 
150600000        1            0      1000000 
150700000        1            0      1000000 
150800000        1            0      1000000 
150900000        1            0      1000000 
151000000        1            0      1000000 
151100000        1            0      1000000 
151200000        1            0      1000000 
151300000        1            0      1000000 
151400000        1            0      1000000 
151500000        1            0      1000000 
151600000        1            0      1000000 
151700000        1            0      1000000 
151800000        1            0      1000000 
151900000        1            0      1000000 
152000000        1            0      1000000 
152100000        1            0      1000000 
152200000        1            0      1000000 
152300000        1            0      1000000 
152400000        1            0      1000000 
152500000        1            0      1000000 
152600000        1            0      1000000 
152700000        1            0      1000000 
152800000        1            0      1000000 
152900000        1            0      1000000 
153000000        1            0      1000000 
153100000        1            0      1000000 
153200000        1            0      1000000 
153300000        1            0      1000000 
153400000        1            0      1000000 
153500000        1            0      1000000 
153600000        1            0      1000000 
153700000        1            0      1000000 
153800000        1            0      1000000 
153900000        1            0      1000000 
154000000        1            0      1000000 
154100000        1            0      1000000 
154200000        1            0      1000000 
154300000        1            0      1000000 
154400000        1            0      1000000 
154500000        1            0      1000000 
154600000        1            0      1000000 
154700000        1            0      1000000 
154800000        1            0      1000000 
154900000        1            0      1000000 
155000000        1            0      1000000 
155100000        1            0      1000000 
155200000        1            0      1000000 
155300000        1            0      1000000 
155400000        1            0      1000000 
155500000        1            0      1000000 
155600000        1            0      1000000 
155700000        1            0      1000000 
155800000        1            0      1000000 
155900000        1            0      1000000 
156000000        1            0      1000000 
156100000        1            0      1000000 
156200000        1            0      1000000 
156300000        1            0      1000000 
156400000        1            0      1000000 
156500000        1            0      1000000 
156600000        1            0      1000000 
156700000        1            0      1000000 
156800000        1            0      1000000 
156900000        1            0      1000000 
157000000        1            0      1000000 
157100000        1            0      1000000 
157200000        1            0      1000000 
157300000        1            0      1000000 
157400000        1            0      1000000 
157500000        1            0      1000000 
157600000        1            0      1000000 
157700000        1            0      1000000 
157800000        1            0      1000000 
157900000        1            0      1000000 
158000000        1            0      1000000 
158100000        1            0      1000000 
158200000        1            0      1000000 
158300000        1            0      1000000 
158400000        1            0      1000000 
158500000        1            0      1000000 
158600000        1            0      1000000 
158700000        1            0      1000000 
158800000        1            0      1000000 
158900000        1            0      1000000 
159000000        1            0      1000000 
159100000        1            0      1000000 
159200000        1            0      1000000 
159300000        1            0      1000000 
159400000        1            0      1000000 
159500000        1            0      1000000 
159600000        1            0      1000000 
159700000        1            0      1000000 
159800000        1            0      1000000 
159900000        1            0      1000000 
160000000        1            0      1000000 
160100000        1            0      1000000 
160200000        1            0      1000000 
160300000        1            0      1000000 
160400000        1            0      1000000 
160500000        1            0      1000000 
160600000        1            0      1000000 
160700000        1            0      1000000 
160800000        1            0      1000000 
160900000        1            0      1000000 
161000000        1            0      1000000 
161100000        1            0      1000000 
161200000        1            0      1000000 
161300000        1            0      1000000 
161400000        1            0      1000000 
161500000        1            0      1000000 
161600000        1            0      1000000 
161700000        1            0      1000000 
161800000        1            0      1000000 
161900000        1            0      1000000 
162000000        1            0      1000000 
162100000        1            0      1000000 
162200000        1            0      1000000 
162300000        1            0      1000000 
162400000        1            0      1000000 
162500000        1            0      1000000 
162600000        1            0      1000000 
162700000        1            0      1000000 
162800000        1            0      1000000 
162900000        1            0      1000000 
163000000        1            0      1000000 
163100000        1            0      1000000 
163200000        1            0      1000000 
163300000        1            0      1000000 
163400000        1            0      1000000 
163500000        1            0      1000000 
163600000        1            0      1000000 
163700000        1            0      1000000 
163800000        1            0      1000000 
163900000        1            0      1000000 
164000000        1            0      1000000 
164100000        1            0      1000000 
164200000        1            0      1000000 
164300000        1            0      1000000 
164400000        1            0      1000000 
164500000        1            0      1000000 
164600000        1            0      1000000 
164700000        1            0      1000000 
164800000        1            0      1000000 
164900000        1            0      1000000 
165000000        1            0      1000000 
165100000        1            0      1000000 
165200000        1            0      1000000 
165300000        1            0      1000000 
165400000        1            0      1000000 
165500000        1            0      1000000 
165600000        1            0      1000000 
165700000        1            0      1000000 
165800000        1            0      1000000 
165900000        1            0      1000000 
166000000        1            0      1000000 
166100000        1            0      1000000 
166200000        1            0      1000000 
166300000        1            0      1000000 
166400000        1            0      1000000 
166500000        1            0      1000000 
166600000        1            0      1000000 
166700000        1            0      1000000 
166800000        1            0      1000000 
166900000        1            0      1000000 
167000000        1            0      1000000 
167100000        1            0      1000000 
167200000        1            0      1000000 
167300000        1            0      1000000 
167400000        1            0      1000000 
167500000        1            0      1000000 
167600000        1            0      1000000 
167700000        1            0      1000000 
167800000        1            0      1000000 
167900000        1            0      1000000 
168000000        1            0      1000000 
168100000        1            0      1000000 
168200000        1            0      1000000 
168300000        1            0      1000000 
168400000        1            0      1000000 
168500000        1            0      1000000 
168600000        1            0      1000000 
168700000        1            0      1000000 
168800000        1            0      1000000 
168900000        1            0      1000000 
169000000        1            0      1000000 
169100000        1            0      1000000 
169200000        1            0      1000000 
169300000        1            0      1000000 
169400000        1            0      1000000 
169500000        1            0      1000000 
169600000        1            0      1000000 
169700000        1            0      1000000 
169800000        1            0      1000000 
169900000        1            0      1000000 
170000000        1            0      1000000 
170100000        1            0      1000000 
170200000        1            0      1000000 
170300000        1            0      1000000 
170400000        1            0      1000000 
170500000        1            0      1000000 
170600000        1            0      1000000 
170700000        1            0      1000000 
170800000        1            0      1000000 
170900000        1            0      1000000 
171000000        1            0      1000000 
171100000        1            0      1000000 
171200000        1            0      1000000 
171300000        1            0      1000000 
171400000        1            0      1000000 
171500000        1            0      1000000 
171600000        1            0      1000000 
171700000        1            0      1000000 
[...]
457800000        1            0      1000000 
457900000        1            0      1000000 
458000000        1            0      1000000 
458100000        1            0      1000000 
458200000        1            0      1000000 
458300000        1            0      1000000 
458400000        1            0      1000000 
458500000        1            0      1000000 
458600000        1            0      1000000 
458700000        1            0      1000000 
458800000        1            0      1000000 
458900000        1            0      1000000 
459000000        1            0      1000000 
459100000        1            0      1000000 
459200000        1            0      1000000 
459300000        1            0      1000000 
459400000        1            0      1000000 
459500000        1            0      1000000 
459600000        1            0      1000000 
459700000        1            0      1000000 
459800000        1            0      1000000 
459900000        1            0      1000000 
460000000        1            0      1000000 
460100000        1            0      1000000 
460200000        1            0      1000000 
460300000        1            0      1000000 
460400000        1            0      1000000 
460500000        1            0      1000000 
460600000        1            0      1000000 
460700000        1            0      1000000 
460800000        1            0      1000000 
460900000        1            0      1000000 
461000000        1            0      1000000 
461100000        1            0      1000000 
461200000        1            0      1000000 
461300000        1            0      1000000 
461400000        1            0      1000000 
461500000        1            0      1000000 
461600000        1            0      1000000 
461700000        1            0      1000000 
461800000        1            0      1000000 
461900000        1            0      1000000 
462000000        1            0      1000000 
462100000        1            0      1000000 
462200000        1            0      1000000 
462300000        1            0      1000000 
462400000        1            0      1000000 
462500000        1            0      1000000 
462600000        1            0      1000000 
462700000        1            0      1000000 
462800000        1            0      1000000 
462900000        1            0      1000000 
463000000        1            0      1000000 
463100000        1            0      1000000 
463200000        1            0      1000000 
463300000        1            0      1000000 
463400000        1            0      1000000 
463500000        1            0      1000000 
463600000        1            0      1000000 
463700000        1            0      1000000 
463800000        1            0      1000000 
463900000        1            0      1000000 
464000000        1            0      1000000 
464100000        1            0      1000000 
464200000        1            0      1000000 
464300000        1            0      1000000 
464400000        1            0      1000000 
464500000        1            0      1000000 
464600000        1            0      1000000 
464700000        1            0      1000000 
464800000        1            0      1000000 
464900000        1            0      1000000 
465000000        1            0      1000000 
465100000        1            0      1000000 
465200000        1            0      1000000 
465300000        1            0      1000000 
465400000        1            0      1000000 
465500000        1            0      1000000 
465600000        1            0      1000000 
465700000        1            0      1000000 
465800000        1            0      1000000 
465900000        1            0      1000000 
466000000        1            0      1000000 
466100000        1            0      1000000 
466200000        1            0      1000000 
466300000        1            0      1000000 
466400000        1            0      1000000 
466500000        1            0      1000000 
466600000        1            0      1000000 
466700000        1            0      1000000 
466800000        1            0      1000000 
466900000        1            0      1000000 
467000000        1            0      1000000 
467100000        1            0      1000000 
467200000        1            0      1000000 
467300000        1            0      1000000 
467400000        1            0      1000000 
467500000        1            0      1000000 
467600000        1            0      1000000 
467700000        1            0      1000000 
467800000        1            0      1000000 
467900000        1            0      1000000 
468000000        1            0      1000000 
468100000        1            0      1000000 
468200000        1            0      1000000 
468300000        1            0      1000000 
468400000        1            0      1000000 
468500000        1            0      1000000 
468600000        1            0      1000000 
468700000        1            0      1000000 
468800000        1            0      1000000 
468900000        1            0      1000000 
469000000        1            0      1000000 
469100000        1            0      1000000 
469200000        1            0      1000000 
469300000        1            0      1000000 
469400000        1            0      1000000 
469500000        1            0      1000000 
469600000        1            0      1000000 
469700000        1            0      1000000 
469800000        1            0      1000000 
469900000        1            0      1000000 
470000000        1            0      1000000 
470100000        1            0      1000000 
470200000        1            0      1000000 
470300000        1            0      1000000 
470400000        1            0      1000000 
470500000        1            0      1000000 
470600000        1            0      1000000 
470700000        1            0      1000000 
470800000        1            0      1000000 
470900000        1            0      1000000 
471000000        1            0      1000000 
471100000        1            0      1000000 
471200000        1            0      1000000 
471300000        1            0      1000000 
471400000        1            0      1000000 
471500000        1            0      1000000 
471600000        1            0      1000000 
471700000        1            0      1000000 
471800000        1            0      1000000 
471900000        1            0      1000000 
472000000        1            0      1000000 
472100000        1            0      1000000 
472200000        1            0      1000000 
472300000        1            0      1000000 
472400000        1            0      1000000 
472500000        1            0      1000000 
472600000        1            0      1000000 
472700000        1            0      1000000 
472800000        1            0      1000000 
472900000        1            0      1000000 
473000000        1            0      1000000 
473100000        1            0      1000000 
473200000        1            0      1000000 
473300000        1            0      1000000 
473400000        1            0      1000000 
473500000        1            0      1000000 
473600000        1            0      1000000 
473700000        1            0      1000000 
473800000        1            0      1000000 
473900000        1            0      1000000 
474000000        1            0      1000000 
474100000        1            0      1000000 
474200000        1            0      1000000 
474300000        1            0      1000000 
474400000        1            0      1000000 
474500000        1            0      1000000 
474600000        1            0      1000000 
474700000        1            0      1000000 
474800000        1            0      1000000 
474900000        1            0      1000000 
475000000        1            0      1000000 
475100000        1            0      1000000 
475200000        1            0      1000000 
475300000        1            0      1000000 
475400000        1            0      1000000 
475500000        1            0      1000000 
475600000        1            0      1000000 
475700000        1            0      1000000 
475800000        1            0      1000000 
475900000        1            0      1000000 
476000000        1            0      1000000 
476100000        1            0      1000000 
476200000        1            0      1000000 
476300000        1            0      1000000 
476400000        1            0      1000000 
476500000        1            0      1000000 
476600000        1            0      1000000 
476700000        1            0      1000000 
476800000        1            0      1000000 
476900000        1            0      1000000 
477000000        1            0      1000000 
477100000        1            0      1000000 
477200000        1            0      1000000 
477300000        1            0      1000000 
477400000        1            0      1000000 
477500000        1            0      1000000 
477600000        1            0      1000000 
477700000        1            0      1000000 
477800000        1            0      1000000 
477900000        1            0      1000000 
478000000        1            0      1000000 
478100000        1            0      1000000 
478200000        1            0      1000000 
478300000        1            0      1000000 
478400000        1            0      1000000 
478500000        1            0      1000000 
478600000        1            0      1000000 
478700000        1            0      1000000 
478800000        1            0      1000000 
478900000        1            0      1000000 
479000000        1            0      1000000 
479100000        1            0      1000000 
479200000        1            0      1000000 
479300000        1            0      1000000 
479400000        1            0      1000000 
479500000        1            0      1000000 
479600000        1            0      1000000 
479700000        1            0      1000000 
479800000        1            0      1000000 
479900000        1            0      1000000 
480000000        1            0      1000000 
480100000        1            0      1000000 
480200000        1            0      1000000 
480300000        1            0      1000000 
480400000        1            0      1000000 
480500000        1            0      1000000 
480600000        1            0      1000000 
480700000        1            0      1000000 
480800000        1            0      1000000 
480900000        1            0      1000000 
481000000        1            0      1000000 
481100000        1            0      1000000 
481200000        1            0      1000000 
481300000        1            0      1000000 
481400000        1            0      1000000 
481500000        1            0      1000000 
481600000        1            0      1000000 
481700000        1            0      1000000 
481800000        1            0      1000000 
481900000        1            0      1000000 
482000000        1            0      1000000 
482100000        1            0      1000000 
482200000        1            0      1000000 
482300000        1            0      1000000 
482400000        1            0      1000000 
482500000        1            0      1000000 
482600000        1            0      1000000 
482700000        1            0      1000000 
482800000        1            0      1000000 
482900000        1            0      1000000 
483000000        1            0      1000000 
483100000        1            0      1000000 
483200000        1            0      1000000 
483300000        1            0      1000000 
483400000        1            0      1000000 
483500000        1            0      1000000 
483600000        1            0      1000000 
483700000        1            0      1000000 
483800000        1            0      1000000 
483900000        1            0      1000000 
484000000        1            0      1000000 
484100000        1            0      1000000 
484200000        1            0      1000000 
484300000        1            0      1000000 
484400000        1            0      1000000 
484500000        1            0      1000000 
484600000        1            0      1000000 
484700000        1            0      1000000 
484800000        1            0      1000000 
484900000        1            0      1000000 
485000000        1            0      1000000 
485100000        1            0      1000000 
485200000        1            0      1000000 
485300000        1            0      1000000 
485400000        1            0      1000000 
485500000        1            0      1000000 
485600000        1            0      1000000 
485700000        1            0      1000000 
485800000        1            0      1000000 
485900000        1            0      1000000 
486000000        1            0      1000000 
486100000        1            0      1000000 
486200000        1            0      1000000 
486300000        1            0      1000000 
486400000        1            0      1000000 
486500000        1            0      1000000 
486600000        1            0      1000000 
486700000        1            0      1000000 
486800000        1            0      1000000 
486900000        1            0      1000000 
487000000        1            0      1000000 
487100000        1            0      1000000 
487200000        1            0      1000000 
487300000        1            0      1000000 
487400000        1            0      1000000 
487500000        1            0      1000000 
487600000        1            0      1000000 
487700000        1            0      1000000 
487800000        1            0      1000000 
487900000        1            0      1000000 
488000000        1            0      1000000 
488100000        1            0      1000000 
488200000        1            0      1000000 
488300000        1            0      1000000 
488400000        1            0      1000000 
488500000        1            0      1000000 
488600000        1            0      1000000 
488700000        1            0      1000000 
488800000        1            0      1000000 
488900000        1            0      1000000 
489000000        1            0      1000000 
489100000        1            0      1000000 
489200000        1            0      1000000 
489300000        1            0      1000000 
489400000        1            0      1000000 
489500000        1            0      1000000 
489600000        1            0      1000000 
489700000        1            0      1000000 
489800000        1            0      1000000 
489900000        1            0      1000000 
490000000        1            0      1000000 
490100000        1            0      1000000 
490200000        1            0      1000000 
490300000        1            0      1000000 
490400000        1            0      1000000 
490500000        1            0      1000000 
490600000        1            0      1000000 
490700000        1            0      1000000 
490800000        1            0      1000000 
490900000        1            0      1000000 
491000000        1            0      1000000 
491100000        1            0      1000000 
491200000        1            0      1000000 
491300000        1            0      1000000 
491400000        1            0      1000000 
491500000        1            0      1000000 
491600000        1            0      1000000 
491700000        1            0      1000000 
491800000        1            0      1000000 
491900000        1            0      1000000 
492000000        1            0      1000000 
492100000        1            0      1000000 
492200000        1            0      1000000 
492300000        1            0      1000000 
492400000        1            0      1000000 
492500000        1            0      1000000 
492600000        1            0      1000000 
492700000        1            0      1000000 
492800000        1            0      1000000 
492900000        1            0      1000000 
493000000        1            0      1000000 
493100000        1            0      1000000 
493200000        1            0      1000000 
493300000        1            0      1000000 
493400000        1            0      1000000 
493500000        1            0      1000000 
493600000        1            0      1000000 
493700000        1            0      1000000 
493800000        1            0      1000000 
493900000        1            0      1000000 
494000000        1            0      1000000 
494100000        1            0      1000000 
494200000        1            0      1000000 
494300000        1            0      1000000 
494400000        1            0      1000000 
494500000        1            0      1000000 
494600000        1            0      1000000 
494700000        1            0      1000000 
494800000        1            0      1000000 
494900000        1            0      1000000 
495000000        1            0      1000000 
495100000        1            0      1000000 
495200000        1            0      1000000 
495300000        1            0      1000000 
495400000        1            0      1000000 
495500000        1            0      1000000 
495600000        1            0      1000000 
495700000        1            0      1000000 
495800000        1            0      1000000 
495900000        1            0      1000000 
496000000        1            0      1000000 
496100000        1            0      1000000 
496200000        1            0      1000000 
496300000        1            0      1000000 
496400000        1            0      1000000 
496500000        1            0      1000000 
496600000        1            0      1000000 
496700000        1            0      1000000 
496800000        1            0      1000000 
496900000        1            0      1000000 
497000000        1            0      1000000 
497100000        1            0      1000000 
497200000        1            0      1000000 
497300000        1            0      1000000 
497400000        1            0      1000000 
497500000        1            0      1000000 
497600000        1            0      1000000 
497700000        1            0      1000000 
497800000        1            0      1000000 
497900000        1            0      1000000 
498000000        1            0      1000000 
498100000        1            0      1000000 
498200000        1            0      1000000 
498300000        1            0      1000000 
498400000        1            0      1000000 
498500000        1            0      1000000 
498600000        1            0      1000000 
498700000        1            0      1000000 
498800000        1            0      1000000 
498900000        1            0      1000000 
499000000        1            0      1000000 
499100000        1            0      1000000 
499200000        1            0      1000000 
499300000        1            0      1000000 
499400000        1            0      1000000 
499500000        1            0      1000000 
499600000        1            0      1000000 
499700000        1            0      1000000 
499800000        1            0      1000000 
499900000        1            0      1000000 
500000000        1            0      1000000 
Loop time of 132.615 on 1 procs for 500000000 steps with 1 atoms

Pair  time (%) = 17.6117 (13.2803)
Neigh time (%) = 0 (0)
Comm  time (%) = 41.0841 (30.98)
Outpt time (%) = 0.100472 (0.075762)
Other time (%) = 73.8187 (55.6639)

Nlocal:    1 ave 1 max 1 min
Histogram: 1 0 0 0 0 0 0 0 0 0
Nghost:    0 ave 0 max 0 min
Histogram: 1 0 0 0 0 0 0 0 0 0
Neighs:    0 ave 0 max 0 min
Histogram: 1 0 0 0 0 0 0 0 0 0

Total # of neighbors = 0
Ave neighs/atom = 0
Neighbor list builds = 0
Dangerous builds = 0
