ITEM: TIMESTEP
0
ITEM: NUMBER OF ATOMS
0
ITEM: BOX BOUNDS ff ff pp
0 10
0 10
0 10
ITEM: ATOMS id type diameter mass x y z 
ITEM: TIMESTEP
1000
ITEM: NUMBER OF ATOMS
350
ITEM: BOX BOUNDS ff ff pp
0 10
0 10
0 10
ITEM: ATOMS id type diameter mass x y z 
1 1 0.956056 0.457561 4.31805 9.50944 1.89441 
2 1 0.593777 0.109615 3.66245 3.79438 7.52744 
3 1 0.956487 0.45818 2.86422 3.82615 8.05743 
4 1 0.745253 0.216725 9.50452 6.93125 7.91099 
5 1 0.99543 0.516452 1.90958 8.96003 2.12999 
6 1 0.801644 0.269739 9.55823 9.54973 6.35754 
7 1 0.747533 0.218721 9.45976 7.48089 1.10353 
8 1 0.667185 0.155503 8.97359 2.57957 0.678477 
9 1 0.740549 0.212647 6.26045 1.62942 3.32341 
10 1 0.502462 0.0664216 8.50514 4.57048 9.74237 
11 1 0.76976 0.238817 8.619 1.57642 8.31707 
12 1 0.513017 0.0706959 4.43585 5.02828 9.46351 
13 1 0.600748 0.113521 2.73171 9.32317 8.41417 
14 1 0.855055 0.327326 6.50236 3.60028 2.65689 
15 1 0.650418 0.144071 3.55013 5.97257 4.423 
16 1 0.810192 0.27846 4.32841 6.46929 1.20594 
17 1 0.552708 0.0884067 4.00295 5.60973 9.32401 
18 1 0.921305 0.409458 7.64924 9.53728 1.29175 
19 1 0.842017 0.31258 9.03464 5.19524 4.86128 
20 1 0.875192 0.351002 4.98464 0.616656 7.57455 
21 1 0.833543 0.303237 6.92387 1.7364 9.15055 
22 1 0.773759 0.242558 2.75904 9.04607 0.317436 
23 1 0.577232 0.100705 1.54557 3.69025 8.67555 
24 1 0.618993 0.124181 9.25217 1.21818 6.7853 
25 1 0.821569 0.290356 0.85455 8.60502 0.719572 
26 1 0.73153 0.204972 1.32019 6.49609 5.0943 
27 1 0.721459 0.196623 7.91679 1.11634 2.56537 
28 1 0.655118 0.147217 2.85314 6.79775 5.54674 
29 1 0.977882 0.489619 5.28294 8.32203 5.17619 
30 1 0.927923 0.418345 0.636686 5.32688 1.41087 
31 1 0.868651 0.34319 8.0393 0.564475 4.73663 
32 1 0.717993 0.193802 5.65351 4.28823 2.90142 
33 1 0.687827 0.170387 0.929297 5.26738 8.74173 
34 1 0.833369 0.303048 8.79778 9.31032 0.362312 
35 1 0.994809 0.515488 7.67427 9.42974 7.00954 
36 1 0.88318 0.3607 3.04984 8.36008 9.38267 
37 1 0.784818 0.253107 7.81247 6.49139 7.92814 
38 1 0.595727 0.110698 7.75094 1.29249 3.24445 
39 1 0.654124 0.146548 1.7006 1.01923 1.77258 
40 1 0.618699 0.124004 8.61862 0.92217 4.22132 
41 1 0.711379 0.188495 3.42112 9.22869 8.14161 
42 1 0.646259 0.141325 6.58346 1.06214 3.03515 
43 1 0.693704 0.174792 1.24952 9.47791 9.66514 
44 1 0.775586 0.24428 5.29964 1.54292 9.19532 
45 1 0.639416 0.136883 4.67086 2.88534 4.42712 
46 1 0.954499 0.455329 4.88086 2.4177 3.43116 
47 1 0.635792 0.134569 5.36673 6.44704 7.12459 
48 1 0.774557 0.24331 4.86862 0.597035 5.97403 
49 1 0.940602 0.435729 5.58922 7.27532 2.93384 
50 1 0.939642 0.434396 4.08544 3.64225 5.24373 
51 1 0.615715 0.122219 1.36405 8.61747 8.50868 
52 1 0.996344 0.517878 9.36361 9.25156 2.67624 
53 1 0.724293 0.198949 2.34127 3.92443 0.368698 
54 1 0.518137 0.0728336 8.61128 4.12155 8.23248 
55 1 0.564613 0.0942435 7.54041 6.29321 0.990765 
56 1 0.763658 0.233182 1.13566 5.91218 0.377333 
57 1 0.550769 0.0874798 1.44834 0.549481 8.71068 
58 1 0.938717 0.433115 7.57785 9.31868 3.99499 
59 1 0.978222 0.49013 2.00075 4.2531 9.64335 
60 1 0.892747 0.37255 9.05122 2.87242 9.16236 
61 1 0.725435 0.199891 5.29476 5.31032 7.58696 
62 1 0.959605 0.462674 9.51948 1.19914 5.39542 
63 1 0.526113 0.0762494 9.03544 3.96684 0.822135 
64 1 0.790014 0.258168 5.83716 5.57788 3.02247 
65 1 0.901719 0.383895 1.80138 3.90275 7.93899 
66 1 0.866137 0.340218 4.71585 2.11629 4.68809 
67 1 0.817865 0.286446 9.22087 9.05139 9.66559 
68 1 0.842945 0.313615 5.48943 3.69039 7.84849 
69 1 0.643779 0.139704 7.26317 1.84263 3.2983 
70 1 0.750512 0.221346 8.00688 4.98962 9.39353 
71 1 0.691659 0.173251 0.356924 6.57836 1.78813 
72 1 0.704045 0.182726 6.29781 4.3096 1.03805 
73 1 0.782695 0.251059 9.15552 0.408054 7.50038 
74 1 0.719014 0.194631 9.30382 0.500577 8.77735 
75 1 0.783081 0.251431 7.1548 2.42162 0.354752 
76 1 0.54984 0.0870377 1.92188 3.10714 2.36111 
77 1 0.75329 0.223813 0.698121 1.38007 9.42684 
78 1 0.558605 0.0912667 9.56076 0.631055 4.8711 
79 1 0.539687 0.0823046 2.22845 6.18202 5.15766 
80 1 0.616869 0.122907 3.28565 1.78173 0.427515 
81 1 0.645369 0.140742 3.26433 3.21849 5.72433 
82 1 0.5621 0.0929909 5.11272 6.5726 5.62049 
83 1 0.652033 0.145146 4.37828 2.06177 0.499783 
84 1 0.683052 0.166863 4.52856 3.92595 8.52201 
85 1 0.736227 0.208946 5.6641 5.78014 8.71491 
86 1 0.960049 0.463317 0.603836 1.96931 3.43981 
87 1 0.624106 0.127284 5.34302 7.38797 5.79587 
88 1 0.714467 0.190961 1.62407 9.2736 4.25795 
89 1 0.994117 0.514412 2.0122 1.62336 6.91019 
90 1 0.738951 0.211274 3.1081 5.41215 9.61696 
91 1 0.969492 0.477124 6.70273 0.616789 2.2742 
92 1 0.762824 0.232419 6.23497 8.18391 5.5421 
93 1 0.803222 0.271334 3.92867 0.437591 3.7438 
94 1 0.656393 0.148078 5.47439 3.38799 2.61839 
95 1 0.973231 0.482666 1.44709 1.75938 9.62178 
96 1 0.97747 0.489 6.68083 0.504925 8.21146 
97 1 0.654513 0.146809 1.96534 3.2716 9.43671 
98 1 0.907794 0.391706 8.58693 2.56706 3.58196 
99 1 0.691326 0.173001 0.660879 7.85231 9.58084 
100 1 0.595947 0.110821 0.551922 5.83177 2.80551 
101 1 0.708809 0.18646 8.19522 1.97552 8.87657 
102 1 0.800705 0.268792 5.70541 0.882705 8.68633 
103 1 0.708258 0.186026 2.8663 7.87357 8.47506 
104 1 0.785243 0.253519 6.71424 3.13396 9.85465 
105 1 0.803263 0.271377 7.48089 4.06838 9.27986 
106 1 0.554686 0.0893595 1.27602 7.02183 1.47673 
107 1 0.695459 0.176122 3.32556 1.20097 0.841088 
108 1 0.54344 0.0840336 6.51597 9.02476 3.13033 
109 1 0.535983 0.0806216 1.82095 0.896493 7.90698 
110 1 0.766768 0.236042 0.765703 1.92988 1.13681 
111 1 0.862949 0.336476 4.6682 0.825571 0.175959 
112 1 0.513425 0.0708649 2.86459 6.02672 6.72766 
113 1 0.60011 0.11316 2.68414 1.29353 1.62379 
114 1 0.849192 0.320639 9.19541 1.88612 5.88152 
115 1 0.598297 0.112137 1.89631 8.65848 1.21675 
116 1 0.905589 0.388859 8.70251 1.07358 3.48649 
117 1 0.736836 0.209465 5.66284 1.10513 2.10185 
118 1 0.587667 0.106265 9.5981 1.87444 8.37903 
119 1 0.794141 0.262236 6.24662 0.592534 6.98603 
120 1 0.629037 0.130325 2.69694 2.71646 2.95521 
121 1 0.961811 0.465873 3.05686 6.18998 8.3433 
122 1 0.935725 0.428986 0.534473 1.92333 5.18332 
123 1 0.711179 0.188337 3.6522 6.56989 5.96053 
124 1 0.511447 0.0700487 4.08048 3.00483 0.329022 
125 1 0.839674 0.309977 9.44694 1.84551 3.0926 
126 1 0.539683 0.0823029 4.86017 2.40941 0.303553 
127 1 0.771821 0.24074 3.91808 0.509962 4.69499 
128 1 0.95433 0.455088 5.69054 9.47259 8.41894 
129 1 0.509801 0.0693746 3.92532 8.79181 5.77911 
130 1 0.640722 0.137723 7.37803 3.22821 1.96527 
131 1 0.978163 0.490042 0.499514 6.01225 6.63932 
132 1 0.974488 0.484539 5.47836 1.16781 5.71171 
133 1 0.780361 0.24882 6.2849 7.43943 4.10906 
134 1 0.67349 0.159953 8.20596 7.01949 3.7196 
135 1 0.713192 0.189941 0.521882 2.74081 4.82418 
136 1 0.609949 0.118817 8.7573 9.5991 3.34006 
137 1 0.51234 0.0704164 3.79808 1.77809 0.112133 
138 1 0.605282 0.116111 1.80821 8.51115 7.88035 
139 1 0.663917 0.153229 6.03447 3.49131 5.20815 
140 1 0.763891 0.233395 3.79636 0.553403 7.29691 
141 1 0.565847 0.0948626 3.12114 1.64222 6.50917 
142 1 0.692916 0.174197 7.41596 6.39633 0.0452109 
143 1 0.814193 0.282606 8.89031 4.97455 2.47132 
144 1 0.750411 0.221256 1.54358 9.48216 6.45815 
145 1 0.505343 0.0675705 2.70243 9.71642 3.00069 
146 1 0.732 0.205368 7.1902 0.399271 4.7134 
147 1 0.902252 0.384576 1.59839 8.21496 0.0553751 
148 1 0.953233 0.453519 4.45852 0.475424 1.20392 
149 1 0.946629 0.444158 2.22263 6.41948 1.89094 
150 1 0.964601 0.469939 2.3513 2.98164 6.00216 
151 1 0.646286 0.141343 7.0865 7.32784 2.58476 
152 1 0.601498 0.113946 9.19718 8.86059 8.86587 
153 1 0.65442 0.146747 7.49984 1.88953 1.50071 
154 1 0.922231 0.410693 6.96047 8.38571 9.25196 
155 1 0.945763 0.442941 3.29125 1.6522 2.01034 
156 1 0.645763 0.141 2.22995 0.548134 9.93652 
157 1 0.934919 0.427879 0.810495 3.88201 8.87029 
158 1 0.942598 0.438509 7.39669 0.472474 3.87242 
159 1 0.642462 0.138848 1.41961 8.98421 7.53569 
160 1 0.713406 0.190112 2.10398 6.67344 0.470701 
161 1 0.875106 0.350898 9.43044 2.90055 1.86897 
162 1 0.862859 0.33637 9.29113 0.441538 6.38254 
163 1 0.530016 0.0779589 0.888734 9.6841 0.464598 
164 1 0.932181 0.424131 3.02107 8.89876 1.16812 
165 1 0.916156 0.402631 6.81431 9.12136 5.92972 
166 1 0.646957 0.141783 4.91869 1.74623 0.507275 
167 1 0.685409 0.168596 4.03311 6.34406 7.39725 
168 1 0.744438 0.216016 3.61034 9.42996 4.02835 
169 1 0.899957 0.381648 7.89036 1.46082 6.27816 
170 1 0.615342 0.121997 2.33053 0.871312 4.76749 
171 1 0.663178 0.152718 0.72731 0.371435 1.85743 
172 1 0.553559 0.0888156 4.22335 0.296173 0.329067 
173 1 0.848719 0.320104 9.4634 0.535045 3.73359 
174 1 0.660286 0.150728 9.63821 2.14554 7.60221 
175 1 0.587811 0.106344 4.66812 5.94731 1.68592 
176 1 0.928441 0.419045 0.952152 3.04865 2.82898 
177 1 0.864282 0.338038 7.62935 8.40237 3.47232 
178 1 0.830277 0.299687 6.28409 6.04214 3.86191 
179 1 0.74242 0.214263 8.15769 3.59492 3.94822 
180 1 0.837573 0.307656 0.427161 8.8867 9.93351 
181 1 0.93366 0.426152 5.10011 8.18477 2.65804 
182 1 0.772755 0.241615 5.30153 8.08429 4.04813 
183 1 0.868735 0.34329 7.78627 8.63488 6.26554 
184 1 0.766988 0.236246 0.816298 2.87306 4.12634 
185 1 0.978521 0.490579 4.50198 8.32227 3.49643 
186 1 0.991357 0.510139 6.1982 5.18223 9.29665 
187 1 0.881259 0.358352 1.72777 2.92845 3.46276 
188 1 0.96823 0.475264 1.81982 5.50444 4.17431 
189 1 0.729766 0.203493 6.96896 4.08341 4.51193 
190 1 0.877507 0.353794 6.62544 2.4993 9.33927 
191 1 0.663197 0.152731 7.07664 7.08022 9.37974 
192 1 0.744879 0.2164 5.7256 8.40845 1.11022 
193 1 0.965344 0.471026 0.608311 3.88137 6.51359 
194 1 0.690806 0.172611 6.58354 9.52337 7.04941 
195 1 0.781972 0.250364 2.04203 0.431537 9.19961 
196 1 0.808743 0.276969 6.77613 6.0931 7.6053 
197 1 0.738142 0.210581 9.64388 5.41691 0.458038 
198 1 0.785614 0.253879 6.29189 1.35778 1.72669 
199 1 0.908518 0.392645 8.55242 4.63443 8.78483 
200 1 0.542127 0.0834261 9.48782 8.49094 5.92933 
201 1 0.72833 0.202294 0.920086 0.652795 4.33616 
202 1 0.97406 0.4839 0.624603 7.41711 7.65007 
203 1 0.8102 0.278468 0.522764 0.677168 7.84567 
204 1 0.578316 0.101273 4.97435 3.94279 6.58611 
205 1 0.943228 0.439389 6.39477 8.43629 3.61886 
206 1 0.901672 0.383835 4.71234 6.95464 5.10154 
207 1 0.937803 0.43185 8.88713 4.50975 4.23654 
208 1 0.862092 0.335475 3.66195 2.48432 1.93508 
209 1 0.872455 0.347719 7.98921 5.66369 8.54687 
210 1 0.729544 0.203307 8.13499 8.01167 8.4601 
211 1 0.671554 0.158577 6.2096 7.04748 7.62317 
212 1 0.790422 0.258568 7.93253 8.48559 9.05183 
213 1 0.712828 0.18965 4.74791 1.31438 8.26617 
214 1 0.519511 0.0734145 8.31407 4.5336 6.17331 
215 1 0.718963 0.194589 2.72557 6.60239 4.48734 
216 1 0.993367 0.513249 0.517673 8.37507 5.28697 
217 1 0.556967 0.0904663 4.89926 1.87345 2.36842 
218 1 0.622742 0.126451 2.89657 8.58567 2.96361 
219 1 0.962448 0.466799 7.17846 4.51944 7.13218 
220 1 0.809151 0.277388 8.10505 8.5852 9.86816 
221 1 0.929466 0.420435 4.37629 4.96404 6.87447 
222 1 0.640819 0.137786 4.36561 6.8872 8.82681 
223 1 0.555349 0.0896803 5.08019 2.68447 6.92751 
224 1 0.802244 0.270345 6.52788 7.5107 1.75431 
225 1 0.741205 0.213213 8.81179 6.09261 6.07727 
226 1 0.907096 0.390804 4.39365 9.07178 8.01837 
227 1 0.781918 0.250312 4.40494 4.774 4.34685 
228 1 0.71438 0.190892 3.39785 3.40392 8.6697 
229 1 0.699569 0.179263 4.18023 8.27667 7.80994 
230 1 0.789743 0.257903 4.33985 4.85213 5.31403 
231 1 0.574933 0.0995062 7.69521 7.206 8.29243 
232 1 0.880433 0.357345 9.11389 1.66538 9.47433 
233 1 0.518453 0.072967 2.74403 8.96596 6.52545 
234 1 0.970209 0.478183 0.518134 4.64269 9.36538 
235 1 0.977034 0.488346 4.43978 3.92322 3.34005 
236 1 0.887731 0.366305 2.29434 7.49052 5.16469 
237 1 0.664703 0.153773 5.32218 5.22449 5.96664 
238 1 0.905237 0.388405 6.01528 4.90127 6.42296 
239 1 0.539653 0.0822891 9.49699 1.23558 7.56869 
240 1 0.894635 0.374918 2.12089 3.18426 7.06542 
241 1 0.975018 0.485329 7.18131 9.44539 9.32529 
242 1 0.826676 0.295804 8.4036 3.71961 9.2198 
243 1 0.908706 0.392889 8.11238 5.01921 4.59617 
244 1 0.868037 0.342463 3.91376 5.85806 0.311922 
245 1 0.81285 0.28121 1.2928 5.39034 8.04636 
246 1 0.811995 0.280323 6.12261 2.64599 4.65095 
247 1 0.690478 0.172365 9.00904 2.83935 5.40322 
248 1 0.941708 0.437267 5.35643 7.70016 9.82598 
249 1 0.613562 0.120941 4.9665 7.43416 8.75933 
250 1 0.947433 0.445291 6.26358 8.07882 8.16114 
251 1 0.951488 0.451033 2.64191 3.21892 5.13457 
252 1 0.853592 0.325649 6.53668 5.12099 7.3774 
253 1 0.90111 0.383118 9.14705 2.05242 4.83914 
254 1 0.59476 0.11016 3.23513 8.2985 6.54028 
255 1 0.519029 0.0732107 6.83947 7.19693 1.08489 
256 1 0.561951 0.0929167 4.16883 6.88608 9.51619 
257 1 0.937343 0.431216 7.15083 0.643946 1.27461 
258 1 0.519685 0.0734883 7.37918 4.83949 9.87227 
259 1 0.765192 0.23459 5.80759 4.07513 3.80084 
260 1 0.835622 0.305511 6.21522 6.45106 8.61363 
261 1 0.599756 0.112959 1.91419 1.74788 4.42801 
262 1 0.896276 0.376985 3.1608 0.846555 3.68677 
263 1 0.805192 0.273336 7.24247 5.66063 9.21536 
264 1 0.690156 0.172123 7.4958 3.27233 3.40226 
265 1 0.568634 0.0962714 0.285144 0.958072 4.86928 
266 1 0.716275 0.192414 6.29258 6.18341 6.12681 
267 1 0.907838 0.391763 6.33112 3.56265 0.437929 
268 1 0.581197 0.102794 3.44349 4.66776 7.45104 
269 1 0.524492 0.0755468 2.43041 5.25403 9.41938 
270 1 0.509543 0.0692695 8.78973 9.22886 5.46167 
271 1 0.639642 0.137028 9.37443 6.1032 8.30414 
272 1 0.58998 0.107525 5.99815 7.71431 3.5318 
273 1 0.953959 0.454556 4.25599 5.66787 8.21175 
274 1 0.731389 0.204854 7.26156 5.06254 5.033 
275 1 0.736519 0.209195 5.59199 3.1631 4.76683 
276 1 0.742695 0.214501 9.07148 8.97451 7.52754 
277 1 0.508703 0.0689272 1.34402 8.98671 5.30949 
278 1 0.533438 0.0794785 5.00833 5.58704 8.81805 
279 1 0.929997 0.421156 9.24008 4.30952 0.102814 
280 1 0.817907 0.286491 1.33822 1.45269 2.46838 
281 1 0.667717 0.155875 4.96062 4.57556 5.60659 
282 1 0.527612 0.0769027 8.93392 1.76595 6.62111 
283 1 0.754643 0.225021 8.39425 5.6263 9.27614 
284 1 0.924411 0.413613 3.11613 7.16762 9.17866 
285 1 0.529783 0.0778562 1.29159 7.80225 2.92647 
286 1 0.51228 0.0703917 7.23938 6.60588 8.8545 
287 1 0.541222 0.0830089 9.06333 0.357264 5.22312 
288 1 0.603051 0.114831 8.31408 3.06535 9.75051 
289 1 0.655632 0.147564 4.15744 2.63958 6.99111 
290 1 0.830437 0.29986 9.15369 3.05003 7.66371 
291 1 0.910287 0.394942 5.78992 6.45732 1.20587 
292 1 0.867057 0.341304 1.63753 2.6719 6.56971 
293 1 0.793492 0.261593 4.63812 4.6237 8.98805 
294 1 0.730326 0.203962 8.32566 7.65922 7.74264 
295 1 0.71629 0.192427 4.63362 0.3242 9.04825 
296 1 0.636141 0.134791 9.48853 3.7479 8.10992 
297 1 0.634334 0.133645 7.67702 1.23328 9.49154 
298 1 0.766669 0.235951 0.734999 7.63562 1.70488 
299 1 0.788248 0.256441 1.59818 2.10779 3.56854 
300 1 0.508357 0.0687867 9.03655 7.48195 6.44278 
301 1 0.91079 0.395597 5.40082 0.429315 9.86103 
302 1 0.645127 0.140583 3.59134 6.11899 6.50413 
303 1 0.865181 0.339094 1.70568 1.66556 5.55363 
304 1 0.600471 0.113364 2.84056 1.59604 5.01895 
305 1 0.912451 0.397766 5.61811 9.17767 3.06671 
306 1 0.504941 0.0674095 8.35798 9.17401 3.72236 
307 1 0.997579 0.519805 6.33241 8.24816 2.5968 
308 1 0.781359 0.249776 5.79177 7.11979 2.05914 
309 1 0.832103 0.301669 3.15867 7.81489 4.7056 
310 1 0.982623 0.496775 6.92129 2.40619 6.18258 
311 1 0.782295 0.250675 0.515236 1.60557 7.18459 
312 1 0.901863 0.384079 3.88987 4.68484 2.10683 
313 1 0.511773 0.0701826 9.24836 7.14166 5.44619 
314 1 0.916315 0.40284 4.4202 2.07658 9.05864 
315 1 0.859419 0.332364 2.12903 8.23903 6.05839 
316 1 0.749738 0.220662 6.27894 6.42352 0.274598 
317 1 0.572351 0.0981716 0.991495 2.7967 1.07983 
318 1 0.998227 0.520818 4.28046 1.74706 7.25022 
319 1 0.576294 0.100214 5.95327 9.63677 3.94656 
320 1 0.738916 0.211244 0.908905 5.96873 4.25232 
321 1 0.784095 0.252409 5.767 4.50532 4.50173 
322 1 0.713333 0.190054 5.46655 6.5141 4.74099 
323 1 0.731107 0.204617 5.3206 2.46628 4.30521 
324 1 0.988703 0.506053 2.55361 8.38291 7.6492 
325 1 0.591385 0.108295 2.84081 7.77054 7.08483 
326 1 0.575475 0.0997877 5.28853 3.06831 8.10362 
327 1 0.977192 0.488583 3.43367 2.18896 4.74509 
328 1 0.969432 0.477036 4.66355 8.3641 9.59892 
329 1 0.909686 0.39416 1.20917 0.721327 5.1038 
330 1 0.745821 0.217221 1.86717 6.61117 3.80732 
331 1 0.90968 0.394152 9.17716 6.96117 6.94003 
332 1 0.585087 0.104872 4.47646 3.21723 9.21879 
333 1 0.740944 0.212988 4.00154 7.15351 0.191977 
334 1 0.55135 0.087757 1.36627 5.38788 6.26711 
335 1 0.648428 0.142752 5.00919 4.95239 2.174 
336 1 0.721448 0.196614 7.53719 7.56423 1.80721 
337 1 0.636988 0.135329 2.53003 5.73142 7.19281 
338 1 0.822036 0.290852 5.778 4.09797 9.69247 
339 1 0.641828 0.138438 0.476085 8.78096 6.39893 
340 1 0.686784 0.169613 6.11163 4.89808 2.82845 
341 1 0.534994 0.0801762 3.18066 6.06851 9.37486 
342 1 0.960663 0.464206 6.79323 5.63248 2.53192 
343 1 0.641506 0.138229 0.926463 9.29604 5.94494 
344 1 0.751532 0.22225 4.81316 5.18557 3.0921 
345 1 0.92581 0.415493 1.62159 6.96942 9.69743 
346 1 0.700785 0.180199 0.983069 5.65589 3.46578 
347 1 0.851221 0.322943 9.52024 4.95997 9.02049 
348 1 0.867301 0.341592 4.32448 7.57256 9.23477 
349 1 0.557604 0.0907772 3.07814 4.23415 5.49416 
350 1 0.844596 0.315461 9.03616 8.28723 6.53567 
ITEM: TIMESTEP
2000
ITEM: NUMBER OF ATOMS
350
ITEM: BOX BOUNDS ff ff pp
0 10
0 10
0 10
ITEM: ATOMS id type diameter mass x y z 
172 1 0.553559 0.0888156 2.59475 1.02029 2.33462 
111 1 0.862949 0.336476 0.654371 0.92388 2.81403 
80 1 0.616869 0.122907 7.20057 8.66309 2.23847 
137 1 0.51234 0.0704164 9.19028 7.55007 5.23674 
166 1 0.646957 0.141783 1.33591 2.05596 1.05082 
83 1 0.652033 0.145146 0.922054 3.95193 5.21982 
126 1 0.539683 0.0823029 8.31495 5.10196 6.80621 
75 1 0.783081 0.251431 7.21745 2.65651 4.7218 
124 1 0.511447 0.0700487 1.47328 1.02684 5.22636 
267 1 0.907838 0.391763 9.22656 9.54451 5.76482 
53 1 0.724293 0.198949 3.71173 0.788182 3.7509 
279 1 0.929997 0.421156 9.31417 6.37846 3.13269 
197 1 0.738142 0.210581 8.9577 3.29421 0.32261 
56 1 0.763658 0.233182 0.42515 1.21592 3.68548 
244 1 0.868037 0.342463 5.93017 6.55769 2.07797 
160 1 0.713406 0.190112 7.41117 0.900473 5.21594 
316 1 0.749738 0.220662 5.08794 4.48689 9.86409 
142 1 0.692916 0.174197 8.43793 6.40912 5.23997 
333 1 0.740944 0.212988 1.63964 6.06478 8.60572 
147 1 0.902252 0.384576 3.60076 8.95042 7.27129 
22 1 0.773759 0.242558 1.69154 7.12069 0.568132 
34 1 0.833369 0.303048 9.56831 8.65984 7.18783 
163 1 0.530016 0.0779589 0.315923 8.7509 3.70722 
148 1 0.953233 0.453519 0.697087 1.71049 9.42597 
107 1 0.695459 0.176122 1.89894 1.30455 6.86338 
110 1 0.766768 0.236042 1.32587 2.92657 9.63992 
317 1 0.572351 0.0981716 1.08655 8.47812 9.92357 
8 1 0.667185 0.155503 9.1636 6.42626 2.21321 
72 1 0.704045 0.182726 2.80183 2.13912 6.06239 
63 1 0.526113 0.0762494 9.6629 6.94072 0.211011 
16 1 0.810192 0.27846 0.535206 8.47771 0.700665 
291 1 0.910287 0.394942 2.30178 8.23242 0.753515 
55 1 0.564613 0.0942435 6.12074 9.43728 1.13972 
255 1 0.519029 0.0732107 4.90563 1.38591 4.89571 
7 1 0.747533 0.218721 8.23171 7.36121 8.75513 
25 1 0.821569 0.290356 3.49035 8.23447 5.10389 
115 1 0.598297 0.112137 0.419265 7.56847 2.47712 
192 1 0.744879 0.2164 7.50391 8.62361 8.48383 
164 1 0.932181 0.424131 3.07354 9.43968 0.516964 
171 1 0.663178 0.152718 1.51494 1.16197 7.89008 
39 1 0.654124 0.146548 1.11778 2.83801 3.88745 
257 1 0.937343 0.431216 1.52307 0.48175 6.72159 
113 1 0.60011 0.11316 0.751287 0.41231 5.43137 
198 1 0.785614 0.253879 5.5168 3.90908 1.87522 
153 1 0.65442 0.146747 9.59141 6.10838 4.77948 
161 1 0.875106 0.350898 4.53894 3.68838 3.07447 
30 1 0.927923 0.418345 1.38782 5.85899 0.920944 
175 1 0.587811 0.106344 2.90509 7.0928 8.81541 
71 1 0.691659 0.173251 2.39871 7.95601 3.67974 
149 1 0.946629 0.444158 0.6509 3.87603 9.46827 
106 1 0.554686 0.0893595 2.21889 3.62166 3.6803 
298 1 0.766669 0.235951 4.01795 2.64556 3.6281 
224 1 0.802244 0.270345 7.35012 9.42654 3.59669 
336 1 0.721448 0.196614 6.50219 8.77195 3.01411 
1 1 0.956056 0.457561 5.55614 9.43478 4.22378 
18 1 0.921305 0.409458 8.51855 8.91332 7.9525 
91 1 0.969492 0.477124 1.92892 0.542174 2.35679 
117 1 0.736836 0.209465 4.34919 6.83364 5.81913 
280 1 0.817907 0.286491 1.18508 3.68803 5.95725 
155 1 0.945763 0.442941 0.585711 2.28796 5.77015 
217 1 0.556967 0.0904663 5.61111 2.46198 8.06018 
208 1 0.862092 0.335475 4.19461 1.33224 9.08635 
76 1 0.54984 0.0870377 1.23156 1.33573 3.52841 
130 1 0.640722 0.137723 5.69138 9.57679 8.72468 
312 1 0.901863 0.384079 1.74355 2.32947 5.43963 
335 1 0.648428 0.142752 6.77869 3.24908 5.42869 
143 1 0.814193 0.282606 9.36393 4.33343 0.0748276 
308 1 0.781359 0.249776 5.76995 5.27026 8.4723 
5 1 0.99543 0.516452 1.88201 7.75567 4.88402 
42 1 0.646259 0.141325 4.94316 5.25902 5.98584 
27 1 0.721459 0.196623 9.20673 3.03232 7.47395 
125 1 0.839674 0.309977 9.48965 2.86522 1.86487 
176 1 0.928441 0.419045 1.92254 4.09446 8.8092 
120 1 0.629037 0.130325 4.73017 9.15623 9.00464 
94 1 0.656393 0.148078 8.99589 3.98263 7.25923 
14 1 0.855055 0.327326 8.66171 2.22793 7.44741 
32 1 0.717993 0.193802 2.36071 7.49342 7.34927 
340 1 0.686784 0.169613 7.50336 7.60607 4.33193 
344 1 0.751532 0.22225 8.28812 9.50622 3.51493 
64 1 0.790014 0.258168 5.57109 4.46148 2.97248 
100 1 0.595947 0.110821 0.444425 0.552068 1.66101 
342 1 0.960663 0.464206 7.56836 7.36016 1.43596 
49 1 0.940602 0.435729 9.01165 7.29027 9.93937 
151 1 0.646286 0.141343 9.31366 8.62396 4.43374 
285 1 0.529783 0.0778562 1.40677 4.63099 6.18374 
218 1 0.622742 0.126451 0.74608 9.4764 1.46789 
181 1 0.93366 0.426152 7.80702 9.23178 9.17818 
307 1 0.997579 0.519805 8.87257 9.49731 9.88147 
305 1 0.912451 0.397766 3.21833 7.6329 0.224974 
108 1 0.54344 0.0840336 9.60203 7.85808 1.53015 
52 1 0.996344 0.517878 9.50192 8.39252 -0.0273048 
145 1 0.505343 0.0675705 2.03067 9.58366 2.99046 
93 1 0.803222 0.271334 4.17729 3.74575 4.93688 
173 1 0.848719 0.320104 9.3442 2.12618 9.5403 
262 1 0.896276 0.376985 5.39963 1.2416 9.44867 
116 1 0.905589 0.388859 9.47894 0.456562 0.697688 
9 1 0.740549 0.212647 7.28634 0.618415 7.83917 
69 1 0.643779 0.139704 9.01171 1.34864 5.90767 
38 1 0.595727 0.110698 8.94053 1.04752 4.07934 
86 1 0.960049 0.463317 0.480492 1.3204 1.1802 
299 1 0.788248 0.256441 1.37174 0.952663 8.60363 
46 1 0.954499 0.455329 3.39744 1.58747 8.11548 
187 1 0.881259 0.358352 2.62987 0.486091 6.19717 
98 1 0.907794 0.391706 9.51372 1.25774 7.26329 
264 1 0.690156 0.172123 8.88439 2.33471 8.3168 
235 1 0.977034 0.488346 9.4724 4.57803 4.20875 
346 1 0.700785 0.180199 8.09701 7.47738 2.46699 
134 1 0.67349 0.159953 9.57647 8.53876 5.46276 
272 1 0.58998 0.107525 9.68192 9.69165 9.57385 
185 1 0.978521 0.490579 3.75119 7.74112 6.55508 
205 1 0.943228 0.439389 8.06037 9.47741 1.33342 
177 1 0.864282 0.338038 8.9406 9.54225 8.88519 
306 1 0.504941 0.0674095 9.16573 9.74441 6.92625 
136 1 0.609949 0.118817 9.61456 8.93668 0.894508 
158 1 0.942598 0.438509 8.12732 0.53344 9.72211 
201 1 0.72833 0.202294 1.34459 0.385487 1.53779 
40 1 0.618699 0.124004 9.51545 2.10709 0.393738 
323 1 0.731107 0.204617 8.64011 8.2287 2.16791 
184 1 0.766988 0.236246 1.0347 4.77297 0.779916 
179 1 0.74242 0.214263 4.75732 9.44879 1.49836 
259 1 0.765192 0.23459 7.48721 2.77766 8.93871 
227 1 0.781918 0.250312 9.01498 4.42406 3.39188 
207 1 0.937803 0.43185 9.5124 2.9471 5.75924 
188 1 0.96823 0.475264 2.28982 3.55769 0.684885 
320 1 0.738916 0.211244 2.19576 8.55112 5.07658 
178 1 0.830277 0.299687 9.04694 7.69447 4.29535 
330 1 0.745821 0.217221 4.12637 9.27969 3.38238 
133 1 0.780361 0.24882 2.05463 0.829524 3.66075 
182 1 0.772755 0.241615 2.49694 3.80767 2.01936 
88 1 0.714467 0.190961 2.07255 7.27342 3.56476 
58 1 0.938717 0.433115 9.0733 9.50677 0.945462 
168 1 0.744438 0.216016 0.52688 8.99505 5.12756 
319 1 0.576294 0.100214 2.28452 9.1683 6.748 
127 1 0.771821 0.24074 6.74755 0.421946 8.78805 
146 1 0.732 0.205368 5.75928 2.67052 6.40849 
31 1 0.868651 0.34319 8.99674 0.441452 2.17229 
78 1 0.558605 0.0912667 9.50453 1.36068 0.94962 
265 1 0.568634 0.0962714 6.69727 2.00305 4.43536 
170 1 0.615342 0.121997 1.40011 4.91938 5.26908 
261 1 0.599756 0.112959 1.97275 3.09855 1.68399 
304 1 0.600471 0.113364 5.46056 0.374085 2.41828 
327 1 0.977192 0.488583 6.99484 0.644327 2.00985 
66 1 0.866137 0.340218 8.25327 2.80348 1.25305 
253 1 0.90111 0.383118 9.1043 4.18448 8.05623 
135 1 0.713192 0.189941 2.60808 5.9486 3.23171 
45 1 0.639416 0.136883 2.8342 4.29601 5.41156 
246 1 0.811995 0.280323 8.75847 1.3095 0.14265 
275 1 0.736519 0.209195 0.734311 2.41678 4.95313 
189 1 0.729766 0.203493 5.34486 0.392907 8.0824 
321 1 0.784095 0.252409 7.97468 0.638725 4.58546 
243 1 0.908706 0.392889 9.48024 3.50033 1.11428 
19 1 0.842017 0.31258 8.7358 3.83726 4.73597 
15 1 0.650418 0.144071 1.11562 7.25948 4.59633 
215 1 0.718963 0.194589 8.64774 5.23477 2.72106 
322 1 0.713333 0.190054 1.80269 8.10568 5.92975 
309 1 0.832103 0.301669 5.17059 9.33427 2.41321 
287 1 0.541222 0.0830089 9.58352 1.30338 3.8027 
329 1 0.909686 0.39416 0.456644 1.26015 6.14163 
62 1 0.959605 0.462674 8.67088 0.478823 1.29136 
303 1 0.865181 0.339094 3.1603 1.5464 6.5174 
122 1 0.935725 0.428986 2.69752 1.93564 9.63867 
247 1 0.690478 0.172365 6.78211 1.96167 7.91004 
251 1 0.951488 0.451033 0.539587 4.5469 7.67295 
50 1 0.939642 0.434396 0.848254 5.90059 3.00636 
139 1 0.663917 0.153229 2.6231 0.891683 4.32958 
349 1 0.557604 0.0907772 5.57078 0.823072 6.82486 
230 1 0.789743 0.257903 8.06913 3.98804 7.95282 
281 1 0.667717 0.155875 3.12691 0.532047 4.70905 
274 1 0.731389 0.204854 7.2974 5.87627 6.33488 
79 1 0.539687 0.0823046 5.4141 7.35359 1.673 
26 1 0.73153 0.204972 2.07238 2.58661 4.0191 
28 1 0.655118 0.147217 5.87687 8.68494 8.53826 
82 1 0.5621 0.0929909 7.61989 8.83548 4.58537 
236 1 0.887731 0.366305 3.40653 4.81804 2.84499 
206 1 0.901672 0.383835 0.889695 9.47874 2.21794 
313 1 0.511773 0.0701826 8.77798 5.90946 6.98005 
216 1 0.993367 0.513249 0.502065 5.11788 6.32118 
29 1 0.977882 0.489619 6.87274 8.21841 6.29994 
92 1 0.762824 0.232419 1.97143 6.82179 7.30514 
277 1 0.508703 0.0689272 1.71807 6.06388 3.15004 
270 1 0.509543 0.0692695 2.91533 8.85232 2.1711 
48 1 0.774557 0.24331 7.15153 1.44491 9.53505 
132 1 0.974488 0.484539 8.52201 5.02952 4.76105 
310 1 0.982623 0.496775 3.35235 1.80836 1.90243 
114 1 0.849192 0.320639 9.40789 3.49273 2.58104 
150 1 0.964601 0.469939 1.59322 5.02462 9.21887 
81 1 0.645369 0.140742 6.18543 2.9095 5.19467 
214 1 0.519511 0.0734145 7.94833 3.27758 2.03563 
334 1 0.55135 0.087757 4.3791 4.16645 9.22414 
237 1 0.664703 0.153773 7.549 3.7348 8.64023 
266 1 0.716275 0.192414 8.37028 5.92104 6.143 
225 1 0.741205 0.213213 9.58007 3.29863 4.32145 
123 1 0.711179 0.188337 2.34669 8.22351 2.33709 
87 1 0.624106 0.127284 1.02798 9.65168 8.17937 
315 1 0.859419 0.332364 4.38703 9.29584 9.69629 
183 1 0.868735 0.34329 7.4283 5.39952 5.01327 
200 1 0.542127 0.0834261 6.59493 4.36544 9.87847 
343 1 0.641506 0.138229 0.437285 9.24291 3.34646 
129 1 0.509801 0.0693746 6.89472 3.24285 7.86351 
165 1 0.916156 0.402631 2.44945 9.42746 8.89057 
162 1 0.862859 0.33637 9.56181 0.437533 3.44465 
24 1 0.618993 0.124181 8.21473 1.80466 0.315485 
141 1 0.565847 0.0948626 4.1403 0.76768 2.28366 
169 1 0.899957 0.381648 9.54352 1.15188 2.14402 
282 1 0.527612 0.0769027 8.11408 6.36999 3.05976 
292 1 0.867057 0.341304 3.68921 3.38449 2.12237 
193 1 0.965344 0.471026 0.570519 3.23214 5.49933 
204 1 0.578316 0.101273 1.8666 7.73123 9.78026 
221 1 0.929466 0.420435 1.91718 2.21296 2.33727 
238 1 0.905237 0.388405 8.34461 8.68761 9.89023 
131 1 0.978163 0.490042 1.01477 3.17981 2.71038 
112 1 0.513425 0.0708649 0.851308 6.67445 3.22027 
302 1 0.645127 0.140583 6.91509 1.38006 3.21169 
300 1 0.508357 0.0687867 8.16218 6.6924 1.22986 
254 1 0.59476 0.11016 8.92811 8.26331 0.568474 
350 1 0.844596 0.315461 6.9614 6.6772 6.26542 
339 1 0.641828 0.138438 0.323103 1.43631 4.47019 
233 1 0.518453 0.072967 3.67423 6.45111 8.15096 
144 1 0.750411 0.221256 3.32462 7.80933 4.13196 
6 1 0.801644 0.269739 9.22539 9.18292 6.54743 
140 1 0.763891 0.233395 7.14865 0.412718 3.95784 
119 1 0.794141 0.262236 5.42843 4.94113 6.96321 
73 1 0.782695 0.251059 8.53718 2.69184 5.53477 
311 1 0.782295 0.250675 0.591733 1.18968 7.85854 
89 1 0.994117 0.514412 2.30909 1.7799 1.25565 
318 1 0.998227 0.520818 0.538767 2.97205 6.64526 
289 1 0.655632 0.147564 1.53319 1.38414 4.73387 
223 1 0.555349 0.0896803 2.9967 5.9047 4.90863 
240 1 0.894635 0.374918 6.95843 2.7599 6.1185 
268 1 0.581197 0.102794 1.61221 8.23238 2.08763 
219 1 0.962448 0.466799 8.26001 4.36936 2.89901 
252 1 0.853592 0.325649 6.44034 6.01325 1.52078 
337 1 0.636988 0.135329 2.44821 2.7642 0.373439 
167 1 0.685409 0.168596 6.83003 7.11741 0.799695 
47 1 0.635792 0.134569 6.06022 7.72114 0.516966 
331 1 0.90968 0.394152 8.52558 5.54301 7.96223 
325 1 0.591385 0.108295 4.5659 4.63569 5.59755 
159 1 0.642462 0.138848 1.54505 9.55708 3.31791 
194 1 0.690806 0.172611 8.80852 8.15283 8.34217 
35 1 0.994809 0.515488 6.09364 9.29229 2.25449 
20 1 0.875192 0.351002 8.84211 1.45374 1.37329 
203 1 0.8102 0.278468 0.619842 0.405984 6.37078 
109 1 0.535983 0.0806216 4.04115 5.53984 8.9783 
239 1 0.539653 0.0822891 9.44487 2.07418 7.79293 
174 1 0.660286 0.150728 8.1645 0.824244 7.4085 
326 1 0.575475 0.0997877 8.51769 2.94898 2.33423 
290 1 0.830437 0.29986 9.23734 2.5415 3.52063 
68 1 0.842945 0.313615 5.14864 7.16845 5.71104 
296 1 0.636141 0.134791 9.67053 7.37352 8.05473 
65 1 0.901719 0.383895 3.84976 5.31576 6.14692 
3 1 0.956487 0.45818 2.89964 6.12882 8.49508 
2 1 0.593777 0.109615 4.29862 1.08047 7.00757 
245 1 0.81285 0.28121 0.665253 9.41414 0.0860744 
61 1 0.725435 0.199891 7.91124 9.43163 8.34336 
196 1 0.808743 0.276969 8.06271 3.13673 7.88095 
37 1 0.784818 0.253107 9.11921 9.37664 4.91937 
202 1 0.97406 0.4839 0.512495 6.57777 1.30687 
211 1 0.671554 0.158577 9.65714 8.63655 6.15788 
4 1 0.745253 0.216725 7.12093 7.78292 0.361525 