ITEM: TIMESTEP
0
ITEM: NUMBER OF ATOMS
5
ITEM: BOX BOUNDS ff ff ff
1e-05 3e-05
1e-05 3e-05
0 4e-05
ITEM: ATOMS id type diameter x y z vx vy vz fx fy fz 
4 4 1.0539e-06 2e-05 2e-05 1.9e-05 0 0 0 0 0 -8.22e-06 
2 2 1.2839e-06 2e-05 1.9e-05 2e-05 0 0 0 0 -3.122e-05 0 
3 3 1.0283e-06 2e-05 2e-05 2e-05 0 0 0 0 2e-05 -4.3e-05 
1 1 1.0839e-06 2e-05 2.1e-05 2e-05 0 0 0 0 1.122e-05 0 
5 5 1.4839e-06 2e-05 2e-05 2.1e-05 0 0 0 0 0 5.122e-05 
ITEM: TIMESTEP
2000
ITEM: NUMBER OF ATOMS
6
ITEM: BOX BOUNDS ff ff ff
1e-05 3e-05
1e-05 3e-05
0 4e-05
ITEM: ATOMS id type diameter x y z vx vy vz fx fy fz 
4 4 1.05252e-06 2e-05 1.99999e-05 1.898e-05 0 -8.53071e-14 -9.99964e-12 0 -8.21857e-08 -9.63375e-06 
2 2 1.3122e-06 2e-05 1.898e-05 2.00002e-05 0 -9.99842e-12 1.77913e-13 0 -3.02557e-05 5.38373e-07 
3 3 1.04765e-06 2e-05 2.00085e-05 1.99819e-05 0 4.24184e-12 -9.05576e-12 0 1.71776e-05 -3.66718e-05 
1 1 1.11112e-06 2e-05 2.102e-05 2.00002e-05 0 9.99836e-12 1.80909e-13 0 1.3535e-05 2.44899e-07 
5 5 1.4839e-06 2e-05 1.99999e-05 2.102e-05 0 -8.23097e-14 9.99966e-12 0 -3.74706e-07 4.55223e-05 
6 4 9.08972e-07 1.99096e-05 2.19756e-05 2.05541e-05 0 1e-11 0 0 0 0 
ITEM: TIMESTEP
4000
ITEM: NUMBER OF ATOMS
6
ITEM: BOX BOUNDS ff ff ff
1e-05 3e-05
1e-05 3e-05
0 4e-05
ITEM: ATOMS id type diameter x y z vx vy vz fx fy fz 
4 4 1.05114e-06 2e-05 1.99997e-05 1.896e-05 0 -1.72294e-13 -9.99852e-12 0 -1.90678e-07 -1.10654e-05 
2 2 1.34112e-06 2e-05 1.896e-05 2.00007e-05 0 -9.9939e-12 3.49247e-13 0 -2.9313e-05 1.02437e-06 
3 3 1.06737e-06 2e-05 2.0017e-05 1.99638e-05 0 4.24722e-12 -9.05324e-12 0 1.42531e-05 -3.03814e-05 
1 1 1.13905e-06 2e-05 2.104e-05 2.00007e-05 0 9.99348e-12 3.60962e-13 0 1.58905e-05 5.73961e-07 
5 5 1.4839e-06 2e-05 1.99997e-05 2.104e-05 0 -1.6055e-13 9.99871e-12 0 -6.39851e-07 3.98484e-05 
6 4 9.0778e-07 1.99096e-05 2.19956e-05 2.05541e-05 0 1e-11 0 0 0 0 
ITEM: TIMESTEP
6000
ITEM: NUMBER OF ATOMS
6
ITEM: BOX BOUNDS ff ff ff
1e-05 3e-05
1e-05 3e-05
0 4e-05
ITEM: ATOMS id type diameter x y z vx vy vz fx fy fz 
4 4 1.04976e-06 2e-05 1.99992e-05 1.894e-05 0 -2.60537e-13 -9.99661e-12 0 -3.26269e-07 -1.25187e-05 
2 2 1.37069e-06 2e-05 1.894e-05 2.00016e-05 0 -9.98676e-12 5.14459e-13 0 -2.8407e-05 1.46336e-06 
3 3 1.08745e-06 2e-05 2.00254e-05 1.99457e-05 0 4.22834e-12 -9.06207e-12 0 1.12593e-05 -2.41307e-05 
1 1 1.16768e-06 2e-05 2.106e-05 2.00016e-05 0 9.9854e-12 5.40189e-13 0 1.82767e-05 9.88729e-07 
5 5 1.4839e-06 2e-05 1.99993e-05 2.106e-05 0 -2.34669e-13 9.99725e-12 0 -8.02726e-07 3.41973e-05 
6 4 9.0659e-07 1.99096e-05 2.20156e-05 2.05541e-05 0 1e-11 0 0 0 0 
ITEM: TIMESTEP
8000
ITEM: NUMBER OF ATOMS
7
ITEM: BOX BOUNDS ff ff ff
1e-05 3e-05
1e-05 3e-05
0 4e-05
ITEM: ATOMS id type diameter x y z vx vy vz fx fy fz 
4 4 1.04838e-06 2e-05 1.99986e-05 1.892e-05 -1.27885e-14 -3.93954e-13 -9.99223e-12 -1.71087e-08 -5.27041e-07 -1.33678e-05 
2 2 1.14391e-06 2.00472e-05 1.84373e-05 1.97127e-05 8.39945e-13 -8.59212e-12 -5.04678e-12 2.87666e-07 -2.94264e-06 -1.72843e-06 
3 3 1.10792e-06 2.00013e-05 2.00384e-05 1.99305e-05 6.77947e-13 6.49026e-12 -7.57739e-12 4.40186e-06 4.21408e-05 -4.91995e-05 
1 1 1.19702e-06 2e-05 2.10799e-05 2.00029e-05 -1.23833e-14 9.97594e-12 6.93127e-13 -2.68562e-08 2.16353e-05 1.50321e-06 
5 5 1.4839e-06 2.00006e-05 2.00071e-05 2.10784e-05 2.9012e-13 3.96579e-12 9.17542e-12 2.18617e-06 2.98839e-05 6.91406e-05 
6 4 9.05402e-07 1.99096e-05 2.20356e-05 2.05541e-05 0 1e-11 0 0 0 0 
7 2 1.07792e-06 1.99553e-05 1.93771e-05 2.02648e-05 -7.53463e-13 -9.94697e-12 -7.0012e-13 -6.83174e-06 -9.01903e-05 -6.34807e-06 
ITEM: TIMESTEP
10000
ITEM: NUMBER OF ATOMS
7
ITEM: BOX BOUNDS ff ff ff
1e-05 3e-05
1e-05 3e-05
0 4e-05
ITEM: ATOMS id type diameter x y z vx vy vz fx fy fz 
4 4 1.04701e-06 1.99999e-05 1.99976e-05 1.89e-05 -2.73433e-14 -5.28389e-13 -9.98599e-12 -3.89233e-08 -7.52163e-07 -1.42151e-05 
2 2 1.16913e-06 2.00489e-05 1.84202e-05 1.97026e-05 8.68109e-13 -8.54654e-12 -5.11889e-12 6.77502e-07 -6.67002e-06 -3.99496e-06 
3 3 1.12877e-06 2.00027e-05 2.00514e-05 1.99153e-05 7.74188e-13 6.4638e-12 -7.59078e-12 4.38126e-06 3.65798e-05 -4.29575e-05 
1 1 1.2271e-06 1.99999e-05 2.10999e-05 2.00044e-05 -2.64029e-14 9.96408e-12 8.4642e-13 -6.6353e-08 2.50407e-05 2.12714e-06 
5 5 1.4839e-06 2.00012e-05 2.00152e-05 2.10967e-05 3.01884e-13 4.14158e-12 9.09704e-12 2.02363e-06 2.77624e-05 6.09805e-05 
6 4 9.04215e-07 1.99096e-05 2.20556e-05 2.05541e-05 0 1e-11 0 0 0 0 
7 2 1.10168e-06 1.99537e-05 1.93572e-05 2.02638e-05 -8.47972e-13 -9.96119e-12 -2.35786e-13 -6.97712e-06 -8.19607e-05 -1.94004e-06 
ITEM: TIMESTEP
12000
ITEM: NUMBER OF ATOMS
8
ITEM: BOX BOUNDS ff ff ff
1e-05 3e-05
1e-05 3e-05
0 4e-05
ITEM: ATOMS id type diameter x y z vx vy vz fx fy fz 
4 4 1.04564e-06 1.99999e-05 1.99965e-05 1.88801e-05 -4.42762e-14 -6.62977e-13 -9.9779e-12 -6.68872e-08 -1.00155e-06 -1.50734e-05 
2 2 1.1949e-06 2.00507e-05 1.84031e-05 1.96923e-05 8.98086e-13 -8.49532e-12 -5.19837e-12 1.09241e-06 -1.03335e-05 -6.32319e-06 
3 3 1.15001e-06 2.00044e-05 2.00642e-05 1.99001e-05 9.08998e-13 6.38852e-12 -7.6394e-12 4.40046e-06 3.09268e-05 -3.69823e-05 
7 2 1.12596e-06 1.99519e-05 1.93373e-05 2.02639e-05 -9.67677e-13 -9.94753e-12 3.31981e-13 -7.17919e-06 -7.38007e-05 2.46297e-06 
1 1 1.25794e-06 1.99999e-05 2.11198e-05 2.00062e-05 -4.26252e-14 9.94974e-12 1.00046e-12 -1.21985e-07 2.84743e-05 2.86312e-06 
6 4 9.0303e-07 1.99096e-05 2.20756e-05 2.05541e-05 0 1e-11 0 0 0 0 
5 5 1.4839e-06 2.00018e-05 2.00237e-05 2.11148e-05 3.17857e-13 4.36219e-12 8.99279e-12 1.87519e-06 2.57347e-05 5.30528e-05 
8 4 9.79582e-07 1.94888e-05 2.19417e-05 1.92915e-05 -3.41926e-14 9.95722e-12 9.23319e-13 0 0 0 
ITEM: TIMESTEP
14000
ITEM: NUMBER OF ATOMS
8
ITEM: BOX BOUNDS ff ff ff
1e-05 3e-05
1e-05 3e-05
0 4e-05
ITEM: ATOMS id type diameter x y z vx vy vz fx fy fz 
4 4 1.04427e-06 1.99998e-05 1.9995e-05 1.88601e-05 -6.4563e-14 -7.96568e-13 -9.96801e-12 -1.03379e-07 -1.27547e-06 -1.59608e-05 
2 2 1.22124e-06 2.00525e-05 1.83862e-05 1.96818e-05 9.30168e-13 -8.43748e-12 -5.28618e-12 1.5312e-06 -1.38894e-05 -8.70184e-06 
3 3 1.17165e-06 2.00064e-05 2.00769e-05 1.98847e-05 1.10638e-12 6.2404e-12 -7.7352e-12 4.47158e-06 2.52214e-05 -3.12628e-05 
7 2 1.15078e-06 1.99498e-05 1.93174e-05 2.02652e-05 -1.11833e-12 -9.88414e-12 1.02623e-12 -7.44363e-06 -6.57888e-05 6.83059e-06 
1 1 1.28956e-06 1.99998e-05 2.11397e-05 2.00084e-05 -6.19444e-14 9.9328e-12 1.15571e-12 -1.98992e-07 3.19085e-05 3.71263e-06 
6 4 9.01846e-07 1.99096e-05 2.20956e-05 2.05541e-05 0 1e-11 0 0 0 0 
5 5 1.4839e-06 2.00024e-05 2.00326e-05 2.11326e-05 3.39909e-13 4.64537e-12 8.84901e-12 1.74323e-06 2.38238e-05 4.53823e-05 
8 4 9.78298e-07 1.94887e-05 2.19617e-05 1.92934e-05 -3.41926e-14 9.95722e-12 9.23319e-13 0 0 0 
ITEM: TIMESTEP
16000
ITEM: NUMBER OF ATOMS
8
ITEM: BOX BOUNDS ff ff ff
1e-05 3e-05
1e-05 3e-05
0 4e-05
ITEM: ATOMS id type diameter x y z vx vy vz fx fy fz 
4 4 1.0429e-06 1.99996e-05 1.99933e-05 1.88402e-05 -8.98424e-14 -9.27461e-13 -9.95649e-12 -1.52522e-07 -1.57451e-06 -1.69027e-05 
2 2 1.24816e-06 2.00544e-05 1.83694e-05 1.96711e-05 9.64641e-13 -8.37202e-12 -5.38319e-12 1.99098e-06 -1.72795e-05 -1.11107e-05 
3 3 1.1937e-06 2.00089e-05 2.00891e-05 1.98691e-05 1.41227e-12 5.97674e-12 -7.89203e-12 4.61434e-06 1.95279e-05 -2.57857e-05 
7 2 1.17615e-06 1.99474e-05 1.92978e-05 2.02681e-05 -1.30516e-12 -9.73724e-12 1.86623e-12 -7.77887e-06 -5.80346e-05 1.11228e-05 
1 1 1.32197e-06 1.99996e-05 2.11595e-05 2.00108e-05 -5.69454e-14 9.93153e-12 1.16681e-12 -1.95819e-07 3.41517e-05 4.01232e-06 
6 4 9.00664e-07 1.99088e-05 2.21144e-05 2.05588e-05 -8.22535e-13 8.64365e-12 4.96092e-12 -1.09434e-07 1.14999e-06 6.60026e-07 
5 5 1.4839e-06 2.00031e-05 2.00423e-05 2.11501e-05 3.70989e-13 5.0166e-12 8.64269e-12 1.63133e-06 2.20592e-05 3.8004e-05 
8 4 9.77016e-07 1.94887e-05 2.19816e-05 1.92952e-05 -3.41926e-14 9.95722e-12 9.23319e-13 0 0 0 
ITEM: TIMESTEP
18000
ITEM: NUMBER OF ATOMS
8
ITEM: BOX BOUNDS ff ff ff
1e-05 3e-05
1e-05 3e-05
0 4e-05
ITEM: ATOMS id type diameter x y z vx vy vz fx fy fz 
4 4 1.04153e-06 1.99994e-05 1.99913e-05 1.88203e-05 -1.23071e-13 -1.05291e-12 -9.94365e-12 -2.21952e-07 -1.89887e-06 -1.79328e-05 
2 2 1.27567e-06 2.00564e-05 1.83527e-05 1.96602e-05 1.00173e-12 -8.29806e-12 -5.48987e-12 2.46644e-06 -2.04314e-05 -1.35171e-05 
3 3 1.21616e-06 2.00122e-05 2.01007e-05 1.98531e-05 1.92191e-12 5.51653e-12 -8.11629e-12 4.86147e-06 1.39541e-05 -2.05302e-05 
7 2 1.20207e-06 1.99446e-05 1.92786e-05 2.02728e-05 -1.53031e-12 -9.46111e-12 2.85403e-12 -8.19922e-06 -5.06916e-05 1.52916e-05 
1 1 1.3552e-06 1.99996e-05 2.11794e-05 2.0013e-05 -2.90298e-14 9.94696e-12 1.0282e-12 -1.02117e-07 3.49901e-05 3.61686e-06 
6 4 8.99483e-07 1.99071e-05 2.21316e-05 2.05688e-05 -8.35458e-13 8.6062e-12 5.02348e-12 -3.49611e-07 3.6014e-06 2.10216e-06 
5 5 1.4839e-06 2.00039e-05 2.00528e-05 2.11671e-05 4.1578e-13 5.51048e-12 8.33437e-12 1.54498e-06 2.04762e-05 3.09694e-05 
8 4 9.75735e-07 1.94886e-05 2.20015e-05 1.9297e-05 -3.41926e-14 9.95722e-12 9.23319e-13 0 0 0 
ITEM: TIMESTEP
20000
ITEM: NUMBER OF ATOMS
9
ITEM: BOX BOUNDS ff ff ff
1e-05 3e-05
1e-05 3e-05
0 4e-05
ITEM: ATOMS id type diameter x y z vx vy vz fx fy fz 
4 4 1.04017e-06 1.99991e-05 1.99891e-05 1.88004e-05 -1.21692e-13 -1.14743e-12 -9.93321e-12 -2.37166e-07 -2.23624e-06 -1.93589e-05 
2 2 1.30379e-06 2.00584e-05 1.83362e-05 1.96491e-05 1.04126e-12 -8.21538e-12 -5.60565e-12 2.94969e-06 -2.32726e-05 -1.58798e-05 
3 3 1.23905e-06 2.00118e-05 2.01087e-05 1.98356e-05 -2.609e-12 2.68595e-12 -9.27247e-12 -1.18247e-05 1.21734e-05 -4.20253e-05 
7 2 1.22857e-06 1.99413e-05 1.926e-05 2.02795e-05 -1.72181e-12 -9.06735e-12 3.84949e-12 -8.47408e-06 -4.46259e-05 1.89457e-05 
1 1 1.09633e-06 2.02809e-05 2.07522e-05 2.04026e-05 3.79402e-12 9.23517e-12 5.6308e-13 2.67369e-05 6.50813e-05 3.96809e-06 
6 4 8.98304e-07 1.99054e-05 2.21488e-05 2.05789e-05 -8.421e-13 8.58665e-12 5.05572e-12 0 0 0 
5 5 1.4839e-06 2.00028e-05 2.00572e-05 2.11851e-05 -1.6466e-12 -1.28119e-12 9.77994e-12 -9.15066e-06 -7.11997e-06 5.43501e-05 
8 4 9.74456e-07 1.94843e-05 2.20183e-05 1.9292e-05 -4.23935e-12 6.82363e-12 -5.95533e-12 -4.05892e-05 6.53321e-05 -5.70186e-05 
9 1 1.10896e-06 1.9723e-05 2.16341e-05 1.96273e-05 4.23935e-12 -6.82363e-12 5.95533e-12 4.05892e-05 -6.53321e-05 5.70186e-05 
ITEM: TIMESTEP
22000
ITEM: NUMBER OF ATOMS
9
ITEM: BOX BOUNDS ff ff ff
1e-05 3e-05
1e-05 3e-05
0 4e-05
ITEM: ATOMS id type diameter x y z vx vy vz fx fy fz 
4 4 1.0388e-06 1.99989e-05 1.99867e-05 1.87806e-05 -6.87606e-14 -1.21943e-12 -9.92513e-12 -1.45902e-07 -2.58748e-06 -2.10599e-05 
8 4 9.73179e-07 1.94758e-05 2.20319e-05 1.92801e-05 -4.23935e-12 6.82363e-12 -5.95533e-12 -3.83291e-05 6.16943e-05 -5.38437e-05 
2 2 1.33253e-06 2.00605e-05 1.83198e-05 1.96378e-05 1.08148e-12 -8.12537e-12 -5.72789e-12 3.43383e-06 -2.57991e-05 -1.81868e-05 
3 3 1.26237e-06 2.00061e-05 2.01141e-05 1.98172e-05 -3.01397e-12 2.67277e-12 -9.15272e-12 -1.25836e-05 1.11591e-05 -3.82135e-05 
9 1 1.13693e-06 1.97315e-05 2.16205e-05 1.96392e-05 4.23935e-12 -6.82363e-12 5.95533e-12 3.83291e-05 -6.16943e-05 5.38437e-05 
7 2 1.25565e-06 1.99377e-05 1.92423e-05 2.02881e-05 -1.8432e-12 -8.61001e-12 4.74029e-12 -8.53714e-06 -3.9879e-05 2.19556e-05 
1 1 1.12391e-06 2.02886e-05 2.07706e-05 2.04041e-05 3.85409e-12 9.17892e-12 9.45227e-13 2.63602e-05 6.27795e-05 6.46491e-06 
6 4 8.97126e-07 1.99038e-05 2.2166e-05 2.0589e-05 -8.421e-13 8.58665e-12 5.05572e-12 0 0 0 
5 5 1.4839e-06 1.99994e-05 2.00547e-05 2.12047e-05 -1.70214e-12 -1.13238e-12 9.78879e-12 -8.52734e-06 -5.67295e-06 4.90397e-05 
ITEM: TIMESTEP
24000
ITEM: NUMBER OF ATOMS
9
ITEM: BOX BOUNDS ff ff ff
1e-05 3e-05
1e-05 3e-05
0 4e-05
ITEM: ATOMS id type diameter x y z vx vy vz fx fy fz 
4 4 1.03744e-06 1.99989e-05 1.99842e-05 1.87607e-05 -8.99172e-15 -1.29049e-12 -9.91638e-12 -2.0636e-08 -2.96167e-06 -2.27581e-05 
8 4 9.71903e-07 1.94674e-05 2.20456e-05 1.92682e-05 -4.23935e-12 6.82363e-12 -5.95533e-12 -3.60993e-05 5.81052e-05 -5.07113e-05 
2 2 1.3619e-06 2.00627e-05 1.83037e-05 1.96262e-05 1.12155e-12 -8.02932e-12 -5.85424e-12 3.91137e-06 -2.80019e-05 -2.04164e-05 
3 3 1.28612e-06 1.99998e-05 2.01193e-05 1.9799e-05 -3.30775e-12 2.57104e-12 -9.08012e-12 -1.33451e-05 1.03728e-05 -3.66336e-05 
9 1 1.1656e-06 1.97399e-05 2.16068e-05 1.96511e-05 4.23935e-12 -6.82363e-12 5.95533e-12 3.60993e-05 -5.81052e-05 5.07113e-05 
7 2 1.28333e-06 1.99339e-05 1.92256e-05 2.02984e-05 -1.94851e-12 -8.07625e-12 5.56575e-12 -8.63852e-06 -3.58051e-05 2.46751e-05 
1 1 1.15218e-06 2.02963e-05 2.07889e-05 2.04064e-05 3.91337e-12 9.1079e-12 1.31595e-12 2.60296e-05 6.05808e-05 8.75298e-06 
6 4 8.9595e-07 1.99021e-05 2.21831e-05 2.05991e-05 -8.421e-13 8.58665e-12 5.05572e-12 0 0 0 
5 5 1.4839e-06 1.9996e-05 2.00527e-05 2.12243e-05 -1.68008e-12 -8.85888e-13 9.81797e-12 -7.9367e-06 -4.18492e-06 4.638e-05 
ITEM: TIMESTEP
26000
ITEM: NUMBER OF ATOMS
10
ITEM: BOX BOUNDS ff ff ff
1e-05 3e-05
1e-05 3e-05
0 4e-05
ITEM: ATOMS id type diameter x y z vx vy vz fx fy fz 
4 4 1.03608e-06 1.99989e-05 1.99816e-05 1.87409e-05 5.72029e-14 -1.36069e-12 -9.90683e-12 1.4117e-07 -3.35804e-06 -2.44489e-05 
8 4 9.70629e-07 1.94589e-05 2.20592e-05 1.92563e-05 -4.23935e-12 6.82363e-12 -5.95533e-12 -3.39131e-05 5.45863e-05 -4.76402e-05 
2 2 1.14704e-06 2.00163e-05 1.88576e-05 1.95653e-05 1.02886e-12 -4.24162e-12 -8.99722e-12 8.13683e-06 -3.35451e-05 -7.1155e-05 
3 3 1.31033e-06 1.99929e-05 2.01244e-05 1.97809e-05 -3.57404e-12 2.52644e-12 -8.99129e-12 -1.41178e-05 9.97969e-06 -3.55164e-05 
9 1 1.19531e-06 1.97484e-05 2.15932e-05 1.9663e-05 4.23935e-12 -6.82363e-12 5.95533e-12 3.39131e-05 -5.45863e-05 4.76402e-05 
7 2 1.31162e-06 1.99304e-05 1.92142e-05 2.03134e-05 -1.54229e-12 -3.57968e-12 9.20908e-12 -1.26153e-05 -2.92803e-05 7.53265e-05 
1 1 1.18115e-06 2.03042e-05 2.0807e-05 2.04094e-05 3.97185e-12 9.02443e-12 1.66852e-12 2.57528e-05 5.85128e-05 1.08184e-05 
6 4 8.94776e-07 1.99004e-05 2.22003e-05 2.06092e-05 -8.421e-13 8.58665e-12 5.05572e-12 0 0 0 
5 5 1.4839e-06 1.99927e-05 2.00513e-05 2.1244e-05 -1.60779e-12 -4.279e-13 9.86062e-12 -7.32831e-06 -1.95037e-06 4.49446e-05 
10 2 1.05898e-06 2.01097e-05 1.77644e-05 1.96592e-05 8.47981e-13 -9.9274e-12 8.52991e-13 3.06336e-08 -3.5863e-07 3.08145e-08 
ITEM: TIMESTEP
28000
ITEM: NUMBER OF ATOMS
10
ITEM: BOX BOUNDS ff ff ff
1e-05 3e-05
1e-05 3e-05
0 4e-05
ITEM: ATOMS id type diameter x y z vx vy vz fx fy fz 
4 4 1.03472e-06 1.99991e-05 1.99788e-05 1.87211e-05 1.29001e-13 -1.43121e-12 -9.89621e-12 3.40506e-07 -3.77779e-06 -2.61217e-05 
8 4 9.69356e-07 1.94504e-05 2.20729e-05 1.92444e-05 -4.23917e-12 6.82384e-12 -5.95522e-12 -3.17589e-05 5.11227e-05 -4.46152e-05 
2 2 1.17233e-06 2.00184e-05 1.88495e-05 1.95471e-05 1.03347e-12 -3.83887e-12 -9.17579e-12 7.96913e-06 -2.96016e-05 -7.07546e-05 
3 3 1.33498e-06 1.99855e-05 2.01294e-05 1.9763e-05 -3.82206e-12 2.52911e-12 -8.88794e-12 -1.4935e-05 9.88267e-06 -3.47302e-05 
9 1 1.2258e-06 1.97569e-05 2.15795e-05 1.96749e-05 4.2082e-12 -6.85862e-12 5.9372e-12 2.94045e-05 -4.79242e-05 4.14859e-05 
7 2 1.34053e-06 1.99274e-05 1.92068e-05 2.03317e-05 -1.52001e-12 -3.84247e-12 9.10632e-12 -1.23966e-05 -3.13378e-05 7.42678e-05 
1 1 1.21085e-06 2.03124e-05 2.08248e-05 2.04133e-05 4.48221e-12 8.57557e-12 2.52377e-12 2.7933e-05 5.34428e-05 1.57281e-05 
6 4 8.93603e-07 1.98987e-05 2.22175e-05 2.06193e-05 -8.421e-13 8.58665e-12 5.05572e-12 0 0 0 
5 5 1.4839e-06 1.99896e-05 2.0051e-05 2.12637e-05 -1.50381e-12 1.53872e-13 9.88508e-12 -6.76704e-06 6.92413e-07 4.44822e-05 
10 2 1.08232e-06 2.01114e-05 1.77445e-05 1.96611e-05 8.34289e-13 -9.91254e-12 1.02252e-12 2.1035e-07 -2.49926e-06 2.5781e-07 
ITEM: TIMESTEP
30000
ITEM: NUMBER OF ATOMS
12
ITEM: BOX BOUNDS ff ff ff
1e-05 3e-05
1e-05 3e-05
0 4e-05
ITEM: ATOMS id type diameter x y z vx vy vz fx fy fz 
4 4 1.03337e-06 1.99994e-05 1.99759e-05 1.87013e-05 1.3494e-13 -1.38874e-12 -9.90218e-12 3.68424e-07 -3.79165e-06 -2.70357e-05 
8 4 9.68086e-07 1.94419e-05 2.20865e-05 1.92325e-05 -4.23696e-12 6.82638e-12 -5.95389e-12 -2.96253e-05 4.77308e-05 -4.16302e-05 
2 2 1.19817e-06 2.00205e-05 1.88422e-05 1.95286e-05 1.03524e-12 -3.42576e-12 -9.33769e-12 7.82021e-06 -2.58782e-05 -7.0537e-05 
3 3 1.36011e-06 1.99851e-05 2.01231e-05 1.97512e-05 3.50884e-12 -8.83811e-12 -3.09448e-12 5.58273e-05 -0.000140619 -4.92347e-05 
9 1 1.2571e-06 1.97652e-05 2.15657e-05 1.96867e-05 4.08894e-12 -6.99503e-12 5.8609e-12 2.2404e-05 -3.8327e-05 3.21129e-05 
7 2 1.37008e-06 1.99243e-05 1.91987e-05 2.03498e-05 -1.51158e-12 -4.34935e-12 8.87684e-12 -1.25585e-05 -3.61352e-05 7.37505e-05 
1 1 1.2413e-06 2.03224e-05 2.084e-05 2.04211e-05 5.38568e-12 6.70521e-12 5.10242e-12 5.08048e-05 6.32523e-05 4.81327e-05 
6 4 8.92431e-07 1.9897e-05 2.22347e-05 2.06294e-05 -8.421e-13 8.58665e-12 5.05572e-12 0 0 0 
5 5 1.4839e-06 1.99799e-05 2.00479e-05 2.12783e-05 -8.13872e-12 -3.20898e-12 4.84393e-12 -5.88729e-05 -2.32127e-05 3.50394e-05 
10 2 1.10618e-06 2.01131e-05 1.77247e-05 1.96633e-05 8.19769e-13 -9.89471e-12 1.19279e-12 3.73356e-07 -4.50646e-06 5.43246e-07 
11 4 9.32695e-07 1.98569e-05 2.03998e-05 1.97764e-05 -5.48269e-12 8.33317e-12 -7.05919e-13 -8.86519e-05 0.000134743 -1.14143e-05 
12 4 9.24217e-07 2.07745e-05 2.04557e-05 2.14349e-05 8.76296e-12 4.49734e-12 1.72754e-12 5.21106e-05 2.67443e-05 1.02731e-05 
ITEM: TIMESTEP
32000
ITEM: NUMBER OF ATOMS
14
ITEM: BOX BOUNDS ff ff ff
1e-05 3e-05
1e-05 3e-05
0 4e-05
ITEM: ATOMS id type diameter x y z vx vy vz fx fy fz 
4 4 1.03201e-06 2.00043e-05 1.99707e-05 1.86835e-05 4.81273e-12 -3.87181e-12 -7.86426e-12 1.96131e-05 -1.57787e-05 -3.20489e-05 
8 4 9.66817e-07 1.94335e-05 2.21002e-05 1.92206e-05 -4.23053e-12 6.83398e-12 -5.94973e-12 -2.75036e-05 4.44292e-05 -3.86805e-05 
10 2 1.13056e-06 2.01146e-05 1.77049e-05 1.96658e-05 7.46822e-13 -9.88726e-12 1.2978e-12 6.26292e-07 -8.29155e-06 1.08835e-06 
2 2 1.22458e-06 2.00298e-05 1.88278e-05 1.95184e-05 4.79947e-12 -7.0473e-12 -5.22501e-12 4.01557e-05 -5.89626e-05 -4.37161e-05 
7 2 1.15039e-06 1.96924e-05 1.93842e-05 1.98711e-05 -8.29845e-12 3.09637e-12 4.642e-12 -7.05329e-05 2.63177e-05 3.94548e-05 
3 3 1.03002e-06 2.03627e-05 1.9934e-05 2.0067e-05 8.60425e-12 -4.71073e-12 1.94315e-12 6.18255e-05 -3.38488e-05 1.39624e-05 
11 4 9.31472e-07 1.98536e-05 2.04138e-05 1.97836e-05 2.15492e-12 5.6995e-12 7.92919e-12 1.23699e-05 3.27168e-05 4.55159e-05 
9 1 1.28924e-06 1.97732e-05 2.15514e-05 1.96983e-05 3.82645e-12 -7.28974e-12 5.67609e-12 1.5419e-05 -2.93746e-05 2.28723e-05 
1 1 1.27252e-06 2.03331e-05 2.08539e-05 2.04308e-05 5.34287e-12 7.05539e-12 4.65567e-12 3.89342e-05 5.14135e-05 3.39264e-05 
13 2 1.06947e-06 2.01283e-05 1.90095e-05 2.07976e-05 2.04972e-12 -9.36882e-12 -2.83263e-12 5.1225e-06 -2.34138e-05 -7.07909e-06 
6 4 8.91262e-07 1.98953e-05 2.22518e-05 2.06396e-05 -8.421e-13 8.58665e-12 5.05572e-12 0 0 0 
5 5 1.4839e-06 1.9962e-05 2.00417e-05 2.12846e-05 -8.90622e-12 -3.07592e-12 3.34932e-12 -5.77187e-05 -1.99342e-05 2.1706e-05 
12 4 9.23005e-07 2.0792e-05 2.04647e-05 2.14383e-05 8.79104e-12 4.47994e-12 1.62715e-12 4.55875e-05 2.32315e-05 8.43788e-06 
14 3 1.16176e-06 1.95744e-05 2.03165e-05 1.93859e-05 -7.83947e-12 1.07414e-12 -6.11465e-12 -8.38985e-05 1.14955e-05 -6.54394e-05 
ITEM: TIMESTEP
34000
ITEM: NUMBER OF ATOMS
14
ITEM: BOX BOUNDS ff ff ff
1e-05 3e-05
1e-05 3e-05
0 4e-05
ITEM: ATOMS id type diameter x y z vx vy vz fx fy fz 
4 4 1.03066e-06 2.00141e-05 1.99629e-05 1.86679e-05 4.99083e-12 -3.90316e-12 -7.73673e-12 1.94688e-05 -1.52259e-05 -3.01804e-05 
8 4 9.65549e-07 1.9425e-05 2.21139e-05 1.92087e-05 -4.21506e-12 6.85232e-12 -5.93961e-12 -2.53686e-05 4.12411e-05 -3.57479e-05 
10 2 1.15548e-06 2.0116e-05 1.76852e-05 1.96685e-05 6.68266e-13 -9.87794e-12 1.40704e-12 8.11059e-07 -1.19886e-05 1.70769e-06 
2 2 1.25157e-06 2.00397e-05 1.8814e-05 1.95077e-05 5.0584e-12 -6.65183e-12 -5.49233e-12 4.01921e-05 -5.28529e-05 -4.36399e-05 
7 2 1.17575e-06 1.96755e-05 1.93899e-05 1.98801e-05 -8.58191e-12 2.65606e-12 4.39274e-12 -7.39974e-05 2.29019e-05 3.78763e-05 
3 3 1.0494e-06 2.038e-05 1.99246e-05 2.00706e-05 8.67369e-12 -4.69316e-12 1.65571e-12 6.28865e-05 -3.40266e-05 1.20043e-05 
11 4 9.30251e-07 1.98575e-05 2.04253e-05 1.97995e-05 1.73188e-12 5.5501e-12 8.13615e-12 8.83701e-06 2.83197e-05 4.15152e-05 
9 1 1.322e-06 1.97803e-05 2.15363e-05 1.97093e-05 3.29047e-12 -7.73623e-12 5.41513e-12 8.19178e-06 -1.92597e-05 1.34812e-05 
1 1 1.30459e-06 2.03443e-05 2.0867e-05 2.04409e-05 5.80667e-12 6.0539e-12 5.44361e-12 4.58766e-05 4.78299e-05 4.30082e-05 
13 2 1.09304e-06 2.01331e-05 1.89906e-05 2.07933e-05 2.79282e-12 -9.49317e-12 -1.44221e-12 6.85379e-06 -2.3297e-05 -3.53931e-06 
6 4 8.90093e-07 1.98937e-05 2.2269e-05 2.06497e-05 -8.421e-13 8.58665e-12 5.05572e-12 0 0 0 
5 5 1.4839e-06 1.99443e-05 2.00356e-05 2.12917e-05 -8.77972e-12 -3.00334e-12 3.7278e-12 -5.16568e-05 -1.76706e-05 2.19331e-05 
12 4 9.21795e-07 2.08096e-05 2.04736e-05 2.14414e-05 8.81769e-12 4.46328e-12 1.52563e-12 3.90615e-05 1.97719e-05 6.75841e-06 
14 3 1.18362e-06 1.95589e-05 2.03189e-05 1.93736e-05 -7.72475e-12 1.35702e-12 -6.20377e-12 -8.11564e-05 1.42569e-05 -6.5177e-05 
ITEM: TIMESTEP
36000
ITEM: NUMBER OF ATOMS
14
ITEM: BOX BOUNDS ff ff ff
1e-05 3e-05
1e-05 3e-05
0 4e-05
ITEM: ATOMS id type diameter x y z vx vy vz fx fy fz 
4 4 1.02931e-06 2.00242e-05 1.9955e-05 1.86526e-05 5.16048e-12 -3.93858e-12 -7.60638e-12 1.92139e-05 -1.46644e-05 -2.83206e-05 
8 4 9.64284e-07 1.94166e-05 2.21276e-05 1.91968e-05 -4.18351e-12 6.86739e-12 -5.94451e-12 -2.32128e-05 3.81046e-05 -3.29839e-05 
10 2 1.18095e-06 2.01173e-05 1.76654e-05 1.96714e-05 5.84143e-13 -9.86651e-12 1.52012e-12 9.21879e-07 -1.55711e-05 2.39901e-06 
2 2 1.27916e-06 2.005e-05 1.88012e-05 1.94964e-05 5.32451e-12 -6.19569e-12 -5.76741e-12 4.03852e-05 -4.69929e-05 -4.37446e-05 
7 2 1.20166e-06 1.96581e-05 1.93948e-05 1.98887e-05 -8.7877e-12 2.19836e-12 4.23598e-12 -7.72432e-05 1.93235e-05 3.7234e-05 
3 3 1.06915e-06 2.03974e-05 1.99152e-05 2.00736e-05 8.70646e-12 -4.73224e-12 1.34293e-12 6.3785e-05 -3.46692e-05 9.83853e-06 
11 4 9.29032e-07 1.98605e-05 2.0435e-05 1.98166e-05 1.29011e-12 4.17435e-12 8.99502e-12 5.4997e-06 1.77951e-05 3.83455e-05 
9 1 1.35561e-06 1.97858e-05 2.15215e-05 1.97214e-05 1.39995e-12 -5.17063e-12 8.44421e-12 6.90536e-07 -2.55044e-06 4.16516e-06 
1 1 1.33747e-06 2.03562e-05 2.08782e-05 2.04524e-05 6.10551e-12 5.20614e-12 5.96815e-12 5.29421e-05 4.51434e-05 5.1751e-05 
13 2 1.11713e-06 2.01394e-05 1.89717e-05 2.07917e-05 3.40553e-12 -9.39827e-12 -2.73534e-13 8.37556e-06 -2.31141e-05 -6.72729e-07 
6 4 8.88926e-07 1.9892e-05 2.22862e-05 2.06598e-05 -8.421e-13 8.58665e-12 5.05572e-12 0 0 0 
5 5 1.4839e-06 1.99269e-05 2.00297e-05 2.12996e-05 -8.60022e-12 -2.92386e-12 4.18177e-12 -4.56368e-05 -1.55154e-05 2.21905e-05 
12 4 9.20587e-07 2.08273e-05 2.04826e-05 2.14444e-05 8.84294e-12 4.44756e-12 1.42185e-12 3.2552e-05 1.6372e-05 5.23399e-06 
14 3 1.20589e-06 1.95436e-05 2.03219e-05 1.9361e-05 -7.57563e-12 1.58136e-12 -6.33318e-12 -7.8273e-05 1.6339e-05 -6.54358e-05 
ITEM: TIMESTEP
38000
ITEM: NUMBER OF ATOMS
15
ITEM: BOX BOUNDS ff ff ff
1e-05 3e-05
1e-05 3e-05
0 4e-05
ITEM: ATOMS id type diameter x y z vx vy vz fx fy fz 
4 4 1.02796e-06 2.00347e-05 1.99471e-05 1.86375e-05 5.32185e-12 -3.97742e-12 -7.47383e-12 1.88667e-05 -1.41005e-05 -2.64958e-05 
8 4 9.6302e-07 1.94075e-05 2.2143e-05 1.91922e-05 -4.98993e-12 8.56216e-12 1.33793e-12 -2.81669e-05 4.83312e-05 7.55225e-06 
10 2 1.20698e-06 2.01184e-05 1.76457e-05 1.96746e-05 4.94606e-13 -9.85277e-12 1.63655e-12 9.54249e-07 -1.9009e-05 3.15741e-06 
2 2 1.30735e-06 2.0061e-05 1.87893e-05 1.94846e-05 5.58821e-12 -5.68013e-12 -6.04218e-12 4.07385e-05 -4.14086e-05 -4.4048e-05 
7 2 1.22815e-06 1.96404e-05 1.93988e-05 1.98971e-05 -8.92457e-12 1.78374e-12 4.1437e-12 -8.02759e-05 1.60446e-05 3.72723e-05 
3 3 1.08927e-06 2.04148e-05 1.99056e-05 2.00759e-05 8.66659e-12 -4.89477e-12 9.65116e-13 6.41689e-05 -3.62417e-05 7.14588e-06 
11 4 9.27814e-07 1.9862e-05 2.04449e-05 1.98338e-05 1.53616e-13 5.93422e-12 8.04745e-12 6.46358e-07 2.49689e-05 3.38605e-05 
9 1 1.1494e-06 1.97964e-05 2.15215e-05 2.04188e-05 -9.01561e-12 3.59296e-12 -2.41028e-12 -5.81264e-05 2.3165e-05 -1.55398e-05 
1 1 1.37118e-06 2.03717e-05 2.08846e-05 2.04616e-05 9.34143e-12 1.42793e-12 3.27089e-12 8.72379e-05 1.33352e-05 3.05462e-05 
13 2 1.14176e-06 2.01467e-05 1.89531e-05 2.07921e-05 3.90509e-12 -9.181e-12 6.77887e-13 9.73307e-06 -2.28828e-05 1.68957e-06 
6 4 8.87761e-07 1.98922e-05 2.23042e-05 2.06678e-05 1.15897e-12 9.46498e-12 3.01179e-12 4.44017e-06 3.62616e-05 1.15386e-05 
5 5 1.4839e-06 1.99099e-05 2.0024e-05 2.13085e-05 -8.3637e-12 -2.78915e-12 4.71902e-12 -3.96502e-05 -1.32227e-05 2.23717e-05 
12 4 9.1938e-07 2.0845e-05 2.04914e-05 2.14471e-05 8.86692e-12 4.43281e-12 1.3145e-12 2.60854e-05 1.30408e-05 3.86711e-06 
14 3 1.22859e-06 1.95286e-05 2.03254e-05 1.93483e-05 -7.38198e-12 1.97816e-12 -6.44928e-12 -7.48187e-05 2.00493e-05 -6.53656e-05 
15 1 1.05286e-06 1.97696e-05 2.15216e-05 1.90951e-05 4.98993e-12 -8.56216e-12 -1.33793e-12 2.81669e-05 -4.83312e-05 -7.55225e-06 
ITEM: TIMESTEP
40000
ITEM: NUMBER OF ATOMS
16
ITEM: BOX BOUNDS ff ff ff
1e-05 3e-05
1e-05 3e-05
0 4e-05
ITEM: ATOMS id type diameter x y z vx vy vz fx fy fz 
4 4 1.02661e-06 2.00455e-05 1.99391e-05 1.86227e-05 5.47416e-12 -4.02148e-12 -7.33902e-12 1.84128e-05 -1.35266e-05 -2.46855e-05 
8 4 9.61757e-07 1.93975e-05 2.21601e-05 1.91948e-05 -4.98993e-12 8.56216e-12 1.33793e-12 -2.54492e-05 4.36679e-05 6.82356e-06 
10 2 1.23359e-06 2.01193e-05 1.7626e-05 1.9678e-05 4.00078e-13 -9.83655e-12 1.75561e-12 9.05993e-07 -2.22753e-05 3.97566e-06 
2 2 1.33617e-06 2.00724e-05 1.87785e-05 1.94723e-05 5.83814e-12 -5.11395e-12 -6.30585e-12 4.12337e-05 -3.61189e-05 -4.4537e-05 
7 2 1.25522e-06 1.96225e-05 1.9402e-05 1.99053e-05 -8.99785e-12 1.45589e-12 4.11328e-12 -8.35098e-05 1.35122e-05 3.81757e-05 
3 3 1.10977e-06 2.04297e-05 1.98974e-05 2.00654e-05 7.39997e-12 -4.15417e-12 -5.28993e-12 7.65497e-05 -4.29732e-05 -5.47222e-05 
11 4 9.26598e-07 1.98673e-05 2.04577e-05 1.98482e-05 2.44231e-12 6.69193e-12 7.01807e-12 1.78328e-05 4.8862e-05 5.12434e-05 
9 1 1.17836e-06 1.97775e-05 2.15153e-05 2.04211e-05 -9.44827e-12 -3.04767e-12 1.2008e-12 -8.48382e-05 -2.73657e-05 1.07823e-05 
1 1 1.04003e-06 2.04465e-05 2.14628e-05 2.02429e-05 9.63523e-12 -7.55935e-13 -2.56727e-12 7.99561e-05 -6.27298e-06 -2.1304e-05 
13 2 1.16692e-06 2.01549e-05 1.8935e-05 2.07943e-05 4.32838e-12 -8.88207e-12 1.54077e-12 1.0789e-05 -2.21396e-05 3.84057e-06 
6 4 8.86597e-07 1.98948e-05 2.23232e-05 2.06738e-05 1.37204e-12 9.45376e-12 2.957e-12 4.88203e-06 3.36387e-05 1.05217e-05 
5 5 1.4839e-06 1.98966e-05 2.00201e-05 2.13229e-05 -6.58324e-12 -1.97713e-12 7.26305e-12 -8.33667e-05 -2.50373e-05 9.19755e-05 
12 4 9.18175e-07 2.08613e-05 2.04995e-05 2.14553e-05 8.09022e-12 3.96899e-12 4.33538e-12 3.0086e-05 1.47599e-05 1.61224e-05 
14 3 1.2517e-06 1.9514e-05 2.03296e-05 1.93353e-05 -7.23013e-12 2.23861e-12 -6.53558e-12 -7.19411e-05 2.22746e-05 -6.50303e-05 
15 1 1.07966e-06 1.97796e-05 2.15045e-05 1.90924e-05 4.98993e-12 -8.56216e-12 -1.33793e-12 2.54492e-05 -4.36679e-05 -6.82356e-06 
16 1 1.18238e-06 2.03196e-05 2.02412e-05 2.06991e-05 5.5321e-12 8.06029e-12 -2.10417e-12 4.30076e-05 6.26623e-05 -1.63582e-05 
ITEM: TIMESTEP
42000
ITEM: NUMBER OF ATOMS
16
ITEM: BOX BOUNDS ff ff ff
1e-05 3e-05
1e-05 3e-05
0 4e-05
ITEM: ATOMS id type diameter x y z vx vy vz fx fy fz 
4 4 1.02527e-06 2.00566e-05 1.9931e-05 1.86081e-05 5.61836e-12 -4.06852e-12 -7.20286e-12 1.78692e-05 -1.294e-05 -2.29087e-05 
2 2 1.36562e-06 2.00843e-05 1.87689e-05 1.94594e-05 6.0642e-12 -4.51121e-12 -6.54786e-12 4.18587e-05 -3.1139e-05 -4.51973e-05 
14 3 1.27526e-06 1.94997e-05 2.03343e-05 1.93221e-05 -7.05582e-12 2.47878e-12 -6.63861e-12 -6.8957e-05 2.42252e-05 -6.48795e-05 
15 1 1.10716e-06 1.97895e-05 2.14874e-05 1.90897e-05 4.98993e-12 -8.56216e-12 -1.33793e-12 2.27667e-05 -3.90652e-05 -6.10433e-06 
8 4 9.60497e-07 1.93875e-05 2.21772e-05 1.91975e-05 -4.98993e-12 8.56216e-12 1.33793e-12 -2.27667e-05 3.90652e-05 6.10433e-06 
10 2 1.26078e-06 2.012e-05 1.76063e-05 1.96816e-05 3.01242e-13 -9.81776e-12 1.87641e-12 7.77778e-07 -2.53485e-05 4.84471e-06 
7 2 1.28289e-06 1.96044e-05 1.94046e-05 1.99136e-05 -9.03079e-12 1.20817e-12 4.12131e-12 -8.65073e-05 1.15733e-05 3.94787e-05 
11 4 9.25383e-07 1.98718e-05 2.04716e-05 1.98619e-05 2.00093e-12 7.19779e-12 6.64741e-12 1.34808e-05 4.84934e-05 4.47853e-05 
3 3 1.13065e-06 2.04444e-05 1.9889e-05 2.00547e-05 7.27274e-12 -4.26396e-12 -5.37828e-12 7.75047e-05 -4.54405e-05 -5.73156e-05 
1 1 1.06626e-06 2.04658e-05 2.14614e-05 2.02378e-05 9.65108e-12 -6.5383e-13 -2.53558e-12 7.80624e-05 -5.28849e-06 -2.05089e-05 
9 1 1.20806e-06 1.97586e-05 2.15093e-05 2.04236e-05 -9.47855e-12 -2.93247e-12 1.24807e-12 -8.32488e-05 -2.57555e-05 1.09617e-05 
13 2 1.19265e-06 2.01639e-05 1.89176e-05 2.07982e-05 4.67693e-12 -8.54901e-12 2.24516e-12 1.17722e-05 -2.15186e-05 5.65128e-06 
16 1 1.2122e-06 2.03308e-05 2.02575e-05 2.0696e-05 5.59545e-12 8.21446e-12 -1.10163e-12 4.37974e-05 6.42973e-05 -8.62279e-06 
6 4 8.85435e-07 1.98977e-05 2.23421e-05 2.06797e-05 1.57687e-12 9.43862e-12 2.90275e-12 5.1864e-06 3.1044e-05 9.54725e-06 
5 5 1.4839e-06 1.98836e-05 2.00161e-05 2.13375e-05 -6.423e-12 -2.02925e-12 7.39102e-12 -7.66603e-05 -2.42197e-05 8.82139e-05 
12 4 9.16972e-07 2.08773e-05 2.05073e-05 2.14646e-05 7.82095e-12 3.74983e-12 4.97709e-12 2.50638e-05 1.20171e-05 1.595e-05 
ITEM: TIMESTEP
44000
ITEM: NUMBER OF ATOMS
17
ITEM: BOX BOUNDS ff ff ff
1e-05 3e-05
1e-05 3e-05
0 4e-05
ITEM: ATOMS id type diameter x y z vx vy vz fx fy fz 
4 4 1.02392e-06 2.0068e-05 1.99229e-05 1.85939e-05 5.75498e-12 -4.11762e-12 -7.06579e-12 1.72528e-05 -1.23442e-05 -2.11825e-05 
2 2 1.16501e-06 1.96344e-05 1.86844e-05 1.98035e-05 1.0785e-13 -9.78061e-12 -2.08038e-12 1.05068e-06 -9.52834e-05 -2.02672e-05 
14 3 1.29926e-06 1.94857e-05 2.03394e-05 1.93087e-05 -6.96942e-12 2.42161e-12 -6.75003e-12 -6.7518e-05 2.34599e-05 -6.53926e-05 