ITEM: TIMESTEP
0
ITEM: NUMBER OF ATOMS
5
ITEM: BOX BOUNDS ff ff ff
1e-05 3e-05
1e-05 3e-05
0 4e-05
ITEM: ATOMS id type diameter x y z vx vy vz fx fy fz 
1 1 1.0839e-06 2e-05 1.5e-05 8.6e-07 0 0 0 0 0 -1.47019e-16 
4 4 1.0539e-06 1.5e-05 2e-05 9.6e-07 0 0 0 0 0 -1.35147e-16 
2 2 1.2839e-06 2e-05 2e-05 9.26e-07 0 0 0 0 0 -2.44344e-16 
3 3 1.0283e-06 2e-05 2.5e-05 8.6e-07 0 0 0 0 0 -1.25536e-16 
5 5 1.4839e-06 2.5e-05 2e-05 1.06e-06 0 0 0 0 0 -3.77243e-16 
ITEM: TIMESTEP
2000
ITEM: NUMBER OF ATOMS
7
ITEM: BOX BOUNDS ff ff ff
1e-05 3e-05
1e-05 3e-05
0 4e-05
ITEM: ATOMS id type diameter x y z vx vy vz fx fy fz 
1 1 1.11111e-06 2e-05 1.5e-05 5.56e-07 0 0 -1e-09 0 0 -1.58374e-16 
4 4 1.05252e-06 1.5e-05 2e-05 5.26e-07 0 0 1e-09 0 0 5.18476e-08 
2 2 1.31229e-06 2e-05 2e-05 6.56e-07 0 0 1e-09 0 0 2.94454e-08 
3 3 1.03605e-06 2e-05 2.5e-05 5.18e-07 0 0 1e-09 0 0 5.23421e-09 
5 5 1.21169e-06 2.50525e-05 1.94454e-05 6.06298e-07 8.74036e-11 -9.23485e-10 -3.73545e-10 3.33186e-08 -3.52036e-07 -1.42397e-07 
6 5 1.14178e-06 2.49498e-05 2.05303e-05 1.04515e-06 -8.74036e-11 9.23485e-10 3.73545e-10 -3.33186e-08 3.52036e-07 1.42397e-07 
7 4 9.10165e-07 1.99096e-05 1.59556e-05 1.41315e-06 0 0 -1e-09 0 0 0 
ITEM: TIMESTEP
4000
ITEM: NUMBER OF ATOMS
7
ITEM: BOX BOUNDS ff ff ff
1e-05 3e-05
1e-05 3e-05
0 4e-05
ITEM: ATOMS id type diameter x y z vx vy vz fx fy fz 
1 1 1.13901e-06 2e-05 1.5e-05 5.7e-07 0 0 -1e-09 0 0 -1.70604e-16 
4 4 1.05114e-06 1.5e-05 2e-05 5.26e-07 0 0 -1e-09 0 0 -1.34087e-16 
2 2 1.34132e-06 2e-05 2e-05 6.7e-07 0 0 1e-09 0 0 1.31687e-07 
3 3 1.04386e-06 2e-05 2.5e-05 5.22e-07 0 0 -1e-09 0 0 -1.31322e-16 
5 5 1.21169e-06 2.50526e-05 1.94443e-05 6.06217e-07 8.76585e-11 -9.26178e-10 -3.66756e-10 1.38801e-08 -1.46654e-07 -5.80735e-08 
6 5 1.14178e-06 2.49495e-05 2.05334e-05 1.0375e-06 -8.76585e-11 9.26178e-10 3.66756e-10 -1.38801e-08 1.46654e-07 5.80735e-08 
7 4 9.10165e-07 1.99096e-05 1.59556e-05 1.41315e-06 0 0 -1e-09 0 0 0 
ITEM: TIMESTEP
6000
ITEM: NUMBER OF ATOMS
7
ITEM: BOX BOUNDS ff ff ff
1e-05 3e-05
1e-05 3e-05
0 4e-05
ITEM: ATOMS id type diameter x y z vx vy vz fx fy fz 
1 1 1.16761e-06 2e-05 1.5e-05 5.84e-07 0 0 -1e-09 0 0 -1.8378e-16 
4 4 1.04976e-06 1.5e-05 2e-05 5.24e-07 0 0 1e-09 0 0 1.76086e-07 
2 2 1.37098e-06 2e-05 2e-05 6.86e-07 0 0 -1e-09 0 0 -2.9751e-16 
3 3 1.05173e-06 2e-05 2.5e-05 5.26e-07 0 0 -1e-09 0 0 -1.34315e-16 
5 5 1.21169e-06 2.50526e-05 1.94438e-05 6.06297e-07 8.77493e-11 -9.27137e-10 -3.64303e-10 6.92125e-09 -7.31283e-08 -2.87345e-08 
6 5 1.14178e-06 2.49494e-05 2.05344e-05 1.03484e-06 -8.77493e-11 9.27137e-10 3.64303e-10 -6.92125e-09 7.31283e-08 2.87345e-08 
7 4 9.10165e-07 1.99096e-05 1.59556e-05 1.41315e-06 0 0 -1e-09 0 0 0 
ITEM: TIMESTEP
8000
ITEM: NUMBER OF ATOMS
7
ITEM: BOX BOUNDS ff ff ff
1e-05 3e-05
1e-05 3e-05
0 4e-05
ITEM: ATOMS id type diameter x y z vx vy vz fx fy fz 
1 1 1.19692e-06 2e-05 1.5e-05 5.98e-07 0 0 1e-09 0 0 9.2172e-08 
4 4 1.04838e-06 1.5e-05 2e-05 5.24e-07 0 0 1e-09 0 0 3.84761e-08 
2 2 1.4013e-06 2e-05 2e-05 7e-07 0 0 1e-09 0 0 1.30147e-07 
3 3 1.05966e-06 2e-05 2.5e-05 5.3e-07 0 0 -1e-09 0 0 -1.37375e-16 
5 5 1.21169e-06 2.50527e-05 1.94435e-05 6.06389e-07 8.77973e-11 -9.27645e-10 -3.62996e-10 3.22241e-09 -3.40472e-08 -1.3323e-08 
6 5 1.14178e-06 2.49494e-05 2.0535e-05 1.03347e-06 -8.77973e-11 9.27645e-10 3.62996e-10 -3.22241e-09 3.40472e-08 1.3323e-08 
7 4 9.10165e-07 1.99096e-05 1.59556e-05 1.41315e-06 0 0 -1e-09 0 0 0 
ITEM: TIMESTEP
10000
ITEM: NUMBER OF ATOMS
8
ITEM: BOX BOUNDS ff ff ff
1e-05 3e-05
1e-05 3e-05
0 4e-05
ITEM: ATOMS id type diameter x y z vx vy vz fx fy fz 
1 1 1.22697e-06 2e-05 1.5e-05 6.14e-07 0 0 -1e-09 0 0 -2.13261e-16 
4 4 1.04701e-06 1.5e-05 2e-05 5.24e-07 0 0 -1e-09 0 0 -1.32514e-16 
2 2 1.13028e-06 2.02764e-05 1.95555e-05 1.09796e-06 -4.88813e-10 7.86123e-10 -3.78249e-10 -1.67669e-13 2.69651e-13 -1.29744e-13 
3 3 1.06765e-06 2e-05 2.5e-05 5.34e-07 0 0 -1e-09 0 0 -1.40506e-16 
5 5 1.21169e-06 2.50527e-05 1.94434e-05 6.06346e-07 8.78236e-11 -9.27922e-10 -3.62281e-10 1.15034e-09 -1.21542e-08 -4.74527e-09 
6 5 1.14178e-06 2.49493e-05 2.05353e-05 1.03263e-06 -8.78236e-11 9.27922e-10 3.62281e-10 -1.15034e-09 1.21542e-08 4.74527e-09 
7 4 9.10165e-07 1.99096e-05 1.59556e-05 1.41315e-06 0 0 -1e-09 0 0 0 
8 2 1.14326e-06 1.97205e-05 2.04495e-05 6.68336e-07 4.88996e-10 -7.86417e-10 3.77401e-10 1.67669e-13 -2.69651e-13 1.29405e-13 
ITEM: TIMESTEP
12000
ITEM: NUMBER OF ATOMS
9
ITEM: BOX BOUNDS ff ff ff
1e-05 3e-05
1e-05 3e-05
0 4e-05
ITEM: ATOMS id type diameter x y z vx vy vz fx fy fz 
1 1 1.25778e-06 2.00749e-05 1.48796e-05 6.39469e-07 -5.23205e-10 8.41433e-10 -1.35078e-10 -7.41351e-14 1.19226e-13 -1.91397e-14 
5 5 1.21169e-06 2.50527e-05 1.94434e-05 6.06239e-07 -8.78598e-11 9.28306e-10 3.61288e-10 -2.73171e-14 2.88625e-13 1.1233e-13 
4 4 1.04564e-06 1.5e-05 2e-05 5.22e-07 0 0 1e-09 0 0 1.63797e-07 
8 2 1.16855e-06 1.97147e-05 2.04588e-05 6.63433e-07 -4.88901e-10 7.86264e-10 -3.77844e-10 -8.26347e-08 1.32895e-07 -6.38636e-08 
3 3 1.0757e-06 2e-05 2.5e-05 5.38e-07 0 0 -1e-09 0 0 -1.43708e-16 
7 4 9.10165e-07 1.99096e-05 1.59556e-05 1.41315e-06 0 0 -1e-09 0 0 0 
2 2 1.15528e-06 2.02823e-05 1.95459e-05 1.10214e-06 4.88901e-10 -7.86264e-10 3.77844e-10 8.26347e-08 -1.32895e-07 6.38636e-08 
6 5 1.14178e-06 2.49493e-05 2.05355e-05 1.03206e-06 8.78213e-11 -9.27898e-10 -3.62343e-10 2.73171e-14 -2.88625e-13 -1.12708e-13 
9 4 9.80046e-07 1.9489e-05 1.58218e-05 4.90023e-07 0 0 -1e-09 7.41351e-14 -1.19226e-13 1.89099e-14 
ITEM: TIMESTEP
14000
ITEM: NUMBER OF ATOMS
9
ITEM: BOX BOUNDS ff ff ff
1e-05 3e-05
1e-05 3e-05
0 4e-05
ITEM: ATOMS id type diameter x y z vx vy vz fx fy fz 
1 1 1.28936e-06 2.0083e-05 1.48665e-05 6.44816e-07 -5.23018e-10 8.41131e-10 -1.37662e-10 -9.46185e-14 1.52168e-13 -2.49044e-14 
5 5 1.21169e-06 2.50527e-05 1.94435e-05 6.05926e-07 -8.78581e-11 9.28287e-10 3.61336e-10 -3.63508e-14 3.84074e-13 1.49501e-13 
4 4 1.04427e-06 1.5e-05 2e-05 5.22e-07 0 0 1e-09 0 0 2.67281e-08 
8 2 1.19439e-06 1.97079e-05 2.04697e-05 6.57862e-07 4.88953e-10 -7.86347e-10 3.77601e-10 3.29587e-13 -5.3005e-13 2.54528e-13 
3 3 1.08381e-06 2e-05 2.5e-05 5.42e-07 0 0 -1e-09 0 0 -1.46983e-16 
7 4 9.10165e-07 1.99096e-05 1.59556e-05 1.41315e-06 0 0 -1e-09 0 0 0 
2 2 1.18083e-06 2.02892e-05 1.95348e-05 1.10715e-06 -4.88847e-10 7.86177e-10 -3.78093e-10 -3.29587e-13 5.3005e-13 -2.54915e-13 
6 5 1.14178e-06 2.49493e-05 2.05357e-05 1.03164e-06 8.78291e-11 -9.27981e-10 -3.62128e-10 3.63508e-14 -3.84074e-13 -1.49878e-13 
9 4 9.80046e-07 1.9489e-05 1.58218e-05 4.90023e-07 0 0 -1e-09 9.46185e-14 -1.52168e-13 2.46569e-14 
ITEM: TIMESTEP
16000
ITEM: NUMBER OF ATOMS
9
ITEM: BOX BOUNDS ff ff ff
1e-05 3e-05
1e-05 3e-05
0 4e-05
ITEM: ATOMS id type diameter x y z vx vy vz fx fy fz 
1 1 1.32173e-06 2.00902e-05 1.48549e-05 6.61009e-07 -5.22098e-10 8.39652e-10 -1.49662e-10 -1.18276e-13 1.90215e-13 -3.39046e-14 
5 5 1.21169e-06 2.50527e-05 1.94434e-05 6.0593e-07 -8.78652e-11 9.28362e-10 3.61141e-10 -4.64665e-14 4.90954e-13 1.90985e-13 
4 4 1.0429e-06 1.5e-05 2e-05 5.22e-07 0 0 -1e-09 0 0 -1.30959e-16 
8 2 1.22081e-06 1.97021e-05 2.04791e-05 6.53105e-07 -4.88898e-10 7.86259e-10 -3.77858e-10 -7.88662e-08 1.26835e-07 -6.09539e-08 
3 3 1.09198e-06 2e-05 2.5e-05 5.46e-07 0 0 -1e-09 0 0 -1.50332e-16 
7 4 9.10165e-07 1.99096e-05 1.59556e-05 1.41315e-06 0 0 -1e-09 0 0 0 
2 2 1.20695e-06 2.02952e-05 1.95253e-05 1.11147e-06 4.88898e-10 -7.86259e-10 3.77858e-10 7.88662e-08 -1.26835e-07 6.09539e-08 
6 5 1.14178e-06 2.49493e-05 2.05358e-05 1.03132e-06 8.78426e-11 -9.28123e-10 -3.61761e-10 4.64665e-14 -4.90954e-13 -1.91363e-13 
9 4 9.80046e-07 1.9489e-05 1.58218e-05 4.90023e-07 0 0 -1e-09 1.18276e-13 -1.90215e-13 3.3638e-14 
ITEM: TIMESTEP
18000
ITEM: NUMBER OF ATOMS
9
ITEM: BOX BOUNDS ff ff ff
1e-05 3e-05
1e-05 3e-05
0 4e-05
ITEM: ATOMS id type diameter x y z vx vy vz fx fy fz 
1 1 1.35491e-06 2.00973e-05 1.48435e-05 6.77454e-07 5.20764e-10 -8.37507e-10 1.65491e-10 3.42305e-08 -5.50504e-08 1.08779e-08 
5 5 1.21169e-06 2.50527e-05 1.94434e-05 6.06004e-07 -8.78735e-11 9.2845e-10 3.60914e-10 -5.76124e-14 6.08718e-13 2.36626e-13 
4 4 1.04153e-06 1.5e-05 2e-05 5.2e-07 0 0 1e-09 0 0 1.53128e-07 
8 2 1.24781e-06 1.96953e-05 2.04901e-05 6.47631e-07 4.88933e-10 -7.86315e-10 3.77694e-10 5.57294e-13 -8.96255e-13 4.30502e-13 
3 3 1.10021e-06 2e-05 2.5e-05 5.5e-07 0 0 1e-09 0 0 2.12526e-08 
7 4 9.10165e-07 1.99096e-05 1.59556e-05 1.41315e-06 0 0 -1e-09 0 0 0 
2 2 1.23364e-06 2.0302e-05 1.95143e-05 1.11659e-06 -4.88861e-10 7.862e-10 -3.78026e-10 -5.57294e-13 8.96255e-13 -4.30943e-13 
6 5 1.14178e-06 2.49493e-05 2.05359e-05 1.03107e-06 8.78552e-11 -9.28257e-10 -3.61414e-10 5.76124e-14 -6.08718e-13 -2.37003e-13 
9 4 9.80046e-07 1.9489e-05 1.58218e-05 4.90023e-07 0 0 -1e-09 -3.38837e-08 5.44927e-08 -1.04402e-08 
ITEM: TIMESTEP
20000
ITEM: NUMBER OF ATOMS
10
ITEM: BOX BOUNDS ff ff ff
1e-05 3e-05
1e-05 3e-05
0 4e-05
ITEM: ATOMS id type diameter x y z vx vy vz fx fy fz 
1 1 1.14458e-06 2.04116e-05 1.53594e-05 7.4312e-07 -8.85302e-10 -4.33888e-10 1.67276e-10 -3.38586e-13 -1.65941e-13 6.39751e-14 
5 5 1.21169e-06 2.50527e-05 1.94434e-05 6.05948e-07 -8.78767e-11 9.28484e-10 3.60825e-10 -6.97407e-14 7.36863e-13 2.86358e-13 
4 4 1.04017e-06 1.5e-05 2e-05 5.2e-07 0 0 1e-09 0 0 1.65973e-08 
8 2 1.2754e-06 1.96885e-05 2.0501e-05 6.42186e-07 4.88927e-10 -7.86305e-10 3.77723e-10 6.95982e-13 -1.1193e-12 5.37685e-13 
3 3 1.10851e-06 2e-05 2.5e-05 5.54e-07 0 0 1e-09 0 0 5.07016e-08 
7 4 9.10165e-07 1.99096e-05 1.59556e-05 1.41315e-06 0 0 -1e-09 8.57205e-14 -1.01792e-13 -1.14391e-13 
2 2 1.26092e-06 2.03089e-05 1.95032e-05 1.12173e-06 -4.88866e-10 7.86207e-10 -3.78007e-10 -6.95982e-13 1.1193e-12 -5.38156e-13 
6 5 1.14178e-06 2.49493e-05 2.0536e-05 1.03086e-06 8.78617e-11 -9.28325e-10 -3.61239e-10 6.97407e-14 -7.36863e-13 -2.86735e-13 
9 4 9.80046e-07 1.9489e-05 1.58218e-05 4.90023e-07 0 0 -1e-09 1.6771e-13 -8.4054e-14 4.60048e-14 
10 1 1.05671e-06 2.01524e-05 1.42883e-05 7.30216e-07 2.35256e-10 9.71868e-10 1.13314e-11 8.51556e-14 3.51788e-13 4.10162e-15 
ITEM: TIMESTEP
22000
ITEM: NUMBER OF ATOMS
10
ITEM: BOX BOUNDS ff ff ff
1e-05 3e-05
1e-05 3e-05
0 4e-05
ITEM: ATOMS id type diameter x y z vx vy vz fx fy fz 
9 4 9.80046e-07 1.9489e-05 1.58218e-05 4.90023e-07 0 0 -1e-09 0 0 0 
10 1 1.08324e-06 2.0191e-05 1.44311e-05 7.27492e-07 2.81398e-10 9.58808e-10 -3.87622e-11 1.27495e-13 4.34413e-13 -1.75622e-14 
1 1 1.17332e-06 2.05086e-05 1.55132e-05 6.8411e-07 -5.41998e-10 -7.60974e-10 3.5659e-10 -2.46701e-13 -3.46372e-13 1.62309e-13 
5 5 1.21169e-06 2.50527e-05 1.94433e-05 6.05933e-07 -8.78806e-11 9.28525e-10 3.6072e-10 -8.2808e-14 8.74929e-13 3.39899e-13 
4 4 1.0388e-06 1.5e-05 2e-05 5.2e-07 0 0 -1e-09 0 0 -1.29422e-16 
8 2 1.30361e-06 1.9678e-05 2.05178e-05 6.52292e-07 -4.91476e-10 7.90405e-10 -3.65666e-10 -5.36263e-08 8.62434e-08 -3.98989e-08 
3 3 1.11686e-06 2e-05 2.5e-05 5.58e-07 0 0 1e-09 0 0 8.64038e-08 
7 4 9.10165e-07 1.99096e-05 1.59556e-05 1.41315e-06 0 0 -1e-09 1.19206e-13 -8.80405e-14 -1.4508e-13 
2 2 1.28881e-06 2.03148e-05 1.94937e-05 1.12607e-06 4.91476e-10 -7.90405e-10 3.65666e-10 5.36263e-08 -8.62434e-08 3.98989e-08 
6 5 1.14178e-06 2.49493e-05 2.0536e-05 1.03069e-06 8.78679e-11 -9.28391e-10 -3.61068e-10 8.2808e-14 -8.74929e-13 -3.40276e-13 
ITEM: TIMESTEP
24000
ITEM: NUMBER OF ATOMS
10
ITEM: BOX BOUNDS ff ff ff
1e-05 3e-05
1e-05 3e-05
0 4e-05
ITEM: ATOMS id type diameter x y z vx vy vz fx fy fz 
9 4 9.80046e-07 1.9489e-05 1.58218e-05 4.90023e-07 0 0 -1e-09 0 0 0 
10 1 1.11043e-06 2.02338e-05 1.45704e-05 7.19578e-07 -3.00935e-10 -9.51738e-10 6.02661e-11 -1.09954e-07 -3.47741e-07 2.20197e-08 
1 1 1.20278e-06 2.05813e-05 1.56695e-05 6.49984e-07 3.84118e-10 9.09937e-10 -1.56423e-10 1.4118e-07 3.3444e-07 -5.74922e-08 
5 5 1.21169e-06 2.50527e-05 1.94433e-05 6.05947e-07 -8.78848e-11 9.28569e-10 3.60604e-10 -9.67757e-14 1.02251e-12 3.97084e-13 
4 4 1.03744e-06 1.5e-05 2e-05 5.18e-07 0 0 1e-09 0 0 1.44072e-07 
8 2 1.33244e-06 1.96657e-05 2.05376e-05 6.66389e-07 4.94619e-10 -7.9546e-10 3.50137e-10 1.04587e-12 -1.682e-12 7.40366e-13 
3 3 1.12528e-06 2e-05 2.5e-05 5.62e-07 0 0 1e-09 0 0 1.28406e-07 
7 4 9.10165e-07 1.99096e-05 1.59556e-05 1.41315e-06 0 0 -1e-09 -3.12256e-08 1.33006e-08 3.54725e-08 
2 2 1.31731e-06 2.03218e-05 1.94826e-05 1.13096e-06 -4.94575e-10 7.95389e-10 -3.5036e-10 -1.04587e-12 1.682e-12 -7.40903e-13 
6 5 1.14178e-06 2.49493e-05 2.05361e-05 1.03054e-06 8.7874e-11 -9.28455e-10 -3.60902e-10 9.67757e-14 -1.02251e-12 -3.97462e-13 
ITEM: TIMESTEP
26000
ITEM: NUMBER OF ATOMS
10
ITEM: BOX BOUNDS ff ff ff
1e-05 3e-05
1e-05 3e-05
0 4e-05
ITEM: ATOMS id type diameter x y z vx vy vz fx fy fz 
9 4 9.80046e-07 1.9489e-05 1.58218e-05 4.90023e-07 0 0 -1e-09 0 0 0 
10 1 1.13831e-06 2.02541e-05 1.46331e-05 7.14901e-07 3.07743e-10 9.49022e-10 -6.82076e-11 2.07116e-13 6.38707e-13 -4.59048e-14 
1 1 1.23297e-06 2.0619e-05 1.57583e-05 6.34329e-07 -5.25615e-10 -7.82168e-10 3.34578e-10 -3.94235e-13 -5.86662e-13 2.50948e-13 
5 5 1.21169e-06 2.50527e-05 1.94433e-05 6.05979e-07 -8.78892e-11 9.28616e-10 3.60484e-10 -1.11609e-13 1.17923e-12 4.57772e-13 
4 4 1.03608e-06 1.5e-05 2e-05 5.18e-07 0 0 1e-09 0 0 8.07715e-09 
8 2 1.36191e-06 1.96544e-05 2.05559e-05 6.81407e-07 -4.97514e-10 8.00116e-10 -3.35104e-10 -6.92981e-08 1.11447e-07 -4.66762e-08 
3 3 1.13377e-06 2e-05 2.5e-05 5.66e-07 0 0 1e-09 0 0 1.76757e-07 
7 4 9.10165e-07 1.99096e-05 1.59556e-05 1.41315e-06 0 0 -1e-09 1.87119e-13 -5.20456e-14 -2.0543e-13 
2 2 1.34644e-06 2.03277e-05 1.94729e-05 1.13496e-06 4.97514e-10 -8.00116e-10 3.35104e-10 6.92981e-08 -1.11447e-07 4.66762e-08 
6 5 1.14178e-06 2.49493e-05 2.05361e-05 1.03041e-06 8.78798e-11 -9.28516e-10 -3.60742e-10 1.11609e-13 -1.17923e-12 -4.58149e-13 
ITEM: TIMESTEP
28000
ITEM: NUMBER OF ATOMS
10
ITEM: BOX BOUNDS ff ff ff
1e-05 3e-05
1e-05 3e-05
0 4e-05
ITEM: ATOMS id type diameter x y z vx vy vz fx fy fz 
9 4 9.80046e-07 1.9489e-05 1.58218e-05 4.90023e-07 0 0 -1e-09 0 0 0 
10 1 1.16689e-06 2.02622e-05 1.46577e-05 7.12721e-07 3.19828e-10 9.45151e-10 -6.63313e-11 2.56981e-13 7.59427e-13 -5.32971e-14 
1 1 1.26393e-06 2.06512e-05 1.58073e-05 6.3232e-07 -5.28883e-10 -7.87242e-10 3.17071e-10 -4.80199e-13 -7.14776e-13 2.87884e-13 
5 5 1.21169e-06 2.50527e-05 1.94433e-05 6.05847e-07 -8.78879e-11 9.28602e-10 3.60519e-10 -1.27274e-13 1.34474e-12 5.22081e-13 
4 4 1.03472e-06 1.5e-05 2e-05 5.18e-07 0 0 -1e-09 0 0 -1.27903e-16 
8 2 1.39203e-06 1.96421e-05 2.05756e-05 6.96174e-07 5.00269e-10 -8.04546e-10 3.20058e-10 1.50165e-12 -2.415e-12 9.60714e-13 
3 3 1.14232e-06 2e-05 2.5e-05 5.72e-07 0 0 -1e-09 0 0 -1.72094e-16 
7 4 9.10165e-07 1.99096e-05 1.59556e-05 1.41315e-06 0 0 -1e-09 2.23217e-13 -4.46516e-14 -2.35004e-13 
2 2 1.37622e-06 2.03347e-05 1.94617e-05 1.13945e-06 -5.00236e-10 8.04493e-10 -3.20241e-10 -1.50165e-12 2.415e-12 -9.61327e-13 
6 5 1.14178e-06 2.49493e-05 2.05362e-05 1.0303e-06 8.78796e-11 -9.28515e-10 -3.60746e-10 1.27274e-13 -1.34474e-12 -5.22458e-13 
ITEM: TIMESTEP
30000
ITEM: NUMBER OF ATOMS
12
ITEM: BOX BOUNDS ff ff ff
1e-05 3e-05
1e-05 3e-05
0 4e-05
ITEM: ATOMS id type diameter x y z vx vy vz fx fy fz 
9 4 9.80046e-07 1.9489e-05 1.58218e-05 4.90023e-07 0 0 -1e-09 0 0 0 
10 1 1.19619e-06 2.0266e-05 1.46605e-05 7.12161e-07 -3.45095e-10 -9.37272e-10 4.92924e-11 -5.46711e-08 -1.48486e-07 7.80906e-09 
1 1 1.29566e-06 2.06957e-05 1.58276e-05 6.50786e-07 5.83968e-10 7.43718e-10 -3.25368e-10 1.09568e-07 1.39542e-07 -6.10477e-08 
5 5 1.21169e-06 2.50527e-05 1.94433e-05 6.05919e-07 -8.78928e-11 9.28654e-10 3.60383e-10 -1.43744e-13 1.51876e-12 5.89386e-13 
4 4 1.03337e-06 1.5e-05 2e-05 5.16e-07 0 0 1e-09 0 0 1.36622e-07 
8 2 1.42281e-06 1.96302e-05 2.05947e-05 7.1143e-07 5.02818e-10 -8.08646e-10 3.05396e-10 1.77174e-12 -2.84936e-12 1.0761e-12 
3 3 1.15093e-06 2e-05 2.5e-05 5.76e-07 0 0 -1e-09 0 0 -1.76016e-16 
7 4 9.10165e-07 1.99096e-05 1.59556e-05 1.41315e-06 0 0 -1e-09 -5.48972e-08 8.94406e-09 5.32387e-08 
2 2 1.40666e-06 2.03418e-05 1.94504e-05 1.14373e-06 -5.02789e-10 8.086e-10 -3.05564e-10 -1.77174e-12 2.84936e-12 -1.07675e-12 
6 5 1.14178e-06 2.49492e-05 2.05362e-05 1.03021e-06 8.78855e-11 -9.28577e-10 -3.60584e-10 1.43744e-13 -1.51876e-12 -5.89763e-13 
11 4 8.87626e-07 2.03589e-05 1.3535e-05 8.04023e-07 3.33267e-10 9.40991e-10 -5.89047e-11 -6.81034e-16 8.246e-15 -6.72994e-16 
12 4 9.65167e-07 2.11403e-05 1.54172e-05 1.70196e-06 -5.40592e-10 -7.85531e-10 3.01165e-10 -1.37576e-14 1.26964e-14 -3.25225e-14 
ITEM: TIMESTEP
32000
ITEM: NUMBER OF ATOMS
14
ITEM: BOX BOUNDS ff ff ff
1e-05 3e-05
1e-05 3e-05
0 4e-05
ITEM: ATOMS id type diameter x y z vx vy vz fx fy fz 
9 4 9.80046e-07 1.9489e-05 1.58218e-05 4.90023e-07 0 0 -1e-09 0 0 0 
11 4 8.87626e-07 2.03589e-05 1.3535e-05 8.04023e-07 3.33267e-10 9.40991e-10 -5.89047e-11 0 0 0 
10 1 1.22622e-06 2.02705e-05 1.46716e-05 7.11006e-07 3.91027e-10 9.20367e-10 -4.73601e-12 1.84839e-13 4.35058e-13 -2.23871e-15 
1 1 1.32819e-06 2.07704e-05 1.58484e-05 7.05527e-07 -4.17395e-10 -7.61839e-10 4.95361e-10 -2.72859e-13 -4.98029e-13 3.23827e-13 
5 5 1.21169e-06 2.50527e-05 1.94432e-05 6.05987e-07 -8.78974e-11 9.28703e-10 3.60258e-10 -1.60991e-13 1.70099e-12 6.59841e-13 
4 4 1.03201e-06 1.5e-05 2e-05 5.16e-07 0 0 1e-09 0 0 1.16148e-09 
8 2 1.19475e-06 1.92426e-05 2.07726e-05 6.20371e-07 5.91909e-10 -6.0739e-10 5.29831e-10 1.6123e-12 -1.65447e-12 1.44321e-12 
3 3 1.1596e-06 2e-05 2.5e-05 5.8e-07 0 0 -1e-09 0 0 -1.80027e-16 
7 4 9.10165e-07 1.99096e-05 1.59556e-05 1.41315e-06 0 0 -1e-09 1.59052e-13 -1.98198e-14 -1.30742e-13 
2 2 1.06872e-06 2.06886e-05 1.91821e-05 1.40315e-06 -7.49407e-10 3.66105e-10 -5.51684e-10 -1.18658e-12 5.79676e-13 -8.73516e-13 
13 2 1.11071e-06 1.99239e-05 2.04923e-05 1.50877e-06 -4.03281e-10 -3.27861e-10 -8.54325e-10 -1.10921e-12 -9.01774e-13 -2.3498e-12 
6 5 1.14178e-06 2.49492e-05 2.05363e-05 1.03012e-06 8.78909e-11 -9.28634e-10 -3.60437e-10 1.60991e-13 -1.70099e-12 -6.60218e-13 
12 4 9.65167e-07 2.11403e-05 1.54172e-05 1.70196e-06 -5.40592e-10 -7.85531e-10 3.01165e-10 -7.10321e-14 8.27907e-14 -1.9133e-13 
14 2 1.20541e-06 1.98355e-05 1.95989e-05 7.75261e-07 2.4891e-10 7.19809e-10 6.48011e-10 6.83497e-13 1.97657e-12 1.77941e-12 
ITEM: TIMESTEP
34000
ITEM: NUMBER OF ATOMS
14
ITEM: BOX BOUNDS ff ff ff
1e-05 3e-05
1e-05 3e-05
0 4e-05
ITEM: ATOMS id type diameter x y z vx vy vz fx fy fz 
9 4 9.80046e-07 1.9489e-05 1.58218e-05 4.90023e-07 0 0 -1e-09 0 0 0 
11 4 8.87626e-07 2.03589e-05 1.3535e-05 8.04023e-07 3.33267e-10 9.40991e-10 -5.89047e-11 0 0 0 
10 1 1.25701e-06 2.02705e-05 1.46716e-05 7.10262e-07 3.92741e-10 9.19557e-10 -1.30218e-11 2.43163e-13 5.69337e-13 -8.06237e-15 
1 1 1.36154e-06 2.0785e-05 1.58762e-05 6.93689e-07 -4.20113e-10 -7.72512e-10 4.76162e-10 -3.58196e-13 -6.58656e-13 4.05984e-13 
5 5 1.21169e-06 2.50527e-05 1.94433e-05 6.05895e-07 -8.78966e-11 9.28694e-10 3.6028e-10 -1.78987e-13 1.89113e-12 7.33652e-13 
4 4 1.03066e-06 1.5e-05 2e-05 5.16e-07 0 0 -1e-09 0 0 -1.26402e-16 
8 2 1.22118e-06 1.92391e-05 2.07372e-05 6.11755e-07 5.96583e-10 -6.68545e-10 4.44001e-10 2.17412e-12 -2.43638e-12 1.61807e-12 
3 3 1.16835e-06 2e-05 2.5e-05 5.84e-07 0 0 1e-09 0 0 3.45993e-08 
7 4 9.10165e-07 1.99096e-05 1.59556e-05 1.41315e-06 0 0 -1e-09 1.9808e-13 -1.79673e-14 -1.62784e-13 
2 2 1.09235e-06 2.0631e-05 1.92553e-05 1.39227e-06 -7.22149e-10 4.8273e-10 -4.95452e-10 -1.56271e-12 1.04462e-12 -1.07215e-12 
13 2 1.13528e-06 1.99447e-05 2.04742e-05 1.5186e-06 -3.39848e-10 -4.01333e-10 -8.5055e-10 -1.16183e-12 -1.37203e-12 -2.90775e-12 
6 5 1.14178e-06 2.49492e-05 2.05363e-05 1.03004e-06 8.78907e-11 -9.28632e-10 -3.60442e-10 1.78987e-13 -1.89113e-12 -7.3403e-13 
12 4 9.65167e-07 2.11403e-05 1.54172e-05 1.70196e-06 -5.40592e-10 -7.85531e-10 3.01165e-10 -8.30466e-14 1.07287e-13 -2.35658e-13 
14 2 1.23207e-06 1.97945e-05 1.96459e-05 6.8606e-07 1.49715e-10 7.51757e-10 6.4222e-10 5.5042e-13 2.76379e-12 2.36109e-12 
ITEM: TIMESTEP
36000
ITEM: NUMBER OF ATOMS
15
ITEM: BOX BOUNDS ff ff ff
1e-05 3e-05
1e-05 3e-05
0 4e-05
ITEM: ATOMS id type diameter x y z vx vy vz fx fy fz 
9 4 9.80046e-07 1.9489e-05 1.58218e-05 4.90023e-07 0 0 -1e-09 0 0 0 
11 4 8.87626e-07 2.03589e-05 1.3535e-05 8.04023e-07 3.33267e-10 9.40991e-10 -5.89047e-11 0 0 0 
10 1 1.28857e-06 2.03329e-05 1.48245e-05 6.92209e-07 -3.77798e-10 -9.15377e-10 1.39114e-10 -4.91168e-08 -1.19006e-07 1.80859e-08 
1 1 1.1542e-06 2.08306e-05 1.64113e-05 1.50486e-06 2.96312e-10 5.30258e-10 7.94371e-10 1.06765e-07 1.91058e-07 2.86221e-07 
5 5 1.21169e-06 2.50527e-05 1.94432e-05 6.05964e-07 -8.79007e-11 9.28738e-10 3.60166e-10 -1.97716e-13 2.08902e-12 8.10126e-13 
4 4 1.02931e-06 1.5e-05 2e-05 5.14e-07 0 0 1e-09 0 0 1.30773e-07 
8 2 1.24818e-06 1.92489e-05 2.07403e-05 6.28945e-07 -4.23741e-10 9.05721e-10 -1.06447e-11 -1.28136e-09 2.73882e-09 -3.21885e-11 
3 3 1.17715e-06 2e-05 2.5e-05 5.88e-07 0 0 1e-09 0 0 1.15414e-07 
7 4 9.10165e-07 1.99096e-05 1.59556e-05 1.41315e-06 0 0 -1e-09 -9.11955e-08 -4.51209e-08 -9.08088e-09 
2 2 1.11651e-06 2.05907e-05 1.94548e-05 1.49867e-06 6.81871e-10 -1.25947e-10 7.20548e-10 2.10265e-09 -3.88376e-10 2.22192e-09 
13 2 1.16038e-06 1.99855e-05 2.04187e-05 1.52597e-06 -1.90475e-10 -5.74889e-10 -7.95753e-10 -7.91631e-13 -2.3893e-12 -3.30723e-12 
6 5 1.14178e-06 2.49492e-05 2.05363e-05 1.02997e-06 8.78954e-11 -9.28682e-10 -3.60312e-10 1.97716e-13 -2.08902e-12 -8.10503e-13 
12 4 9.65167e-07 2.11403e-05 1.54172e-05 1.70196e-06 -5.40592e-10 -7.85531e-10 3.01165e-10 -5.56962e-14 1.78752e-13 -3.544e-14 
14 2 1.25932e-06 1.97806e-05 1.9605e-05 6.42971e-07 -2.47762e-10 -7.09029e-10 -6.60222e-10 -8.20501e-10 -2.34805e-09 -2.18642e-09 
15 1 1.05712e-06 2.07758e-05 1.58975e-05 5.29141e-07 1.12446e-10 -9.02692e-11 -9.89549e-10 3.35476e-08 -2.69313e-08 -2.95226e-07 
ITEM: TIMESTEP
38000
ITEM: NUMBER OF ATOMS
15
ITEM: BOX BOUNDS ff ff ff
1e-05 3e-05
1e-05 3e-05
0 4e-05
ITEM: ATOMS id type diameter x y z vx vy vz fx fy fz 
9 4 9.80046e-07 1.9489e-05 1.58218e-05 4.90023e-07 0 0 -1e-09 0 0 0 
11 4 8.87626e-07 2.03589e-05 1.3535e-05 8.04023e-07 3.33267e-10 9.40991e-10 -5.89047e-11 0 0 0 
10 1 1.32092e-06 2.03337e-05 1.48262e-05 6.91198e-07 -3.80367e-10 -9.17662e-10 1.14964e-10 -1.10254e-07 -2.65996e-07 3.33237e-08 
1 1 1.18318e-06 2.0827e-05 1.64349e-05 1.5651e-06 2.01226e-10 7.68286e-10 6.07655e-10 6.66928e-08 2.54635e-07 2.01397e-07 
5 5 1.21169e-06 2.50527e-05 1.94433e-05 6.05888e-07 -8.79001e-11 9.28731e-10 3.60184e-10 -2.17147e-13 2.29432e-12 8.89794e-13 
4 4 1.02796e-06 1.5e-05 2e-05 5.14e-07 0 0 -1e-09 0 0 -1.25411e-16 
8 2 1.27579e-06 1.92238e-05 2.07603e-05 6.3831e-07 -5.61252e-10 7.23656e-10 -4.01645e-10 -2.5907e-07 3.34035e-07 -1.85397e-07 
3 3 1.18603e-06 2e-05 2.5e-05 5.94e-07 0 0 -1e-09 0 0 -1.92617e-16 
7 4 9.10165e-07 1.99096e-05 1.59556e-05 1.41315e-06 0 0 -1e-09 -9.21446e-08 -4.81368e-08 -1.52617e-08 
2 2 1.1412e-06 2.05951e-05 1.94304e-05 1.48429e-06 7.46645e-10 -5.30493e-10 4.01372e-10 3.06566e-07 -2.17816e-07 1.648e-07 
13 2 1.18605e-06 1.99547e-05 2.03977e-05 1.55835e-06 1.03205e-10 4.91254e-10 8.6488e-10 2.35967e-08 1.1232e-07 1.97745e-07 
6 5 1.14178e-06 2.49492e-05 2.05363e-05 1.02991e-06 8.78953e-11 -9.2868e-10 -3.60317e-10 2.17147e-13 -2.29432e-12 -8.90171e-13 
12 4 9.65167e-07 2.11403e-05 1.54172e-05 1.70196e-06 -5.40592e-10 -7.85531e-10 3.01165e-10 3.26865e-08 -1.06155e-07 1.42759e-08 
14 2 1.28717e-06 1.97321e-05 1.95855e-05 6.46342e-07 -2.38751e-10 -7.67509e-10 -5.94919e-10 -7.10922e-08 -2.28539e-07 -1.77147e-07 
15 1 1.08366e-06 2.07904e-05 1.59282e-05 5.53145e-07 3.38386e-10 5.44114e-10 -7.67746e-10 1.03019e-07 1.65652e-07 -2.33735e-07 
ITEM: TIMESTEP
40000
ITEM: NUMBER OF ATOMS
15
ITEM: BOX BOUNDS ff ff ff
1e-05 3e-05
1e-05 3e-05
0 4e-05
ITEM: ATOMS id type diameter x y z vx vy vz fx fy fz 
9 4 9.80046e-07 1.9489e-05 1.58218e-05 4.90023e-07 0 0 -1e-09 0 0 0 
11 4 8.87626e-07 2.03589e-05 1.3535e-05 8.04023e-07 3.33267e-10 9.40991e-10 -5.89047e-11 0 0 0 
10 1 1.35408e-06 2.03337e-05 1.48261e-05 6.90261e-07 -3.75555e-10 -9.24159e-10 6.99168e-11 -1.28449e-07 -3.16084e-07 2.39132e-08 
1 1 1.21288e-06 2.08138e-05 1.64561e-05 1.6563e-06 1.53739e-11 4.23941e-10 9.05559e-10 1.53783e-10 4.24062e-09 9.05818e-09 
5 5 1.21169e-06 2.50527e-05 1.94433e-05 6.05897e-07 -8.7902e-11 9.28751e-10 3.60132e-10 -2.3727e-13 2.50694e-12 9.72088e-13 
4 4 1.02661e-06 1.5e-05 2e-05 5.14e-07 0 0 -1e-09 0 0 -1.24919e-16 
8 2 1.304e-06 1.92021e-05 2.07839e-05 6.52476e-07 -5.58362e-10 4.99435e-10 -6.62418e-10 -1.7512e-07 1.56638e-07 -2.07755e-07 
3 3 1.19497e-06 2e-05 2.5e-05 5.98e-07 0 0 -1e-09 0 0 -1.97006e-16 
7 4 9.10165e-07 1.99096e-05 1.59556e-05 1.41315e-06 0 0 -1e-09 2.09332e-13 1.15866e-13 5.62879e-14 
2 2 1.16644e-06 2.05957e-05 1.94111e-05 1.46868e-06 7.87717e-10 -5.12289e-10 3.42144e-10 3.53182e-07 -2.29691e-07 1.53404e-07 
13 2 1.21228e-06 1.98962e-05 2.03609e-05 1.61098e-06 2.28313e-11 4.03321e-10 9.14774e-10 5.91018e-09 1.04405e-07 2.36801e-07 
6 5 1.14178e-06 2.49492e-05 2.05364e-05 1.02985e-06 8.78976e-11 -9.28704e-10 -3.60253e-10 2.3727e-13 -2.50694e-12 -9.72465e-13 
12 4 9.65167e-07 2.11403e-05 1.54172e-05 1.70196e-06 -5.40592e-10 -7.85531e-10 3.01165e-10 -7.79033e-14 2.47881e-13 -1.08946e-14 
14 2 1.31563e-06 1.96697e-05 1.95608e-05 6.58312e-07 -7.04896e-10 -1.20128e-10 -6.99064e-10 -1.83973e-07 -3.13525e-08 -1.82451e-07 
15 1 1.11087e-06 2.07959e-05 1.59636e-05 6.0421e-07 3.78662e-10 9.20405e-10 -9.73151e-11 1.28295e-07 3.11843e-07 -3.29715e-08 
ITEM: TIMESTEP
42000
ITEM: NUMBER OF ATOMS
16
ITEM: BOX BOUNDS ff ff ff
1e-05 3e-05
1e-05 3e-05
0 4e-05
ITEM: ATOMS id type diameter x y z vx vy vz fx fy fz 
9 4 9.80046e-07 1.9489e-05 1.58218e-05 4.90023e-07 0 0 -1e-09 -4.59009e-08 2.09095e-08 -1.16741e-09 
11 4 8.87626e-07 2.03589e-05 1.3535e-05 8.04023e-07 3.33267e-10 9.40991e-10 -5.89047e-11 0 0 0 
10 1 1.02696e-06 2.04017e-05 1.5406e-05 5.13237e-07 3.48399e-10 8.3461e-10 -4.26667e-10 1.05644e-07 2.53077e-07 -1.29378e-07 
15 1 1.13876e-06 2.10515e-05 1.62714e-05 5.70006e-07 1.99431e-10 -1.80449e-10 -9.63154e-10 4.00641e-08 -3.62506e-08 -1.93489e-07 
5 5 1.21169e-06 2.50527e-05 1.94432e-05 6.05976e-07 -8.7906e-11 9.28794e-10 3.6002e-10 -2.58064e-13 2.72664e-12 1.0569e-12 
14 2 1.34473e-06 1.96381e-05 1.95229e-05 6.76348e-07 -2.59854e-10 -7.5315e-10 -6.04351e-10 -9.60023e-08 -2.78249e-07 -2.23276e-07 
4 4 1.02527e-06 1.5e-05 2e-05 5.12e-07 0 0 1e-09 0 0 1.26517e-07 
8 2 1.33284e-06 1.91903e-05 2.07834e-05 6.66911e-07 -4.86272e-10 7.61405e-10 -4.28722e-10 -1.83205e-07 2.86863e-07 -1.61523e-07 
3 3 1.20398e-06 2e-05 2.5e-05 6.02e-07 0 0 -1e-09 0 0 -2.01495e-16 
7 4 9.10165e-07 1.99096e-05 1.59556e-05 1.41315e-06 0 0 -1e-09 0 0 0 
2 2 1.19224e-06 2.06158e-05 1.93938e-05 1.47262e-06 8.19429e-10 -4.90517e-10 2.96528e-10 2.57817e-07 -1.54331e-07 9.32967e-08 
6 5 1.14178e-06 2.49492e-05 2.05364e-05 1.0298e-06 8.7902e-11 -9.28751e-10 -3.60132e-10 2.58064e-13 -2.72664e-12 -1.05728e-12 
12 4 9.65167e-07 2.11403e-05 1.54172e-05 1.70196e-06 -5.40592e-10 -7.85531e-10 3.01165e-10 0 0 0 
1 1 1.24334e-06 2.08142e-05 1.64861e-05 1.7162e-06 -1.99433e-10 1.80447e-10 9.63154e-10 -4.00644e-08 3.62502e-08 1.93489e-07 
13 2 1.23909e-06 1.98597e-05 2.03253e-05 1.66348e-06 6.54951e-11 4.46172e-10 8.92547e-10 2.13904e-08 1.45718e-07 2.91502e-07 
16 1 1.16751e-06 2.01853e-05 1.45052e-05 1.09793e-06 -1.97507e-10 -8.22293e-10 5.3369e-10 -6.63053e-08 -2.76053e-07 1.79165e-07 
ITEM: TIMESTEP
44000
ITEM: NUMBER OF ATOMS
16
ITEM: BOX BOUNDS ff ff ff
1e-05 3e-05
1e-05 3e-05
0 4e-05
ITEM: ATOMS id type diameter x y z vx vy vz fx fy fz 
9 4 9.80046e-07 1.9489e-05 1.58218e-05 4.90023e-07 0 0 -1e-09 -1.10599e-09 4.60592e-10 -4.27073e-11 
11 4 8.87626e-07 2.03589e-05 1.3535e-05 8.04023e-07 3.33267e-10 9.40991e-10 -5.89047e-11 0 0 0 
10 1 1.05274e-06 2.04267e-05 1.54313e-05 5.26231e-07 -1.97907e-10 -8.08813e-10 5.53764e-10 -1.00912e-08 -4.12409e-08 2.82361e-08 
15 1 1.16735e-06 2.114e-05 1.628e-05 5.83335e-07 -2.19669e-10 1.39468e-10 9.65554e-10 -1.55195e-08 9.85331e-09 6.82158e-08 
5 5 1.21169e-06 2.50527e-05 1.94432e-05 6.05918e-07 -8.79056e-11 9.28789e-10 3.60033e-10 -2.79501e-13 2.95314e-12 1.14475e-12 
14 2 1.37447e-06 1.95821e-05 1.94945e-05 6.87777e-07 -5.95551e-10 -2.44417e-10 -7.65232e-10 -2.45052e-07 -1.0057e-07 -3.14871e-07 
4 4 1.02392e-06 1.5e-05 2e-05 5.12e-07 0 0 -1e-09 0 0 -1.2394e-16 
8 2 1.36232e-06 1.91709e-05 2.08024e-05 6.81716e-07 -4.85963e-10 3.8593e-10 -7.84155e-10 -1.2627e-07 1.00278e-07 -2.03751e-07 
3 3 1.21306e-06 2e-05 2.5e-05 6.06e-07 0 0 1e-09 0 0 1.0558e-07 
7 4 9.10165e-07 1.99096e-05 1.59556e-05 1.41315e-06 0 0 -1e-09 0 0 0 
2 2 1.2186e-06 2.06145e-05 1.93843e-05 1.46221e-06 8.5325e-10 -4.41255e-10 2.77954e-10 3.50687e-07 -1.81357e-07 1.1424e-07 
6 5 1.14178e-06 2.49492e-05 2.05364e-05 1.02975e-06 8.79018e-11 -9.28749e-10 -3.60137e-10 2.79501e-13 -2.95314e-12 -1.14512e-12 
12 4 9.65167e-07 2.11403e-05 1.54172e-05 1.70196e-06 -5.40592e-10 -7.85531e-10 3.01165e-10 0 0 0 
1 1 1.27455e-06 2.08079e-05 1.64908e-05 1.741e-06 2.71512e-10 -1.72382e-10 -9.46872e-10 2.18844e-13 -1.38944e-13 -7.63199e-13 
13 2 1.26649e-06 1.9809e-05 2.02956e-05 1.71139e-06 4.64986e-11 4.09314e-10 9.11208e-10 2.06355e-08 1.81649e-07 4.04383e-07 
16 1 1.19683e-06 2.01738e-05 1.45104e-05 1.1221e-06 2.24601e-10 8.17989e-10 -5.29574e-10 1.32263e-13 4.81696e-13 -3.11855e-13 
ITEM: TIMESTEP
46000
ITEM: NUMBER OF ATOMS
20
ITEM: BOX BOUNDS ff ff ff
1e-05 3e-05
1e-05 3e-05
0 4e-05
ITEM: ATOMS id type diameter x y z vx vy vz fx fy fz 
9 4 9.80046e-07 1.9489e-05 1.58218e-05 4.90023e-07 0 0 -1e-09 -0.000137935 1.50907e-05 3.22315e-05 
11 4 8.87626e-07 2.03589e-05 1.3535e-05 8.04023e-07 3.33267e-10 9.40991e-10 -5.89047e-11 0 0 0 
10 1 1.07918e-06 2.06385e-05 1.54498e-05 8.11285e-07 3.15501e-10 9.18139e-10 -2.39751e-10 5.48746e-08 1.59691e-07 -4.16995e-08 
15 1 1.19666e-06 2.14576e-05 1.64129e-05 1.42492e-06 7.37939e-10 -1.63781e-10 -6.54692e-10 1.51967e-07 -3.37281e-08 -1.34824e-07 
5 5 1.21169e-06 2.50527e-05 1.94433e-05 6.05864e-07 -8.79051e-11 9.28784e-10 3.60045e-10 -3.01572e-13 3.18634e-12 1.23519e-12 