ITEM: TIMESTEP
0
ITEM: NUMBER OF ATOMS
5
ITEM: BOX BOUNDS ff ff ff
1e-05 3e-05
1e-05 3e-05
0 4e-05
ITEM: ATOMS id type radius outerradius mass outermass sub 
1 1 5.4195e-07 7.1535e-07 1.00013e-16 0 0.08 
4 4 5.2695e-07 5.2695e-07 9.19365e-17 0 0.04 
2 2 6.4195e-07 6.4195e-07 1.6622e-16 0 0.04 
3 3 5.1415e-07 5.1415e-07 8.53983e-17 0 0.01 
5 5 7.4195e-07 7.4195e-07 2.56628e-16 0 0.04 
ITEM: TIMESTEP
1
ITEM: NUMBER OF ATOMS
5
ITEM: BOX BOUNDS ff ff ff
1e-05 3e-05
1e-05 3e-05
0 4e-05
ITEM: ATOMS id type radius outerradius mass outermass sub 
1 1 5.41965e-07 7.15371e-07 1.00021e-16 2.60006e-17 0.954058 
4 4 5.2695e-07 5.2695e-07 9.19363e-17 0 0.953606 
2 2 6.4195e-07 6.4195e-07 1.6622e-16 0 0.98934 
3 3 5.14155e-07 5.14155e-07 8.54011e-17 0 0.954855 
5 5 7.4195e-07 7.4195e-07 2.56628e-16 0 0.955101 
ITEM: TIMESTEP
2
ITEM: NUMBER OF ATOMS
5
ITEM: BOX BOUNDS ff ff ff
1e-05 3e-05
1e-05 3e-05
0 4e-05
ITEM: ATOMS id type radius outerradius mass outermass sub 
1 1 5.41979e-07 7.15391e-07 1.00029e-16 2.60029e-17 0.909703 
4 4 5.26949e-07 5.26949e-07 9.19362e-17 0 0.908846 
2 2 6.4195e-07 6.4195e-07 1.6622e-16 0 0.976319 
3 3 5.14161e-07 5.14161e-07 8.54038e-17 0 0.909996 
5 5 7.4195e-07 7.4195e-07 2.56628e-16 0 0.910457 
ITEM: TIMESTEP
3
ITEM: NUMBER OF ATOMS
5
ITEM: BOX BOUNDS ff ff ff
1e-05 3e-05
1e-05 3e-05
0 4e-05
ITEM: ATOMS id type radius outerradius mass outermass sub 
1 1 5.41994e-07 7.15412e-07 1.00037e-16 2.60053e-17 0.866997 
4 4 5.26949e-07 5.26949e-07 9.1936e-17 0 0.86578 
2 2 6.4195e-07 6.4195e-07 1.6622e-16 0 0.961243 
3 3 5.14166e-07 5.14166e-07 8.54065e-17 0 0.866833 
5 5 7.4195e-07 7.4195e-07 2.56628e-16 0 0.867479 
ITEM: TIMESTEP
4
ITEM: NUMBER OF ATOMS
5
ITEM: BOX BOUNDS ff ff ff
1e-05 3e-05
1e-05 3e-05
0 4e-05
ITEM: ATOMS id type radius outerradius mass outermass sub 
1 1 5.42008e-07 7.15432e-07 1.00045e-16 2.60077e-17 0.825978 
4 4 5.26949e-07 5.26949e-07 9.19358e-17 0 0.824439 
2 2 6.41951e-07 6.41951e-07 1.66221e-16 0 0.944397 
3 3 5.14172e-07 5.14172e-07 8.54091e-17 0 0.825398 
5 5 7.4195e-07 7.4195e-07 2.56628e-16 0 0.826202 
ITEM: TIMESTEP
5
ITEM: NUMBER OF ATOMS
5
ITEM: BOX BOUNDS ff ff ff
1e-05 3e-05
1e-05 3e-05
0 4e-05
ITEM: ATOMS id type radius outerradius mass outermass sub 
1 1 5.42022e-07 7.15453e-07 1.00053e-16 2.601e-17 0.786655 
4 4 5.26948e-07 5.26948e-07 9.19356e-17 0 0.784831 
2 2 6.41951e-07 6.41951e-07 1.66221e-16 0 0.926047 
3 3 5.14177e-07 5.14177e-07 8.54117e-17 0 0.7857 
5 5 7.4195e-07 7.4195e-07 2.56628e-16 0 0.786636 
ITEM: TIMESTEP
6
ITEM: NUMBER OF ATOMS
5
ITEM: BOX BOUNDS ff ff ff
1e-05 3e-05
1e-05 3e-05
0 4e-05
ITEM: ATOMS id type radius outerradius mass outermass sub 
1 1 5.42037e-07 7.15473e-07 1.00061e-16 2.60123e-17 0.749024 
4 4 5.26948e-07 5.26948e-07 9.19354e-17 0 0.746945 
2 2 6.41951e-07 6.41951e-07 1.66221e-16 0 0.906435 
3 3 5.14182e-07 5.14182e-07 8.54142e-17 0 0.747729 
5 5 7.4195e-07 7.4195e-07 2.56628e-16 0 0.748775 
ITEM: TIMESTEP
7
ITEM: NUMBER OF ATOMS
5
ITEM: BOX BOUNDS ff ff ff
1e-05 3e-05
1e-05 3e-05
0 4e-05
ITEM: ATOMS id type radius outerradius mass outermass sub 
1 1 5.42051e-07 7.15493e-07 1.00069e-16 2.60146e-17 0.71306 
4 4 5.26948e-07 5.26948e-07 9.19353e-17 0 0.710757 
2 2 6.41952e-07 6.41952e-07 1.66221e-16 0 0.885784 
3 3 5.14187e-07 5.14187e-07 8.54167e-17 0 0.71146 
5 5 7.4195e-07 7.4195e-07 2.56628e-16 0 0.712597 
ITEM: TIMESTEP
8
ITEM: NUMBER OF ATOMS
5
ITEM: BOX BOUNDS ff ff ff
1e-05 3e-05
1e-05 3e-05
0 4e-05
ITEM: ATOMS id type radius outerradius mass outermass sub 
1 1 5.42065e-07 7.15513e-07 1.00077e-16 2.60169e-17 0.678732 
4 4 5.26947e-07 5.26947e-07 9.19351e-17 0 0.67623 
2 2 6.41952e-07 6.41952e-07 1.66222e-16 0 0.864295 
3 3 5.14192e-07 5.14192e-07 8.54191e-17 0 0.676857 
5 5 7.4195e-07 7.4195e-07 2.56628e-16 0 0.678067 
ITEM: TIMESTEP
9
ITEM: NUMBER OF ATOMS
5
ITEM: BOX BOUNDS ff ff ff
1e-05 3e-05
1e-05 3e-05
0 4e-05
ITEM: ATOMS id type radius outerradius mass outermass sub 
1 1 5.42079e-07 7.15533e-07 1.00085e-16 2.60192e-17 0.645998 
4 4 5.26947e-07 5.26947e-07 9.19349e-17 0 0.643322 
2 2 6.41953e-07 6.41953e-07 1.66222e-16 0 0.842151 
3 3 5.14197e-07 5.14197e-07 8.54215e-17 0 0.643877 
5 5 7.4195e-07 7.4195e-07 2.56628e-16 0 0.645144 
ITEM: TIMESTEP
10
ITEM: NUMBER OF ATOMS
5
ITEM: BOX BOUNDS ff ff ff
1e-05 3e-05
1e-05 3e-05
0 4e-05
ITEM: ATOMS id type radius outerradius mass outermass sub 
1 1 5.42093e-07 7.15553e-07 1.00092e-16 2.60215e-17 0.61481 
4 4 5.26947e-07 5.26947e-07 9.19347e-17 0 0.611981 
2 2 6.41954e-07 6.41954e-07 1.66223e-16 0 0.819517 
3 3 5.14201e-07 5.14201e-07 8.54239e-17 0 0.612469 
5 5 7.4195e-07 7.4195e-07 2.56628e-16 0 0.613779 
ITEM: TIMESTEP
11
ITEM: NUMBER OF ATOMS
5
ITEM: BOX BOUNDS ff ff ff
1e-05 3e-05
1e-05 3e-05
0 4e-05
ITEM: ATOMS id type radius outerradius mass outermass sub 
1 1 5.42106e-07 7.15572e-07 1.001e-16 2.60237e-17 0.585114 
4 4 5.26946e-07 5.26946e-07 9.19345e-17 0 0.582154 
2 2 6.41954e-07 6.41954e-07 1.66224e-16 0 0.796542 
3 3 5.14206e-07 5.14206e-07 8.54262e-17 0 0.582578 
5 5 7.4195e-07 7.4195e-07 2.56628e-16 0 0.583921 
ITEM: TIMESTEP
12
ITEM: NUMBER OF ATOMS
5
ITEM: BOX BOUNDS ff ff ff
1e-05 3e-05
1e-05 3e-05
0 4e-05
ITEM: ATOMS id type radius outerradius mass outermass sub 
1 1 5.4212e-07 7.15591e-07 1.00107e-16 2.60259e-17 0.556856 
4 4 5.26946e-07 5.26946e-07 9.19344e-17 0 0.553783 
2 2 6.41955e-07 6.41955e-07 1.66224e-16 0 0.773355 
3 3 5.1421e-07 5.1421e-07 8.54285e-17 0 0.554149 
5 5 7.4195e-07 7.4195e-07 2.56628e-16 0 0.555512 
ITEM: TIMESTEP
13
ITEM: NUMBER OF ATOMS
5
ITEM: BOX BOUNDS ff ff ff
1e-05 3e-05
1e-05 3e-05
0 4e-05
ITEM: ATOMS id type radius outerradius mass outermass sub 
1 1 5.42133e-07 7.1561e-07 1.00115e-16 2.60281e-17 0.529978 
4 4 5.26946e-07 5.26946e-07 9.19342e-17 0 0.52681 
2 2 6.41957e-07 6.41957e-07 1.66225e-16 0 0.750076 
3 3 5.14215e-07 5.14215e-07 8.54307e-17 0 0.527121 
5 5 7.4195e-07 7.4195e-07 2.56628e-16 0 0.528496 
ITEM: TIMESTEP
14
ITEM: NUMBER OF ATOMS
5
ITEM: BOX BOUNDS ff ff ff
1e-05 3e-05
1e-05 3e-05
0 4e-05
ITEM: ATOMS id type radius outerradius mass outermass sub 
1 1 5.42146e-07 7.15629e-07 1.00122e-16 2.60302e-17 0.504421 
4 4 5.26945e-07 5.26945e-07 9.1934e-17 0 0.501174 
2 2 6.41958e-07 6.41958e-07 1.66226e-16 0 0.726806 
3 3 5.14219e-07 5.14219e-07 8.54328e-17 0 0.501435 
5 5 7.4195e-07 7.4195e-07 2.56628e-16 0 0.502814 
ITEM: TIMESTEP
15
ITEM: NUMBER OF ATOMS
5
ITEM: BOX BOUNDS ff ff ff
1e-05 3e-05
1e-05 3e-05
0 4e-05
ITEM: ATOMS id type radius outerradius mass outermass sub 
1 1 5.42159e-07 7.15647e-07 1.00129e-16 2.60323e-17 0.480128 
4 4 5.26945e-07 5.26945e-07 9.19338e-17 0 0.476818 
2 2 6.41959e-07 6.41959e-07 1.66227e-16 0 0.703638 
3 3 5.14224e-07 5.14224e-07 8.5435e-17 0 0.477031 
5 5 7.4195e-07 7.4195e-07 2.56628e-16 0 0.478409 
ITEM: TIMESTEP
16
ITEM: NUMBER OF ATOMS
5
ITEM: BOX BOUNDS ff ff ff
1e-05 3e-05
1e-05 3e-05
0 4e-05
ITEM: ATOMS id type radius outerradius mass outermass sub 
1 1 5.42171e-07 7.15665e-07 1.00136e-16 2.60344e-17 0.45704 
4 4 5.26944e-07 5.26944e-07 9.19336e-17 0 0.453681 
2 2 6.4196e-07 6.4196e-07 1.66228e-16 0 0.68065 
3 3 5.14228e-07 5.14228e-07 8.54371e-17 0 0.453852 
5 5 7.4195e-07 7.4195e-07 2.56628e-16 0 0.45522 
ITEM: TIMESTEP
17
ITEM: NUMBER OF ATOMS
5
ITEM: BOX BOUNDS ff ff ff
1e-05 3e-05
1e-05 3e-05
0 4e-05
ITEM: ATOMS id type radius outerradius mass outermass sub 
1 1 5.42184e-07 7.15682e-07 1.00143e-16 2.60364e-17 0.4351 
4 4 5.26944e-07 5.26944e-07 9.19335e-17 0 0.431707 
2 2 6.41962e-07 6.41962e-07 1.66229e-16 0 0.657912 
3 3 5.14232e-07 5.14232e-07 8.54392e-17 0 0.431838 
5 5 7.4195e-07 7.4195e-07 2.56628e-16 0 0.433193 
ITEM: TIMESTEP
18
ITEM: NUMBER OF ATOMS
5
ITEM: BOX BOUNDS ff ff ff
1e-05 3e-05
1e-05 3e-05
0 4e-05
ITEM: ATOMS id type radius outerradius mass outermass sub 
1 1 5.42196e-07 7.15699e-07 1.00149e-16 2.60383e-17 0.414253 
4 4 5.26944e-07 5.26944e-07 9.19333e-17 0 0.410839 
2 2 6.41963e-07 6.41963e-07 1.6623e-16 0 0.635483 
3 3 5.14236e-07 5.14236e-07 8.54412e-17 0 0.410933 
5 5 7.4195e-07 7.4195e-07 2.56628e-16 0 0.412272 
ITEM: TIMESTEP
19
ITEM: NUMBER OF ATOMS
5
ITEM: BOX BOUNDS ff ff ff
1e-05 3e-05
1e-05 3e-05
0 4e-05
ITEM: ATOMS id type radius outerradius mass outermass sub 
1 1 5.42207e-07 7.15716e-07 1.00156e-16 2.60402e-17 0.394446 
4 4 5.26943e-07 5.26943e-07 9.19331e-17 0 0.391023 
2 2 6.41965e-07 6.41965e-07 1.66232e-16 0 0.613414 
3 3 5.1424e-07 5.1424e-07 8.54432e-17 0 0.391084 
5 5 7.4195e-07 7.4195e-07 2.56628e-16 0 0.392401 
ITEM: TIMESTEP
20
ITEM: NUMBER OF ATOMS
5
ITEM: BOX BOUNDS ff ff ff
1e-05 3e-05
1e-05 3e-05
0 4e-05
ITEM: ATOMS id type radius outerradius mass outermass sub 
1 1 5.42219e-07 7.15732e-07 1.00162e-16 2.60421e-17 0.375624 
4 4 5.26943e-07 5.26943e-07 9.19329e-17 0 0.372206 
2 2 6.41967e-07 6.41967e-07 1.66233e-16 0 0.591747 
3 3 5.14244e-07 5.14244e-07 8.54451e-17 0 0.372237 
5 5 7.4195e-07 7.4195e-07 2.56628e-16 0 0.37353 
