ITEM: TIMESTEP
0
ITEM: NUMBER OF ATOMS
1
ITEM: BOX BOUNDS pp pp pp
0 100
0 100
0 100
ITEM: ATOMS id type diameter x y z vx vy vz 
1 1 1 50 50 50 0 0 0 
ITEM: TIMESTEP
1000000
ITEM: NUMBER OF ATOMS
1
ITEM: BOX BOUNDS pp pp pp
0 100
0 100
0 100
ITEM: ATOMS id type diameter x y z vx vy vz 
1 1 1.04526 50 50 50 0 0 0 
ITEM: TIMESTEP
2000000
ITEM: NUMBER OF ATOMS
1
ITEM: BOX BOUNDS pp pp pp
0 100
0 100
0 100
ITEM: ATOMS id type diameter x y z vx vy vz 
1 1 1.09257 50 50 50 0 0 0 
ITEM: TIMESTEP
3000000
ITEM: NUMBER OF ATOMS
1
ITEM: BOX BOUNDS pp pp pp
0 100
0 100
0 100
ITEM: ATOMS id type diameter x y z vx vy vz 
1 1 1.14203 50 50 50 0 0 0 
ITEM: TIMESTEP
4000000
ITEM: NUMBER OF ATOMS
1
ITEM: BOX BOUNDS pp pp pp
0 100
0 100
0 100
ITEM: ATOMS id type diameter x y z vx vy vz 
1 1 1.19372 50 50 50 0 0 0 
ITEM: TIMESTEP
5000000
ITEM: NUMBER OF ATOMS
1
ITEM: BOX BOUNDS pp pp pp
0 100
0 100
0 100
ITEM: ATOMS id type diameter x y z vx vy vz 
1 1 1.24775 50 50 50 0 0 0 
ITEM: TIMESTEP
6000000
ITEM: NUMBER OF ATOMS
1
ITEM: BOX BOUNDS pp pp pp
0 100
0 100
0 100
ITEM: ATOMS id type diameter x y z vx vy vz 
1 1 1.30423 50 50 50 0 0 0 
ITEM: TIMESTEP
7000000
ITEM: NUMBER OF ATOMS
1
ITEM: BOX BOUNDS pp pp pp
0 100
0 100
0 100
ITEM: ATOMS id type diameter x y z vx vy vz 
1 1 1.36326 50 50 50 0 0 0 
ITEM: TIMESTEP
8000000
ITEM: NUMBER OF ATOMS
1
ITEM: BOX BOUNDS pp pp pp
0 100
0 100
0 100
ITEM: ATOMS id type diameter x y z vx vy vz 
1 1 1.42496 50 50 50 0 0 0 
ITEM: TIMESTEP
9000000
ITEM: NUMBER OF ATOMS
1
ITEM: BOX BOUNDS pp pp pp
0 100
0 100
0 100
ITEM: ATOMS id type diameter x y z vx vy vz 
1 1 1.48946 50 50 50 0 0 0 
ITEM: TIMESTEP
10000000
ITEM: NUMBER OF ATOMS
1
ITEM: BOX BOUNDS pp pp pp
0 100
0 100
0 100
ITEM: ATOMS id type diameter x y z vx vy vz 
1 1 1.55688 50 50 50 0 0 0 
ITEM: TIMESTEP
11000000
ITEM: NUMBER OF ATOMS
1
ITEM: BOX BOUNDS pp pp pp
0 100
0 100
0 100
ITEM: ATOMS id type diameter x y z vx vy vz 
1 1 1.62735 50 50 50 0 0 0 
ITEM: TIMESTEP
12000000
ITEM: NUMBER OF ATOMS
1
ITEM: BOX BOUNDS pp pp pp
0 100
0 100
0 100
ITEM: ATOMS id type diameter x y z vx vy vz 
1 1 1.701 50 50 50 0 0 0 
ITEM: TIMESTEP
13000000
ITEM: NUMBER OF ATOMS
1
ITEM: BOX BOUNDS pp pp pp
0 100
0 100
0 100
ITEM: ATOMS id type diameter x y z vx vy vz 
1 1 1.77799 50 50 50 0 0 0 
ITEM: TIMESTEP
14000000
ITEM: NUMBER OF ATOMS
1
ITEM: BOX BOUNDS pp pp pp
0 100
0 100
0 100
ITEM: ATOMS id type diameter x y z vx vy vz 
1 1 1.85847 50 50 50 0 0 0 
ITEM: TIMESTEP
15000000
ITEM: NUMBER OF ATOMS
1
ITEM: BOX BOUNDS pp pp pp
0 100
0 100
0 100
ITEM: ATOMS id type diameter x y z vx vy vz 
1 1 1.94259 50 50 50 0 0 0 
ITEM: TIMESTEP
16000000
ITEM: NUMBER OF ATOMS
1
ITEM: BOX BOUNDS pp pp pp
0 100
0 100
0 100
ITEM: ATOMS id type diameter x y z vx vy vz 
1 1 2.03052 50 50 50 0 0 0 
ITEM: TIMESTEP
17000000
ITEM: NUMBER OF ATOMS
1
ITEM: BOX BOUNDS pp pp pp
0 100
0 100
0 100
ITEM: ATOMS id type diameter x y z vx vy vz 
1 1 2.12242 50 50 50 0 0 0 
ITEM: TIMESTEP
18000000
ITEM: NUMBER OF ATOMS
1
ITEM: BOX BOUNDS pp pp pp
0 100
0 100
0 100
ITEM: ATOMS id type diameter x y z vx vy vz 
1 1 2.21849 50 50 50 0 0 0 
ITEM: TIMESTEP
19000000
ITEM: NUMBER OF ATOMS
1
ITEM: BOX BOUNDS pp pp pp
0 100
0 100
0 100
ITEM: ATOMS id type diameter x y z vx vy vz 
1 1 2.31891 50 50 50 0 0 0 
ITEM: TIMESTEP
20000000
ITEM: NUMBER OF ATOMS
1
ITEM: BOX BOUNDS pp pp pp
0 100
0 100
0 100
ITEM: ATOMS id type diameter x y z vx vy vz 
1 1 2.42387 50 50 50 0 0 0 
ITEM: TIMESTEP
21000000
ITEM: NUMBER OF ATOMS
1
ITEM: BOX BOUNDS pp pp pp
0 100
0 100
0 100
ITEM: ATOMS id type diameter x y z vx vy vz 
1 1 2.53358 50 50 50 0 0 0 
ITEM: TIMESTEP
22000000
ITEM: NUMBER OF ATOMS
1
ITEM: BOX BOUNDS pp pp pp
0 100
0 100
0 100
ITEM: ATOMS id type diameter x y z vx vy vz 
1 1 2.64825 50 50 50 0 0 0 
ITEM: TIMESTEP
23000000
ITEM: NUMBER OF ATOMS
1
ITEM: BOX BOUNDS pp pp pp
0 100
0 100
0 100
ITEM: ATOMS id type diameter x y z vx vy vz 
1 1 2.76812 50 50 50 0 0 0 
ITEM: TIMESTEP
24000000
ITEM: NUMBER OF ATOMS
1
ITEM: BOX BOUNDS pp pp pp
0 100
0 100
0 100
ITEM: ATOMS id type diameter x y z vx vy vz 
1 1 2.89341 50 50 50 0 0 0 
ITEM: TIMESTEP
25000000
ITEM: NUMBER OF ATOMS
1
ITEM: BOX BOUNDS pp pp pp
0 100
0 100
0 100
ITEM: ATOMS id type diameter x y z vx vy vz 
1 1 3.02437 50 50 50 0 0 0 
ITEM: TIMESTEP
26000000
ITEM: NUMBER OF ATOMS
1
ITEM: BOX BOUNDS pp pp pp
0 100
0 100
0 100
ITEM: ATOMS id type diameter x y z vx vy vz 
1 1 3.16127 50 50 50 0 0 0 
ITEM: TIMESTEP
27000000
ITEM: NUMBER OF ATOMS
1
ITEM: BOX BOUNDS pp pp pp
0 100
0 100
0 100
ITEM: ATOMS id type diameter x y z vx vy vz 
1 1 3.30435 50 50 50 0 0 0 
ITEM: TIMESTEP
28000000
ITEM: NUMBER OF ATOMS
1
ITEM: BOX BOUNDS pp pp pp
0 100
0 100
0 100
ITEM: ATOMS id type diameter x y z vx vy vz 
1 1 3.45392 50 50 50 0 0 0 
ITEM: TIMESTEP
29000000
ITEM: NUMBER OF ATOMS
1
ITEM: BOX BOUNDS pp pp pp
0 100
0 100
0 100
ITEM: ATOMS id type diameter x y z vx vy vz 
1 1 3.61025 50 50 50 0 0 0 
ITEM: TIMESTEP
30000000
ITEM: NUMBER OF ATOMS
1
ITEM: BOX BOUNDS pp pp pp
0 100
0 100
0 100
ITEM: ATOMS id type diameter x y z vx vy vz 
1 1 3.77366 50 50 50 0 0 0 
ITEM: TIMESTEP
31000000
ITEM: NUMBER OF ATOMS
1
ITEM: BOX BOUNDS pp pp pp
0 100
0 100
0 100
ITEM: ATOMS id type diameter x y z vx vy vz 
1 1 3.94447 50 50 50 0 0 0 
ITEM: TIMESTEP
32000000
ITEM: NUMBER OF ATOMS
1
ITEM: BOX BOUNDS pp pp pp
0 100
0 100
0 100
ITEM: ATOMS id type diameter x y z vx vy vz 
1 1 4.123 50 50 50 0 0 0 
ITEM: TIMESTEP
33000000
ITEM: NUMBER OF ATOMS
1
ITEM: BOX BOUNDS pp pp pp
0 100
0 100
0 100
ITEM: ATOMS id type diameter x y z vx vy vz 
1 1 4.30962 50 50 50 0 0 0 
ITEM: TIMESTEP
34000000
ITEM: NUMBER OF ATOMS
1
ITEM: BOX BOUNDS pp pp pp
0 100
0 100
0 100
ITEM: ATOMS id type diameter x y z vx vy vz 
1 1 4.50469 50 50 50 0 0 0 
ITEM: TIMESTEP
35000000
ITEM: NUMBER OF ATOMS
1
ITEM: BOX BOUNDS pp pp pp
0 100
0 100
0 100
ITEM: ATOMS id type diameter x y z vx vy vz 
1 1 4.70858 50 50 50 0 0 0 
ITEM: TIMESTEP
36000000
ITEM: NUMBER OF ATOMS
1
ITEM: BOX BOUNDS pp pp pp
0 100
0 100
0 100
ITEM: ATOMS id type diameter x y z vx vy vz 
1 1 4.9217 50 50 50 0 0 0 
ITEM: TIMESTEP
37000000
ITEM: NUMBER OF ATOMS
1
ITEM: BOX BOUNDS pp pp pp
0 100
0 100
0 100
ITEM: ATOMS id type diameter x y z vx vy vz 
1 1 5.14447 50 50 50 0 0 0 
ITEM: TIMESTEP
38000000
ITEM: NUMBER OF ATOMS
1
ITEM: BOX BOUNDS pp pp pp
0 100
0 100
0 100
ITEM: ATOMS id type diameter x y z vx vy vz 
1 1 5.37732 50 50 50 0 0 0 
ITEM: TIMESTEP
39000000
ITEM: NUMBER OF ATOMS
1
ITEM: BOX BOUNDS pp pp pp
0 100
0 100
0 100
ITEM: ATOMS id type diameter x y z vx vy vz 
1 1 5.62072 50 50 50 0 0 0 
ITEM: TIMESTEP
40000000
ITEM: NUMBER OF ATOMS
1
ITEM: BOX BOUNDS pp pp pp
0 100
0 100
0 100
ITEM: ATOMS id type diameter x y z vx vy vz 
1 1 5.87512 50 50 50 0 0 0 
ITEM: TIMESTEP
41000000
ITEM: NUMBER OF ATOMS
1
ITEM: BOX BOUNDS pp pp pp
0 100
0 100
0 100
ITEM: ATOMS id type diameter x y z vx vy vz 
1 1 6.14105 50 50 50 0 0 0 
ITEM: TIMESTEP
42000000
ITEM: NUMBER OF ATOMS
1
ITEM: BOX BOUNDS pp pp pp
0 100
0 100
0 100
ITEM: ATOMS id type diameter x y z vx vy vz 
1 1 6.41901 50 50 50 0 0 0 
ITEM: TIMESTEP
43000000
ITEM: NUMBER OF ATOMS
1
ITEM: BOX BOUNDS pp pp pp
0 100
0 100
0 100
ITEM: ATOMS id type diameter x y z vx vy vz 
1 1 6.70955 50 50 50 0 0 0 
ITEM: TIMESTEP
44000000
ITEM: NUMBER OF ATOMS
1
ITEM: BOX BOUNDS pp pp pp
0 100
0 100
0 100
ITEM: ATOMS id type diameter x y z vx vy vz 
1 1 7.01324 50 50 50 0 0 0 
ITEM: TIMESTEP
45000000
ITEM: NUMBER OF ATOMS
1
ITEM: BOX BOUNDS pp pp pp
0 100
0 100
0 100
ITEM: ATOMS id type diameter x y z vx vy vz 
1 1 7.33068 50 50 50 0 0 0 
ITEM: TIMESTEP
46000000
ITEM: NUMBER OF ATOMS
1
ITEM: BOX BOUNDS pp pp pp
0 100
0 100
0 100
ITEM: ATOMS id type diameter x y z vx vy vz 
1 1 7.66248 50 50 50 0 0 0 
ITEM: TIMESTEP
47000000
ITEM: NUMBER OF ATOMS
1
ITEM: BOX BOUNDS pp pp pp
0 100
0 100
0 100
ITEM: ATOMS id type diameter x y z vx vy vz 
1 1 8.00931 50 50 50 0 0 0 
ITEM: TIMESTEP
48000000
ITEM: NUMBER OF ATOMS
1
ITEM: BOX BOUNDS pp pp pp
0 100
0 100
0 100
ITEM: ATOMS id type diameter x y z vx vy vz 
1 1 8.37183 50 50 50 0 0 0 
ITEM: TIMESTEP
49000000
ITEM: NUMBER OF ATOMS
1
ITEM: BOX BOUNDS pp pp pp
0 100
0 100
0 100
ITEM: ATOMS id type diameter x y z vx vy vz 
1 1 8.75076 50 50 50 0 0 0 
ITEM: TIMESTEP
50000000
ITEM: NUMBER OF ATOMS
1
ITEM: BOX BOUNDS pp pp pp
0 100
0 100
0 100
ITEM: ATOMS id type diameter x y z vx vy vz 
1 1 9.14684 50 50 50 0 0 0 
ITEM: TIMESTEP
51000000
ITEM: NUMBER OF ATOMS
1
ITEM: BOX BOUNDS pp pp pp
0 100
0 100
0 100
ITEM: ATOMS id type diameter x y z vx vy vz 
1 1 9.56085 50 50 50 0 0 0 
ITEM: TIMESTEP
52000000
ITEM: NUMBER OF ATOMS
1
ITEM: BOX BOUNDS pp pp pp
0 100
0 100
0 100
ITEM: ATOMS id type diameter x y z vx vy vz 
1 1 9.9936 50 50 50 0 0 0 
ITEM: TIMESTEP
53000000
ITEM: NUMBER OF ATOMS
1
ITEM: BOX BOUNDS pp pp pp
0 100
0 100
0 100
ITEM: ATOMS id type diameter x y z vx vy vz 
1 1 10.4459 50 50 50 0 0 0 
ITEM: TIMESTEP
54000000
ITEM: NUMBER OF ATOMS
1
ITEM: BOX BOUNDS pp pp pp
0 100
0 100
0 100
ITEM: ATOMS id type diameter x y z vx vy vz 
1 1 10.9188 50 50 50 0 0 0 
ITEM: TIMESTEP
55000000
ITEM: NUMBER OF ATOMS
1
ITEM: BOX BOUNDS pp pp pp
0 100
0 100
0 100
ITEM: ATOMS id type diameter x y z vx vy vz 
1 1 11.413 50 50 50 0 0 0 
ITEM: TIMESTEP
56000000
ITEM: NUMBER OF ATOMS
1
ITEM: BOX BOUNDS pp pp pp
0 100
0 100
0 100
ITEM: ATOMS id type diameter x y z vx vy vz 
1 1 11.9295 50 50 50 0 0 0 
ITEM: TIMESTEP
57000000
ITEM: NUMBER OF ATOMS
1
ITEM: BOX BOUNDS pp pp pp
0 100
0 100
0 100
ITEM: ATOMS id type diameter x y z vx vy vz 
1 1 12.4695 50 50 50 0 0 0 
ITEM: TIMESTEP
58000000
ITEM: NUMBER OF ATOMS
1
ITEM: BOX BOUNDS pp pp pp
0 100
0 100
0 100
ITEM: ATOMS id type diameter x y z vx vy vz 
1 1 13.0339 50 50 50 0 0 0 
ITEM: TIMESTEP
59000000
ITEM: NUMBER OF ATOMS
1
ITEM: BOX BOUNDS pp pp pp
0 100
0 100
0 100
ITEM: ATOMS id type diameter x y z vx vy vz 
1 1 13.6239 50 50 50 0 0 0 
ITEM: TIMESTEP
60000000
ITEM: NUMBER OF ATOMS
1
ITEM: BOX BOUNDS pp pp pp
0 100
0 100
0 100
ITEM: ATOMS id type diameter x y z vx vy vz 
1 1 14.2405 50 50 50 0 0 0 
ITEM: TIMESTEP
61000000
ITEM: NUMBER OF ATOMS
1
ITEM: BOX BOUNDS pp pp pp
0 100
0 100
0 100
ITEM: ATOMS id type diameter x y z vx vy vz 
1 1 14.8851 50 50 50 0 0 0 
ITEM: TIMESTEP
62000000
ITEM: NUMBER OF ATOMS
1
ITEM: BOX BOUNDS pp pp pp
0 100
0 100
0 100
ITEM: ATOMS id type diameter x y z vx vy vz 
1 1 15.5588 50 50 50 0 0 0 
ITEM: TIMESTEP
63000000
ITEM: NUMBER OF ATOMS
1
ITEM: BOX BOUNDS pp pp pp
0 100
0 100
0 100
ITEM: ATOMS id type diameter x y z vx vy vz 
1 1 16.263 50 50 50 0 0 0 
ITEM: TIMESTEP
64000000
ITEM: NUMBER OF ATOMS
1
ITEM: BOX BOUNDS pp pp pp
0 100
0 100
0 100
ITEM: ATOMS id type diameter x y z vx vy vz 
1 1 16.9992 50 50 50 0 0 0 
ITEM: TIMESTEP
65000000
ITEM: NUMBER OF ATOMS
1
ITEM: BOX BOUNDS pp pp pp
0 100
0 100
0 100
ITEM: ATOMS id type diameter x y z vx vy vz 
1 1 17.7686 50 50 50 0 0 0 
ITEM: TIMESTEP
66000000
ITEM: NUMBER OF ATOMS
1
ITEM: BOX BOUNDS pp pp pp
0 100
0 100
0 100
ITEM: ATOMS id type diameter x y z vx vy vz 
1 1 18.5728 50 50 50 0 0 0 
ITEM: TIMESTEP
67000000
ITEM: NUMBER OF ATOMS
1
ITEM: BOX BOUNDS pp pp pp
0 100
0 100
0 100
ITEM: ATOMS id type diameter x y z vx vy vz 
1 1 19.4135 50 50 50 0 0 0 
ITEM: TIMESTEP
68000000
ITEM: NUMBER OF ATOMS
1
ITEM: BOX BOUNDS pp pp pp
0 100
0 100
0 100
ITEM: ATOMS id type diameter x y z vx vy vz 
1 1 20.2922 50 50 50 0 0 0 
ITEM: TIMESTEP
69000000
ITEM: NUMBER OF ATOMS
1
ITEM: BOX BOUNDS pp pp pp
0 100
0 100
0 100
ITEM: ATOMS id type diameter x y z vx vy vz 
1 1 21.2107 50 50 50 0 0 0 
ITEM: TIMESTEP
70000000
ITEM: NUMBER OF ATOMS
1
ITEM: BOX BOUNDS pp pp pp
0 100
0 100
0 100
ITEM: ATOMS id type diameter x y z vx vy vz 
1 1 22.1707 50 50 50 0 0 0 
ITEM: TIMESTEP
71000000
ITEM: NUMBER OF ATOMS
1
ITEM: BOX BOUNDS pp pp pp
0 100
0 100
0 100
ITEM: ATOMS id type diameter x y z vx vy vz 
1 1 23.1742 50 50 50 0 0 0 
ITEM: TIMESTEP
72000000
ITEM: NUMBER OF ATOMS
1
ITEM: BOX BOUNDS pp pp pp
0 100
0 100
0 100
ITEM: ATOMS id type diameter x y z vx vy vz 
1 1 24.2232 50 50 50 0 0 0 
ITEM: TIMESTEP
73000000
ITEM: NUMBER OF ATOMS
1
ITEM: BOX BOUNDS pp pp pp
0 100
0 100
0 100
ITEM: ATOMS id type diameter x y z vx vy vz 
1 1 25.3196 50 50 50 0 0 0 
ITEM: TIMESTEP
74000000
ITEM: NUMBER OF ATOMS
1
ITEM: BOX BOUNDS pp pp pp
0 100
0 100
0 100
ITEM: ATOMS id type diameter x y z vx vy vz 
1 1 26.4656 50 50 50 0 0 0 
ITEM: TIMESTEP
75000000
ITEM: NUMBER OF ATOMS
1
ITEM: BOX BOUNDS pp pp pp
0 100
0 100
0 100
ITEM: ATOMS id type diameter x y z vx vy vz 
1 1 27.6635 50 50 50 0 0 0 
ITEM: TIMESTEP
76000000
ITEM: NUMBER OF ATOMS
1
ITEM: BOX BOUNDS pp pp pp
0 100
0 100
0 100
ITEM: ATOMS id type diameter x y z vx vy vz 
1 1 28.9156 50 50 50 0 0 0 
ITEM: TIMESTEP
77000000
ITEM: NUMBER OF ATOMS
1
ITEM: BOX BOUNDS pp pp pp
0 100
0 100
0 100
ITEM: ATOMS id type diameter x y z vx vy vz 
1 1 30.2244 50 50 50 0 0 0 
ITEM: TIMESTEP
78000000
ITEM: NUMBER OF ATOMS
1
ITEM: BOX BOUNDS pp pp pp
0 100
0 100
0 100
ITEM: ATOMS id type diameter x y z vx vy vz 
1 1 31.5924 50 50 50 0 0 0 
ITEM: TIMESTEP
79000000
ITEM: NUMBER OF ATOMS
1
ITEM: BOX BOUNDS pp pp pp
0 100
0 100
0 100
ITEM: ATOMS id type diameter x y z vx vy vz 
1 1 33.0224 50 50 50 0 0 0 
ITEM: TIMESTEP
80000000
ITEM: NUMBER OF ATOMS
1
ITEM: BOX BOUNDS pp pp pp
0 100
0 100
0 100
ITEM: ATOMS id type diameter x y z vx vy vz 
1 1 34.5171 50 50 50 0 0 0 
ITEM: TIMESTEP
81000000
ITEM: NUMBER OF ATOMS
1
ITEM: BOX BOUNDS pp pp pp
0 100
0 100
0 100
ITEM: ATOMS id type diameter x y z vx vy vz 
1 1 36.0794 50 50 50 0 0 0 
ITEM: TIMESTEP
82000000
ITEM: NUMBER OF ATOMS
1
ITEM: BOX BOUNDS pp pp pp
0 100
0 100
0 100
ITEM: ATOMS id type diameter x y z vx vy vz 
1 1 37.7125 50 50 50 0 0 0 
ITEM: TIMESTEP
83000000
ITEM: NUMBER OF ATOMS
1
ITEM: BOX BOUNDS pp pp pp
0 100
0 100
0 100
ITEM: ATOMS id type diameter x y z vx vy vz 
1 1 39.4194 50 50 50 0 0 0 
ITEM: TIMESTEP
84000000
ITEM: NUMBER OF ATOMS
1
ITEM: BOX BOUNDS pp pp pp
0 100
0 100
0 100
ITEM: ATOMS id type diameter x y z vx vy vz 
1 1 41.2037 50 50 50 0 0 0 
ITEM: TIMESTEP
85000000
ITEM: NUMBER OF ATOMS
1
ITEM: BOX BOUNDS pp pp pp
0 100
0 100
0 100
ITEM: ATOMS id type diameter x y z vx vy vz 
1 1 43.0686 50 50 50 0 0 0 
ITEM: TIMESTEP
86000000
ITEM: NUMBER OF ATOMS
1
ITEM: BOX BOUNDS pp pp pp
0 100
0 100
0 100
ITEM: ATOMS id type diameter x y z vx vy vz 
1 1 45.018 50 50 50 0 0 0 
ITEM: TIMESTEP
87000000
ITEM: NUMBER OF ATOMS
1
ITEM: BOX BOUNDS pp pp pp
0 100
0 100
0 100
ITEM: ATOMS id type diameter x y z vx vy vz 
1 1 47.0557 50 50 50 0 0 0 
ITEM: TIMESTEP
88000000
ITEM: NUMBER OF ATOMS
1
ITEM: BOX BOUNDS pp pp pp
0 100
0 100
0 100
ITEM: ATOMS id type diameter x y z vx vy vz 
1 1 49.1855 50 50 50 0 0 0 
ITEM: TIMESTEP
89000000
ITEM: NUMBER OF ATOMS
1
ITEM: BOX BOUNDS pp pp pp
0 100
0 100
0 100
ITEM: ATOMS id type diameter x y z vx vy vz 
1 1 51.4118 50 50 50 0 0 0 
ITEM: TIMESTEP
90000000
ITEM: NUMBER OF ATOMS
1
ITEM: BOX BOUNDS pp pp pp
0 100
0 100
0 100
ITEM: ATOMS id type diameter x y z vx vy vz 
1 1 53.7388 50 50 50 0 0 0 
ITEM: TIMESTEP
91000000
ITEM: NUMBER OF ATOMS
1
ITEM: BOX BOUNDS pp pp pp
0 100
0 100
0 100
ITEM: ATOMS id type diameter x y z vx vy vz 
1 1 56.1712 50 50 50 0 0 0 
ITEM: TIMESTEP
92000000
ITEM: NUMBER OF ATOMS
1
ITEM: BOX BOUNDS pp pp pp
0 100
0 100
0 100
ITEM: ATOMS id type diameter x y z vx vy vz 
1 1 58.7137 50 50 50 0 0 0 
ITEM: TIMESTEP
93000000
ITEM: NUMBER OF ATOMS
1
ITEM: BOX BOUNDS pp pp pp
0 100
0 100
0 100
ITEM: ATOMS id type diameter x y z vx vy vz 
1 1 61.3712 50 50 50 0 0 0 
ITEM: TIMESTEP
94000000
ITEM: NUMBER OF ATOMS
1
ITEM: BOX BOUNDS pp pp pp
0 100
0 100
0 100
ITEM: ATOMS id type diameter x y z vx vy vz 
1 1 64.149 50 50 50 0 0 0 
ITEM: TIMESTEP
95000000
ITEM: NUMBER OF ATOMS
1
ITEM: BOX BOUNDS pp pp pp
0 100
0 100
0 100
ITEM: ATOMS id type diameter x y z vx vy vz 
1 1 67.0526 50 50 50 0 0 0 
ITEM: TIMESTEP
96000000
ITEM: NUMBER OF ATOMS
1
ITEM: BOX BOUNDS pp pp pp
0 100
0 100
0 100
ITEM: ATOMS id type diameter x y z vx vy vz 
1 1 70.0875 50 50 50 0 0 0 
ITEM: TIMESTEP
97000000
ITEM: NUMBER OF ATOMS
1
ITEM: BOX BOUNDS pp pp pp
0 100
0 100
0 100
ITEM: ATOMS id type diameter x y z vx vy vz 
1 1 73.2599 50 50 50 0 0 0 
ITEM: TIMESTEP
98000000
ITEM: NUMBER OF ATOMS
1
ITEM: BOX BOUNDS pp pp pp
0 100
0 100
0 100
ITEM: ATOMS id type diameter x y z vx vy vz 
1 1 76.5758 50 50 50 0 0 0 
ITEM: TIMESTEP
99000000
ITEM: NUMBER OF ATOMS
1
ITEM: BOX BOUNDS pp pp pp
0 100
0 100
0 100
ITEM: ATOMS id type diameter x y z vx vy vz 
1 1 80.0419 50 50 50 0 0 0 
ITEM: TIMESTEP
100000000
ITEM: NUMBER OF ATOMS
1
ITEM: BOX BOUNDS pp pp pp
0 100
0 100
0 100
ITEM: ATOMS id type diameter x y z vx vy vz 
1 1 83.6648 50 50 50 0 0 0 
ITEM: TIMESTEP
101000000
ITEM: NUMBER OF ATOMS
1
ITEM: BOX BOUNDS pp pp pp
0 100
0 100
0 100
ITEM: ATOMS id type diameter x y z vx vy vz 
1 1 87.4516 50 50 50 0 0 0 
ITEM: TIMESTEP
102000000
ITEM: NUMBER OF ATOMS
1
ITEM: BOX BOUNDS pp pp pp
0 100
0 100
0 100
ITEM: ATOMS id type diameter x y z vx vy vz 
1 1 91.4099 50 50 50 0 0 0 
ITEM: TIMESTEP
103000000
ITEM: NUMBER OF ATOMS
1
ITEM: BOX BOUNDS pp pp pp
0 100
0 100
0 100
ITEM: ATOMS id type diameter x y z vx vy vz 
1 1 95.5474 50 50 50 0 0 0 
ITEM: TIMESTEP
104000000
ITEM: NUMBER OF ATOMS
1
ITEM: BOX BOUNDS pp pp pp
0 100
0 100
0 100
ITEM: ATOMS id type diameter x y z vx vy vz 
1 1 99.8721 50 50 50 0 0 0 
ITEM: TIMESTEP
105000000
ITEM: NUMBER OF ATOMS
1
ITEM: BOX BOUNDS pp pp pp
0 100
0 100
0 100
ITEM: ATOMS id type diameter x y z vx vy vz 
1 1 104.393 50 50 50 0 0 0 
ITEM: TIMESTEP
106000000
ITEM: NUMBER OF ATOMS
1
ITEM: BOX BOUNDS pp pp pp
0 100
0 100
0 100
ITEM: ATOMS id type diameter x y z vx vy vz 
1 1 109.118 50 50 50 0 0 0 
ITEM: TIMESTEP
107000000
ITEM: NUMBER OF ATOMS
1
ITEM: BOX BOUNDS pp pp pp
0 100
0 100
0 100
ITEM: ATOMS id type diameter x y z vx vy vz 
1 1 114.057 50 50 50 0 0 0 
ITEM: TIMESTEP
108000000
ITEM: NUMBER OF ATOMS
1
ITEM: BOX BOUNDS pp pp pp
0 100
0 100
0 100
ITEM: ATOMS id type diameter x y z vx vy vz 
1 1 119.219 50 50 50 0 0 0 
ITEM: TIMESTEP
109000000
ITEM: NUMBER OF ATOMS
1
ITEM: BOX BOUNDS pp pp pp
0 100
0 100
0 100
ITEM: ATOMS id type diameter x y z vx vy vz 
1 1 124.615 50 50 50 0 0 0 
ITEM: TIMESTEP
110000000
ITEM: NUMBER OF ATOMS
1
ITEM: BOX BOUNDS pp pp pp
0 100
0 100
0 100
ITEM: ATOMS id type diameter x y z vx vy vz 
1 1 130.256 50 50 50 0 0 0 
ITEM: TIMESTEP
111000000
ITEM: NUMBER OF ATOMS
1
ITEM: BOX BOUNDS pp pp pp
0 100
0 100
0 100
ITEM: ATOMS id type diameter x y z vx vy vz 
1 1 136.151 50 50 50 0 0 0 
ITEM: TIMESTEP
112000000
ITEM: NUMBER OF ATOMS
1
ITEM: BOX BOUNDS pp pp pp
0 100
0 100
0 100
ITEM: ATOMS id type diameter x y z vx vy vz 
1 1 142.314 50 50 50 0 0 0 
ITEM: TIMESTEP
113000000
ITEM: NUMBER OF ATOMS
1
ITEM: BOX BOUNDS pp pp pp
0 100
0 100
0 100
ITEM: ATOMS id type diameter x y z vx vy vz 
1 1 148.756 50 50 50 0 0 0 
ITEM: TIMESTEP
114000000
ITEM: NUMBER OF ATOMS
1
ITEM: BOX BOUNDS pp pp pp
0 100
0 100
0 100
ITEM: ATOMS id type diameter x y z vx vy vz 
1 1 155.489 50 50 50 0 0 0 
ITEM: TIMESTEP
115000000
ITEM: NUMBER OF ATOMS
1
ITEM: BOX BOUNDS pp pp pp
0 100
0 100
0 100
ITEM: ATOMS id type diameter x y z vx vy vz 
1 1 162.526 50 50 50 0 0 0 
ITEM: TIMESTEP
116000000
ITEM: NUMBER OF ATOMS
1
ITEM: BOX BOUNDS pp pp pp
0 100
0 100
0 100
ITEM: ATOMS id type diameter x y z vx vy vz 
1 1 169.883 50 50 50 0 0 0 
ITEM: TIMESTEP
117000000
ITEM: NUMBER OF ATOMS
1
ITEM: BOX BOUNDS pp pp pp
0 100
0 100
0 100
ITEM: ATOMS id type diameter x y z vx vy vz 
1 1 177.572 50 50 50 0 0 0 
ITEM: TIMESTEP
118000000
ITEM: NUMBER OF ATOMS
1
ITEM: BOX BOUNDS pp pp pp
0 100
0 100
0 100
ITEM: ATOMS id type diameter x y z vx vy vz 
1 1 185.61 50 50 50 0 0 0 
ITEM: TIMESTEP
119000000
ITEM: NUMBER OF ATOMS
1
ITEM: BOX BOUNDS pp pp pp
0 100
0 100
0 100
ITEM: ATOMS id type diameter x y z vx vy vz 
1 1 194.011 50 50 50 0 0 0 
ITEM: TIMESTEP
120000000
ITEM: NUMBER OF ATOMS
1
ITEM: BOX BOUNDS pp pp pp
0 100
0 100
0 100
ITEM: ATOMS id type diameter x y z vx vy vz 
1 1 202.792 50 50 50 0 0 0 
ITEM: TIMESTEP
121000000
ITEM: NUMBER OF ATOMS
1
ITEM: BOX BOUNDS pp pp pp
0 100
0 100
0 100
ITEM: ATOMS id type diameter x y z vx vy vz 
1 1 211.971 50 50 50 0 0 0 
ITEM: TIMESTEP
122000000
ITEM: NUMBER OF ATOMS
1
ITEM: BOX BOUNDS pp pp pp
0 100
0 100
0 100
ITEM: ATOMS id type diameter x y z vx vy vz 
1 1 221.565 50 50 50 0 0 0 
ITEM: TIMESTEP
123000000
ITEM: NUMBER OF ATOMS
1
ITEM: BOX BOUNDS pp pp pp
0 100
0 100
0 100
ITEM: ATOMS id type diameter x y z vx vy vz 
1 1 231.594 50 50 50 0 0 0 
ITEM: TIMESTEP
124000000
ITEM: NUMBER OF ATOMS
1
ITEM: BOX BOUNDS pp pp pp
0 100
0 100
0 100
ITEM: ATOMS id type diameter x y z vx vy vz 
1 1 242.077 50 50 50 0 0 0 
ITEM: TIMESTEP
125000000
ITEM: NUMBER OF ATOMS
1
ITEM: BOX BOUNDS pp pp pp
0 100
0 100
0 100
ITEM: ATOMS id type diameter x y z vx vy vz 
1 1 253.034 50 50 50 0 0 0 
ITEM: TIMESTEP
126000000
ITEM: NUMBER OF ATOMS
1
ITEM: BOX BOUNDS pp pp pp
0 100
0 100
0 100
ITEM: ATOMS id type diameter x y z vx vy vz 
1 1 264.487 50 50 50 0 0 0 
ITEM: TIMESTEP
127000000
ITEM: NUMBER OF ATOMS
1
ITEM: BOX BOUNDS pp pp pp
0 100
0 100
0 100
ITEM: ATOMS id type diameter x y z vx vy vz 
1 1 276.458 50 50 50 0 0 0 
ITEM: TIMESTEP
128000000
ITEM: NUMBER OF ATOMS
1
ITEM: BOX BOUNDS pp pp pp
0 100
0 100
0 100
ITEM: ATOMS id type diameter x y z vx vy vz 
1 1 288.971 50 50 50 0 0 0 
ITEM: TIMESTEP
129000000
ITEM: NUMBER OF ATOMS
1
ITEM: BOX BOUNDS pp pp pp
0 100
0 100
0 100
ITEM: ATOMS id type diameter x y z vx vy vz 
1 1 302.051 50 50 50 0 0 0 
ITEM: TIMESTEP
130000000
ITEM: NUMBER OF ATOMS
1
ITEM: BOX BOUNDS pp pp pp
0 100
0 100
0 100
ITEM: ATOMS id type diameter x y z vx vy vz 
1 1 315.722 50 50 50 0 0 0 
ITEM: TIMESTEP
131000000
ITEM: NUMBER OF ATOMS
1
ITEM: BOX BOUNDS pp pp pp
0 100
0 100
0 100
ITEM: ATOMS id type diameter x y z vx vy vz 
1 1 330.013 50 50 50 0 0 0 
ITEM: TIMESTEP
132000000
ITEM: NUMBER OF ATOMS
1
ITEM: BOX BOUNDS pp pp pp
0 100
0 100
0 100
ITEM: ATOMS id type diameter x y z vx vy vz 
1 1 344.95 50 50 50 0 0 0 
ITEM: TIMESTEP
133000000
ITEM: NUMBER OF ATOMS
1
ITEM: BOX BOUNDS pp pp pp
0 100
0 100
0 100
ITEM: ATOMS id type diameter x y z vx vy vz 
1 1 360.563 50 50 50 0 0 0 
ITEM: TIMESTEP
134000000
ITEM: NUMBER OF ATOMS
1
ITEM: BOX BOUNDS pp pp pp
0 100
0 100
0 100
ITEM: ATOMS id type diameter x y z vx vy vz 
1 1 376.883 50 50 50 0 0 0 
ITEM: TIMESTEP
135000000
ITEM: NUMBER OF ATOMS
1
ITEM: BOX BOUNDS pp pp pp
0 100
0 100
0 100
ITEM: ATOMS id type diameter x y z vx vy vz 
1 1 393.942 50 50 50 0 0 0 
ITEM: TIMESTEP
136000000
ITEM: NUMBER OF ATOMS
1
ITEM: BOX BOUNDS pp pp pp
0 100
0 100
0 100
ITEM: ATOMS id type diameter x y z vx vy vz 
1 1 411.773 50 50 50 0 0 0 
ITEM: TIMESTEP
137000000
ITEM: NUMBER OF ATOMS
1
ITEM: BOX BOUNDS pp pp pp
0 100
0 100
0 100
ITEM: ATOMS id type diameter x y z vx vy vz 
1 1 430.411 50 50 50 0 0 0 
ITEM: TIMESTEP
138000000
ITEM: NUMBER OF ATOMS
1
ITEM: BOX BOUNDS pp pp pp
0 100
0 100
0 100
ITEM: ATOMS id type diameter x y z vx vy vz 
1 1 449.892 50 50 50 0 0 0 
ITEM: TIMESTEP
139000000
ITEM: NUMBER OF ATOMS
1
ITEM: BOX BOUNDS pp pp pp
0 100
0 100
0 100
ITEM: ATOMS id type diameter x y z vx vy vz 
1 1 470.256 50 50 50 0 0 0 
ITEM: TIMESTEP
140000000
ITEM: NUMBER OF ATOMS
1
ITEM: BOX BOUNDS pp pp pp
0 100
0 100
0 100
ITEM: ATOMS id type diameter x y z vx vy vz 
1 1 491.541 50 50 50 0 0 0 
ITEM: TIMESTEP
141000000
ITEM: NUMBER OF ATOMS
1
ITEM: BOX BOUNDS pp pp pp
0 100
0 100
0 100
ITEM: ATOMS id type diameter x y z vx vy vz 
1 1 513.789 50 50 50 0 0 0 
ITEM: TIMESTEP
142000000
ITEM: NUMBER OF ATOMS
1
ITEM: BOX BOUNDS pp pp pp
0 100
0 100
0 100
ITEM: ATOMS id type diameter x y z vx vy vz 
1 1 537.045 50 50 50 0 0 0 
ITEM: TIMESTEP
143000000
ITEM: NUMBER OF ATOMS
1
ITEM: BOX BOUNDS pp pp pp
0 100
0 100
0 100
ITEM: ATOMS id type diameter x y z vx vy vz 
1 1 561.353 50 50 50 0 0 0 
ITEM: TIMESTEP
144000000
ITEM: NUMBER OF ATOMS
1
ITEM: BOX BOUNDS pp pp pp
0 100
0 100
0 100
ITEM: ATOMS id type diameter x y z vx vy vz 
1 1 586.761 50 50 50 0 0 0 
ITEM: TIMESTEP
145000000
ITEM: NUMBER OF ATOMS
1
ITEM: BOX BOUNDS pp pp pp
0 100
0 100
0 100
ITEM: ATOMS id type diameter x y z vx vy vz 
1 1 613.319 50 50 50 0 0 0 
ITEM: TIMESTEP
146000000
ITEM: NUMBER OF ATOMS
1
ITEM: BOX BOUNDS pp pp pp
0 100
0 100
0 100
ITEM: ATOMS id type diameter x y z vx vy vz 
1 1 641.08 50 50 50 0 0 0 
ITEM: TIMESTEP
147000000
ITEM: NUMBER OF ATOMS
1
ITEM: BOX BOUNDS pp pp pp
0 100
0 100
0 100
ITEM: ATOMS id type diameter x y z vx vy vz 
1 1 670.097 50 50 50 0 0 0 
ITEM: TIMESTEP
148000000
ITEM: NUMBER OF ATOMS
1
ITEM: BOX BOUNDS pp pp pp
0 100
0 100
0 100
ITEM: ATOMS id type diameter x y z vx vy vz 
1 1 700.427 50 50 50 0 0 0 
ITEM: TIMESTEP
149000000
ITEM: NUMBER OF ATOMS
1
ITEM: BOX BOUNDS pp pp pp
0 100
0 100
0 100
ITEM: ATOMS id type diameter x y z vx vy vz 
1 1 732.13 50 50 50 0 0 0 
ITEM: TIMESTEP
150000000
ITEM: NUMBER OF ATOMS
1
ITEM: BOX BOUNDS pp pp pp
0 100
0 100
0 100
ITEM: ATOMS id type diameter x y z vx vy vz 
1 1 765.268 50 50 50 0 0 0 
ITEM: TIMESTEP
151000000
ITEM: NUMBER OF ATOMS
1
ITEM: BOX BOUNDS pp pp pp
0 100
0 100
0 100
ITEM: ATOMS id type diameter x y z vx vy vz 
1 1 799.907 50 50 50 0 0 0 
ITEM: TIMESTEP
152000000
ITEM: NUMBER OF ATOMS
1
ITEM: BOX BOUNDS pp pp pp
0 100
0 100
0 100
ITEM: ATOMS id type diameter x y z vx vy vz 
1 1 836.112 50 50 50 0 0 0 
ITEM: TIMESTEP
153000000
ITEM: NUMBER OF ATOMS
1
ITEM: BOX BOUNDS pp pp pp
0 100
0 100
0 100
ITEM: ATOMS id type diameter x y z vx vy vz 
1 1 873.957 50 50 50 0 0 0 
ITEM: TIMESTEP
154000000
ITEM: NUMBER OF ATOMS
1
ITEM: BOX BOUNDS pp pp pp
0 100
0 100
0 100
ITEM: ATOMS id type diameter x y z vx vy vz 
1 1 913.515 50 50 50 0 0 0 
ITEM: TIMESTEP
155000000
ITEM: NUMBER OF ATOMS
1
ITEM: BOX BOUNDS pp pp pp
0 100
0 100
0 100
ITEM: ATOMS id type diameter x y z vx vy vz 
1 1 954.863 50 50 50 0 0 0 
ITEM: TIMESTEP
156000000
ITEM: NUMBER OF ATOMS
1
ITEM: BOX BOUNDS pp pp pp
0 100
0 100
0 100
ITEM: ATOMS id type diameter x y z vx vy vz 
1 1 998.082 50 50 50 0 0 0 
ITEM: TIMESTEP
157000000
ITEM: NUMBER OF ATOMS
1
ITEM: BOX BOUNDS pp pp pp
0 100
0 100
0 100
ITEM: ATOMS id type diameter x y z vx vy vz 
1 1 1043.26 50 50 50 0 0 0 
ITEM: TIMESTEP
158000000
ITEM: NUMBER OF ATOMS
1
ITEM: BOX BOUNDS pp pp pp
0 100
0 100
0 100
ITEM: ATOMS id type diameter x y z vx vy vz 
1 1 1090.48 50 50 50 0 0 0 
ITEM: TIMESTEP
159000000
ITEM: NUMBER OF ATOMS
1
ITEM: BOX BOUNDS pp pp pp
0 100
0 100
0 100
ITEM: ATOMS id type diameter x y z vx vy vz 
1 1 1139.84 50 50 50 0 0 0 
ITEM: TIMESTEP
160000000
ITEM: NUMBER OF ATOMS
1
ITEM: BOX BOUNDS pp pp pp
0 100
0 100
0 100
ITEM: ATOMS id type diameter x y z vx vy vz 
1 1 1191.43 50 50 50 0 0 0 
ITEM: TIMESTEP
161000000
ITEM: NUMBER OF ATOMS
1
ITEM: BOX BOUNDS pp pp pp
0 100
0 100
0 100
ITEM: ATOMS id type diameter x y z vx vy vz 
1 1 1245.36 50 50 50 0 0 0 
ITEM: TIMESTEP
162000000
ITEM: NUMBER OF ATOMS
1
ITEM: BOX BOUNDS pp pp pp
0 100
0 100
0 100
ITEM: ATOMS id type diameter x y z vx vy vz 
1 1 1301.72 50 50 50 0 0 0 
ITEM: TIMESTEP
163000000
ITEM: NUMBER OF ATOMS
1
ITEM: BOX BOUNDS pp pp pp
0 100
0 100
0 100
ITEM: ATOMS id type diameter x y z vx vy vz 
1 1 1360.64 50 50 50 0 0 0 
ITEM: TIMESTEP
164000000
ITEM: NUMBER OF ATOMS
1
ITEM: BOX BOUNDS pp pp pp
0 100
0 100
0 100
ITEM: ATOMS id type diameter x y z vx vy vz 
1 1 1422.23 50 50 50 0 0 0 
ITEM: TIMESTEP
165000000
ITEM: NUMBER OF ATOMS
1
ITEM: BOX BOUNDS pp pp pp
0 100
0 100
0 100
ITEM: ATOMS id type diameter x y z vx vy vz 
1 1 1486.6 50 50 50 0 0 0 
ITEM: TIMESTEP
166000000
ITEM: NUMBER OF ATOMS
1
ITEM: BOX BOUNDS pp pp pp
0 100
0 100
0 100
ITEM: ATOMS id type diameter x y z vx vy vz 
1 1 1553.89 50 50 50 0 0 0 
ITEM: TIMESTEP
167000000
ITEM: NUMBER OF ATOMS
1
ITEM: BOX BOUNDS pp pp pp
0 100
0 100
0 100
ITEM: ATOMS id type diameter x y z vx vy vz 
1 1 1624.22 50 50 50 0 0 0 
ITEM: TIMESTEP
168000000
ITEM: NUMBER OF ATOMS
1
ITEM: BOX BOUNDS pp pp pp
0 100
0 100
0 100
ITEM: ATOMS id type diameter x y z vx vy vz 
1 1 1697.74 50 50 50 0 0 0 
ITEM: TIMESTEP
169000000
ITEM: NUMBER OF ATOMS
1
ITEM: BOX BOUNDS pp pp pp
0 100
0 100
0 100
ITEM: ATOMS id type diameter x y z vx vy vz 
1 1 1774.59 50 50 50 0 0 0 
ITEM: TIMESTEP
170000000
ITEM: NUMBER OF ATOMS
1
ITEM: BOX BOUNDS pp pp pp
0 100
0 100
0 100
ITEM: ATOMS id type diameter x y z vx vy vz 
1 1 1854.91 50 50 50 0 0 0 
ITEM: TIMESTEP
171000000
ITEM: NUMBER OF ATOMS
1
ITEM: BOX BOUNDS pp pp pp
0 100
0 100
0 100
ITEM: ATOMS id type diameter x y z vx vy vz 
1 1 1938.87 50 50 50 0 0 0 
ITEM: TIMESTEP
172000000
ITEM: NUMBER OF ATOMS
1
ITEM: BOX BOUNDS pp pp pp
0 100
0 100
0 100
ITEM: ATOMS id type diameter x y z vx vy vz 
1 1 2026.62 50 50 50 0 0 0 
ITEM: TIMESTEP
173000000
ITEM: NUMBER OF ATOMS
1
ITEM: BOX BOUNDS pp pp pp
0 100
0 100
0 100
ITEM: ATOMS id type diameter x y z vx vy vz 
1 1 2118.35 50 50 50 0 0 0 
ITEM: TIMESTEP
174000000
ITEM: NUMBER OF ATOMS
1
ITEM: BOX BOUNDS pp pp pp
0 100
0 100
0 100
ITEM: ATOMS id type diameter x y z vx vy vz 
1 1 2214.24 50 50 50 0 0 0 
ITEM: TIMESTEP
175000000
ITEM: NUMBER OF ATOMS
1
ITEM: BOX BOUNDS pp pp pp
0 100
0 100
0 100
ITEM: ATOMS id type diameter x y z vx vy vz 
1 1 2314.46 50 50 50 0 0 0 
ITEM: TIMESTEP
176000000
ITEM: NUMBER OF ATOMS
1
ITEM: BOX BOUNDS pp pp pp
0 100
0 100
0 100
ITEM: ATOMS id type diameter x y z vx vy vz 
1 1 2419.22 50 50 50 0 0 0 
ITEM: TIMESTEP
177000000
ITEM: NUMBER OF ATOMS
1
ITEM: BOX BOUNDS pp pp pp
0 100
0 100
0 100
ITEM: ATOMS id type diameter x y z vx vy vz 
1 1 2528.72 50 50 50 0 0 0 
ITEM: TIMESTEP
178000000
ITEM: NUMBER OF ATOMS
1
ITEM: BOX BOUNDS pp pp pp
0 100
0 100
0 100
ITEM: ATOMS id type diameter x y z vx vy vz 
1 1 2643.17 50 50 50 0 0 0 
ITEM: TIMESTEP
179000000
ITEM: NUMBER OF ATOMS
1
ITEM: BOX BOUNDS pp pp pp
0 100
0 100
0 100
ITEM: ATOMS id type diameter x y z vx vy vz 
1 1 2762.81 50 50 50 0 0 0 
ITEM: TIMESTEP
180000000
ITEM: NUMBER OF ATOMS
1
ITEM: BOX BOUNDS pp pp pp
0 100
0 100
0 100
ITEM: ATOMS id type diameter x y z vx vy vz 
1 1 2887.86 50 50 50 0 0 0 
ITEM: TIMESTEP
181000000
ITEM: NUMBER OF ATOMS
1
ITEM: BOX BOUNDS pp pp pp
0 100
0 100