ITEM: TIMESTEP
0
ITEM: NUMBER OF ATOMS
1
ITEM: BOX BOUNDS pp pp pp
0 0.001
0 0.001
0 0.001
ITEM: ATOMS id type diameter x y z vx vy vz 
1 1 1e-05 0.0005 0.0005 0.0005 0 0 0 
ITEM: TIMESTEP
10
ITEM: NUMBER OF ATOMS
1
ITEM: BOX BOUNDS pp pp pp
0 0.001
0 0.001
0 0.001
ITEM: ATOMS id type diameter x y z vx vy vz 
1 1 1e-05 0.0005 0.0005 0.0004955 -1.10218e-19 0 -0.0009 
ITEM: TIMESTEP
20
ITEM: NUMBER OF ATOMS
1
ITEM: BOX BOUNDS pp pp pp
0 0.001
0 0.001
0 0.001
ITEM: ATOMS id type diameter x y z vx vy vz 
1 1 1e-05 0.0005 0.0005 0.000482 -2.20436e-19 0 -0.0018 
ITEM: TIMESTEP
30
ITEM: NUMBER OF ATOMS
1
ITEM: BOX BOUNDS pp pp pp
0 0.001
0 0.001
0 0.001
ITEM: ATOMS id type diameter x y z vx vy vz 
1 1 1e-05 0.0005 0.0005 0.0004595 -3.30655e-19 0 -0.0027 
ITEM: TIMESTEP
40
ITEM: NUMBER OF ATOMS
1
ITEM: BOX BOUNDS pp pp pp
0 0.001
0 0.001
0 0.001
ITEM: ATOMS id type diameter x y z vx vy vz 
1 1 1e-05 0.0005 0.0005 0.000428 -4.40873e-19 0 -0.0036 
ITEM: TIMESTEP
50
ITEM: NUMBER OF ATOMS
1
ITEM: BOX BOUNDS pp pp pp
0 0.001
0 0.001
0 0.001
ITEM: ATOMS id type diameter x y z vx vy vz 
1 1 1e-05 0.0005 0.0005 0.0003875 -5.51091e-19 0 -0.0045 
ITEM: TIMESTEP
60
ITEM: NUMBER OF ATOMS
1
ITEM: BOX BOUNDS pp pp pp
0 0.001
0 0.001
0 0.001
ITEM: ATOMS id type diameter x y z vx vy vz 
1 1 1e-05 0.0005 0.0005 0.000338 -6.61309e-19 0 -0.0054 
ITEM: TIMESTEP
70
ITEM: NUMBER OF ATOMS
1
ITEM: BOX BOUNDS pp pp pp
0 0.001
0 0.001
0 0.001
ITEM: ATOMS id type diameter x y z vx vy vz 
1 1 1e-05 0.0005 0.0005 0.0002795 -7.71527e-19 0 -0.0063 
ITEM: TIMESTEP
80
ITEM: NUMBER OF ATOMS
1
ITEM: BOX BOUNDS pp pp pp
0 0.001
0 0.001
0 0.001
ITEM: ATOMS id type diameter x y z vx vy vz 
1 1 1e-05 0.0005 0.0005 0.000212 -8.81746e-19 0 -0.0072 
ITEM: TIMESTEP
90
ITEM: NUMBER OF ATOMS
1
ITEM: BOX BOUNDS pp pp pp
0 0.001
0 0.001
0 0.001
ITEM: ATOMS id type diameter x y z vx vy vz 
1 1 1e-05 0.0005 0.0005 0.0001355 -9.91964e-19 0 -0.0081 
ITEM: TIMESTEP
100
ITEM: NUMBER OF ATOMS
1
ITEM: BOX BOUNDS pp pp pp
0 0.001
0 0.001
0 0.001
ITEM: ATOMS id type diameter x y z vx vy vz 
1 1 1e-05 0.0005 0.0005 5e-05 -1.10218e-18 0 -0.009 
ITEM: TIMESTEP
110
ITEM: NUMBER OF ATOMS
1
ITEM: BOX BOUNDS pp pp pp
0 0.001
0 0.001
0 0.001
ITEM: ATOMS id type diameter x y z vx vy vz 
1 1 1e-05 0.0005 0.0005 -4.45e-05 -1.2124e-18 0 -0.0099 
ITEM: TIMESTEP
120
ITEM: NUMBER OF ATOMS
1
ITEM: BOX BOUNDS pp pp pp
0 0.001
0 0.001
0 0.001
ITEM: ATOMS id type diameter x y z vx vy vz 
1 1 1e-05 0.0005 0.0005 0.000852 -1.32262e-18 0 -0.0108 
ITEM: TIMESTEP
130
ITEM: NUMBER OF ATOMS
1
ITEM: BOX BOUNDS pp pp pp
0 0.001
0 0.001
0 0.001
ITEM: ATOMS id type diameter x y z vx vy vz 
1 1 1e-05 0.0005 0.0005 0.0007395 -1.43284e-18 0 -0.0117 
ITEM: TIMESTEP
140
ITEM: NUMBER OF ATOMS
1
ITEM: BOX BOUNDS pp pp pp
0 0.001
0 0.001
0 0.001
ITEM: ATOMS id type diameter x y z vx vy vz 
1 1 1e-05 0.0005 0.0005 0.000618 -1.54305e-18 0 -0.0126 
ITEM: TIMESTEP
150
ITEM: NUMBER OF ATOMS
1
ITEM: BOX BOUNDS pp pp pp
0 0.001
0 0.001
0 0.001
ITEM: ATOMS id type diameter x y z vx vy vz 
1 1 1e-05 0.0005 0.0005 0.0004875 -1.65327e-18 0 -0.0135 
ITEM: TIMESTEP
160
ITEM: NUMBER OF ATOMS
1
ITEM: BOX BOUNDS pp pp pp
0 0.001
0 0.001
0 0.001
ITEM: ATOMS id type diameter x y z vx vy vz 
1 1 1e-05 0.0005 0.0005 0.000348 -1.76349e-18 0 -0.0144 
ITEM: TIMESTEP
170
ITEM: NUMBER OF ATOMS
1
ITEM: BOX BOUNDS pp pp pp
0 0.001
0 0.001
0 0.001
ITEM: ATOMS id type diameter x y z vx vy vz 
1 1 1e-05 0.0005 0.0005 0.0001995 -1.87371e-18 0 -0.0153 
ITEM: TIMESTEP
180
ITEM: NUMBER OF ATOMS
1
ITEM: BOX BOUNDS pp pp pp
0 0.001
0 0.001
0 0.001
ITEM: ATOMS id type diameter x y z vx vy vz 
1 1 1e-05 0.0005 0.0005 4.2e-05 -1.98393e-18 0 -0.0162 
ITEM: TIMESTEP
190
ITEM: NUMBER OF ATOMS
1
ITEM: BOX BOUNDS pp pp pp
0 0.001
0 0.001
0 0.001
ITEM: ATOMS id type diameter x y z vx vy vz 
1 1 1e-05 0.0005 0.0005 -0.0001245 -2.09415e-18 0 -0.0171 
ITEM: TIMESTEP
200
ITEM: NUMBER OF ATOMS
1
ITEM: BOX BOUNDS pp pp pp
0 0.001
0 0.001
0 0.001
ITEM: ATOMS id type diameter x y z vx vy vz 
1 1 1e-05 0.0005 0.0005 0.0007 -2.20436e-18 0 -0.018 
ITEM: TIMESTEP
210
ITEM: NUMBER OF ATOMS
1
ITEM: BOX BOUNDS pp pp pp
0 0.001
0 0.001
0 0.001
ITEM: ATOMS id type diameter x y z vx vy vz 
1 1 1e-05 0.0005 0.0005 0.0005155 -2.31458e-18 0 -0.0189 
ITEM: TIMESTEP
220
ITEM: NUMBER OF ATOMS
1
ITEM: BOX BOUNDS pp pp pp
0 0.001
0 0.001
0 0.001
ITEM: ATOMS id type diameter x y z vx vy vz 
1 1 1e-05 0.0005 0.0005 0.000322 -2.4248e-18 0 -0.0198 
ITEM: TIMESTEP
230
ITEM: NUMBER OF ATOMS
1
ITEM: BOX BOUNDS pp pp pp
0 0.001
0 0.001
0 0.001
ITEM: ATOMS id type diameter x y z vx vy vz 
1 1 1e-05 0.0005 0.0005 0.0001195 -2.53502e-18 0 -0.0207 
ITEM: TIMESTEP
240
ITEM: NUMBER OF ATOMS
1
ITEM: BOX BOUNDS pp pp pp
0 0.001
0 0.001
0 0.001
ITEM: ATOMS id type diameter x y z vx vy vz 
1 1 1e-05 0.0005 0.0005 -9.2e-05 -2.64524e-18 0 -0.0216 
ITEM: TIMESTEP
250
ITEM: NUMBER OF ATOMS
1
ITEM: BOX BOUNDS pp pp pp
0 0.001
0 0.001
0 0.001
ITEM: ATOMS id type diameter x y z vx vy vz 
1 1 1e-05 0.0005 0.0005 0.0006875 -2.75546e-18 0 -0.0225 
ITEM: TIMESTEP
260
ITEM: NUMBER OF ATOMS
1
ITEM: BOX BOUNDS pp pp pp
0 0.001
0 0.001
0 0.001
ITEM: ATOMS id type diameter x y z vx vy vz 
1 1 1e-05 0.0005 0.0005 0.000458 -2.86567e-18 0 -0.0234 
ITEM: TIMESTEP
270
ITEM: NUMBER OF ATOMS
1
ITEM: BOX BOUNDS pp pp pp
0 0.001
0 0.001
0 0.001
ITEM: ATOMS id type diameter x y z vx vy vz 
1 1 1e-05 0.0005 0.0005 0.0002195 -2.97589e-18 0 -0.0243 
ITEM: TIMESTEP
280
ITEM: NUMBER OF ATOMS
1
ITEM: BOX BOUNDS pp pp pp
0 0.001
0 0.001
0 0.001
ITEM: ATOMS id type diameter x y z vx vy vz 
1 1 1e-05 0.0005 0.0005 -2.8e-05 -3.08611e-18 0 -0.0252 
ITEM: TIMESTEP
290
ITEM: NUMBER OF ATOMS
1
ITEM: BOX BOUNDS pp pp pp
0 0.001
0 0.001
0 0.001
ITEM: ATOMS id type diameter x y z vx vy vz 
1 1 1e-05 0.0005 0.0005 0.0007155 -3.19633e-18 0 -0.0261 
ITEM: TIMESTEP
300
ITEM: NUMBER OF ATOMS
1
ITEM: BOX BOUNDS pp pp pp
0 0.001
0 0.001
0 0.001
ITEM: ATOMS id type diameter x y z vx vy vz 
1 1 1e-05 0.0005 0.0005 0.00045 -3.30655e-18 0 -0.027 
ITEM: TIMESTEP
310
ITEM: NUMBER OF ATOMS
1
ITEM: BOX BOUNDS pp pp pp
0 0.001
0 0.001
0 0.001
ITEM: ATOMS id type diameter x y z vx vy vz 
1 1 1e-05 0.0005 0.0005 0.0001755 -3.41676e-18 0 -0.0279 
ITEM: TIMESTEP
320
ITEM: NUMBER OF ATOMS
1
ITEM: BOX BOUNDS pp pp pp
0 0.001
0 0.001
0 0.001
ITEM: ATOMS id type diameter x y z vx vy vz 
1 1 1e-05 0.0005 0.0005 -0.000108 -3.52698e-18 0 -0.0288 
ITEM: TIMESTEP
330
ITEM: NUMBER OF ATOMS
1
ITEM: BOX BOUNDS pp pp pp
0 0.001
0 0.001
0 0.001
ITEM: ATOMS id type diameter x y z vx vy vz 
1 1 1e-05 0.0005 0.0005 0.0005995 -3.6372e-18 0 -0.0297 
ITEM: TIMESTEP
340
ITEM: NUMBER OF ATOMS
1
ITEM: BOX BOUNDS pp pp pp
0 0.001
0 0.001
0 0.001
ITEM: ATOMS id type diameter x y z vx vy vz 
1 1 1e-05 0.0005 0.0005 0.000298 -3.74742e-18 0 -0.0306 
ITEM: TIMESTEP
350
ITEM: NUMBER OF ATOMS
1
ITEM: BOX BOUNDS pp pp pp
0 0.001
0 0.001
0 0.001
ITEM: ATOMS id type diameter x y z vx vy vz 
1 1 1e-05 0.0005 0.0005 -1.25e-05 -3.85764e-18 0 -0.0315 
ITEM: TIMESTEP
360
ITEM: NUMBER OF ATOMS
1
ITEM: BOX BOUNDS pp pp pp
0 0.001
0 0.001
0 0.001
ITEM: ATOMS id type diameter x y z vx vy vz 
1 1 1e-05 0.0005 0.0005 0.000668 -3.96786e-18 0 -0.0324 
ITEM: TIMESTEP
370
ITEM: NUMBER OF ATOMS
1
ITEM: BOX BOUNDS pp pp pp
0 0.001
0 0.001
0 0.001
ITEM: ATOMS id type diameter x y z vx vy vz 
1 1 1e-05 0.0005 0.0005 0.0003395 -4.07807e-18 0 -0.0333 
ITEM: TIMESTEP
380
ITEM: NUMBER OF ATOMS
1
ITEM: BOX BOUNDS pp pp pp
0 0.001
0 0.001
0 0.001
ITEM: ATOMS id type diameter x y z vx vy vz 
1 1 1e-05 0.0005 0.0005 2e-06 -4.18829e-18 0 -0.0342 
ITEM: TIMESTEP
390
ITEM: NUMBER OF ATOMS
1
ITEM: BOX BOUNDS pp pp pp
0 0.001
0 0.001
0 0.001
ITEM: ATOMS id type diameter x y z vx vy vz 
1 1 1e-05 0.0005 0.0005 0.0006555 -4.29851e-18 0 -0.0351 
ITEM: TIMESTEP
400
ITEM: NUMBER OF ATOMS
1
ITEM: BOX BOUNDS pp pp pp
0 0.001
0 0.001
0 0.001
ITEM: ATOMS id type diameter x y z vx vy vz 
1 1 1e-05 0.0005 0.0005 0.0003 -4.40873e-18 0 -0.036 
ITEM: TIMESTEP
410
ITEM: NUMBER OF ATOMS
1
ITEM: BOX BOUNDS pp pp pp
0 0.001
0 0.001
0 0.001
ITEM: ATOMS id type diameter x y z vx vy vz 
1 1 1e-05 0.0005 0.0005 -6.45e-05 -4.51895e-18 0 -0.0369 
ITEM: TIMESTEP
420
ITEM: NUMBER OF ATOMS
1
ITEM: BOX BOUNDS pp pp pp
0 0.001
0 0.001
0 0.001
ITEM: ATOMS id type diameter x y z vx vy vz 
1 1 1e-05 0.0005 0.0005 0.000562 -4.62916e-18 0 -0.0378 
ITEM: TIMESTEP
430
ITEM: NUMBER OF ATOMS
1
ITEM: BOX BOUNDS pp pp pp
0 0.001
0 0.001
0 0.001
ITEM: ATOMS id type diameter x y z vx vy vz 
1 1 1e-05 0.0005 0.0005 0.0001795 -4.73938e-18 0 -0.0387 
ITEM: TIMESTEP
440
ITEM: NUMBER OF ATOMS
1
ITEM: BOX BOUNDS pp pp pp
0 0.001
0 0.001
0 0.001
ITEM: ATOMS id type diameter x y z vx vy vz 
1 1 1e-05 0.0005 0.0005 -0.000212 -4.8496e-18 0 -0.0396 
ITEM: TIMESTEP
450
ITEM: NUMBER OF ATOMS
1
ITEM: BOX BOUNDS pp pp pp
0 0.001
0 0.001
0 0.001
ITEM: ATOMS id type diameter x y z vx vy vz 
1 1 1e-05 0.0005 0.0005 0.0003875 -4.95982e-18 0 -0.0405 
ITEM: TIMESTEP
460
ITEM: NUMBER OF ATOMS
1
ITEM: BOX BOUNDS pp pp pp
0 0.001
0 0.001
0 0.001
ITEM: ATOMS id type diameter x y z vx vy vz 
1 1 1e-05 0.0005 0.0005 -2.2e-05 -5.07004e-18 0 -0.0414 
ITEM: TIMESTEP
470
ITEM: NUMBER OF ATOMS
1
ITEM: BOX BOUNDS pp pp pp
0 0.001
0 0.001
0 0.001
ITEM: ATOMS id type diameter x y z vx vy vz 
1 1 1e-05 0.0005 0.0005 0.0005595 -5.18026e-18 0 -0.0423 
ITEM: TIMESTEP
480
ITEM: NUMBER OF ATOMS
1
ITEM: BOX BOUNDS pp pp pp
0 0.001
0 0.001
0 0.001
ITEM: ATOMS id type diameter x y z vx vy vz 
1 1 1e-05 0.0005 0.0005 0.000132 -5.29047e-18 0 -0.0432 
ITEM: TIMESTEP
490
ITEM: NUMBER OF ATOMS
1
ITEM: BOX BOUNDS pp pp pp
0 0.001
0 0.001
0 0.001
ITEM: ATOMS id type diameter x y z vx vy vz 
1 1 1e-05 0.0005 0.0005 -0.0003045 -5.40069e-18 0 -0.0441 
ITEM: TIMESTEP
500
ITEM: NUMBER OF ATOMS
1
ITEM: BOX BOUNDS pp pp pp
0 0.001
0 0.001
0 0.001
ITEM: ATOMS id type diameter x y z vx vy vz 
1 1 1e-05 0.0005 0.0005 0.00025 -5.51091e-18 0 -0.045 
ITEM: TIMESTEP
510
ITEM: NUMBER OF ATOMS
1
ITEM: BOX BOUNDS pp pp pp
0 0.001
0 0.001
0 0.001
ITEM: ATOMS id type diameter x y z vx vy vz 
1 1 1e-05 0.0005 0.0005 -0.0002045 -5.62113e-18 0 -0.0459 
ITEM: TIMESTEP
520
ITEM: NUMBER OF ATOMS
1
ITEM: BOX BOUNDS pp pp pp
0 0.001
0 0.001
0 0.001
ITEM: ATOMS id type diameter x y z vx vy vz 
1 1 1e-05 0.0005 0.0005 0.000332 -5.73135e-18 0 -0.0468 
ITEM: TIMESTEP
530
ITEM: NUMBER OF ATOMS
1
ITEM: BOX BOUNDS pp pp pp
0 0.001
0 0.001
0 0.001
ITEM: ATOMS id type diameter x y z vx vy vz 
1 1 1e-05 0.0005 0.0005 -0.0001405 -5.84157e-18 0 -0.0477 
ITEM: TIMESTEP
540
ITEM: NUMBER OF ATOMS
1
ITEM: BOX BOUNDS pp pp pp
0 0.001
0 0.001
0 0.001
ITEM: ATOMS id type diameter x y z vx vy vz 
1 1 1e-05 0.0005 0.0005 0.000378 -5.95178e-18 0 -0.0486 
ITEM: TIMESTEP
550
ITEM: NUMBER OF ATOMS
1
ITEM: BOX BOUNDS pp pp pp
0 0.001
0 0.001
0 0.001
ITEM: ATOMS id type diameter x y z vx vy vz 
1 1 1e-05 0.0005 0.0005 -0.0001125 -6.062e-18 0 -0.0495 
ITEM: TIMESTEP
560
ITEM: NUMBER OF ATOMS
1
ITEM: BOX BOUNDS pp pp pp
0 0.001
0 0.001
0 0.001
ITEM: ATOMS id type diameter x y z vx vy vz 
1 1 1e-05 0.0005 0.0005 0.000388 -6.17222e-18 0 -0.0504 
ITEM: TIMESTEP
570
ITEM: NUMBER OF ATOMS
1
ITEM: BOX BOUNDS pp pp pp
0 0.001
0 0.001
0 0.001
ITEM: ATOMS id type diameter x y z vx vy vz 
1 1 1e-05 0.0005 0.0005 -0.0001205 -6.28244e-18 0 -0.0513 
ITEM: TIMESTEP
580
ITEM: NUMBER OF ATOMS
1
ITEM: BOX BOUNDS pp pp pp
0 0.001
0 0.001
0 0.001
ITEM: ATOMS id type diameter x y z vx vy vz 
1 1 1e-05 0.0005 0.0005 0.000362 -6.39266e-18 0 -0.0522 
ITEM: TIMESTEP
590
ITEM: NUMBER OF ATOMS
1
ITEM: BOX BOUNDS pp pp pp
0 0.001
0 0.001
0 0.001
ITEM: ATOMS id type diameter x y z vx vy vz 
1 1 1e-05 0.0005 0.0005 -0.0001645 -6.50287e-18 0 -0.0531 
ITEM: TIMESTEP
600
ITEM: NUMBER OF ATOMS
1
ITEM: BOX BOUNDS pp pp pp
0 0.001
0 0.001
0 0.001
ITEM: ATOMS id type diameter x y z vx vy vz 
1 1 1e-05 0.0005 0.0005 0.0003 -6.61309e-18 0 -0.054 
ITEM: TIMESTEP
610
ITEM: NUMBER OF ATOMS
1
ITEM: BOX BOUNDS pp pp pp
0 0.001
0 0.001
0 0.001
ITEM: ATOMS id type diameter x y z vx vy vz 
1 1 1e-05 0.0005 0.0005 -0.0002445 -6.72331e-18 0 -0.0549 
ITEM: TIMESTEP
620
ITEM: NUMBER OF ATOMS
1
ITEM: BOX BOUNDS pp pp pp
0 0.001
0 0.001
0 0.001
ITEM: ATOMS id type diameter x y z vx vy vz 
1 1 1e-05 0.0005 0.0005 0.000202 -6.83353e-18 0 -0.0558 
ITEM: TIMESTEP
630
ITEM: NUMBER OF ATOMS
1
ITEM: BOX BOUNDS pp pp pp
0 0.001
0 0.001
0 0.001
ITEM: ATOMS id type diameter x y z vx vy vz 
1 1 1e-05 0.0005 0.0005 0.0006395 -6.94375e-18 0 -0.0567 
ITEM: TIMESTEP
640
ITEM: NUMBER OF ATOMS
1
ITEM: BOX BOUNDS pp pp pp
0 0.001
0 0.001
0 0.001
ITEM: ATOMS id type diameter x y z vx vy vz 
1 1 1e-05 0.0005 0.0005 6.8e-05 -7.05397e-18 0 -0.0576 
ITEM: TIMESTEP
650
ITEM: NUMBER OF ATOMS
1
ITEM: BOX BOUNDS pp pp pp
0 0.001
0 0.001
0 0.001
ITEM: ATOMS id type diameter x y z vx vy vz 
1 1 1e-05 0.0005 0.0005 0.0004875 -7.16418e-18 0 -0.0585 
ITEM: TIMESTEP
660
ITEM: NUMBER OF ATOMS
1
ITEM: BOX BOUNDS pp pp pp
0 0.001
0 0.001
0 0.001
ITEM: ATOMS id type diameter x y z vx vy vz 
1 1 1e-05 0.0005 0.0005 0.000898 -7.2744e-18 0 -0.0594 
ITEM: TIMESTEP
670
ITEM: NUMBER OF ATOMS
1
ITEM: BOX BOUNDS pp pp pp
0 0.001
0 0.001
0 0.001
ITEM: ATOMS id type diameter x y z vx vy vz 
1 1 1e-05 0.0005 0.0005 0.0002995 -7.38462e-18 0 -0.0603 
ITEM: TIMESTEP
680
ITEM: NUMBER OF ATOMS
1
ITEM: BOX BOUNDS pp pp pp
0 0.001
0 0.001
0 0.001
ITEM: ATOMS id type diameter x y z vx vy vz 
1 1 1e-05 0.0005 0.0005 0.000692 -7.49484e-18 0 -0.0612 
ITEM: TIMESTEP
690
ITEM: NUMBER OF ATOMS
1
ITEM: BOX BOUNDS pp pp pp
0 0.001
0 0.001
0 0.001
ITEM: ATOMS id type diameter x y z vx vy vz 
1 1 1e-05 0.0005 0.0005 7.55e-05 -7.60506e-18 0 -0.0621 
ITEM: TIMESTEP
700
ITEM: NUMBER OF ATOMS
1
ITEM: BOX BOUNDS pp pp pp
0 0.001
0 0.001
0 0.001
ITEM: ATOMS id type diameter x y z vx vy vz 
1 1 1e-05 0.0005 0.0005 0.00045 -7.71527e-18 0 -0.063 
ITEM: TIMESTEP
710
ITEM: NUMBER OF ATOMS
1
ITEM: BOX BOUNDS pp pp pp
0 0.001
0 0.001
0 0.001
ITEM: ATOMS id type diameter x y z vx vy vz 
1 1 1e-05 0.0005 0.0005 0.0008155 -7.82549e-18 0 -0.0639 
ITEM: TIMESTEP
720
ITEM: NUMBER OF ATOMS
1
ITEM: BOX BOUNDS pp pp pp
0 0.001
0 0.001
0 0.001
ITEM: ATOMS id type diameter x y z vx vy vz 
1 1 1e-05 0.0005 0.0005 0.000172 -7.93571e-18 0 -0.0648 
ITEM: TIMESTEP
730
ITEM: NUMBER OF ATOMS
1
ITEM: BOX BOUNDS pp pp pp
0 0.001
0 0.001
0 0.001
ITEM: ATOMS id type diameter x y z vx vy vz 
1 1 1e-05 0.0005 0.0005 0.0005195 -8.04593e-18 0 -0.0657 
ITEM: TIMESTEP
740
ITEM: NUMBER OF ATOMS
1
ITEM: BOX BOUNDS pp pp pp
0 0.001
0 0.001
0 0.001
ITEM: ATOMS id type diameter x y z vx vy vz 
1 1 1e-05 0.0005 0.0005 0.000858 -8.15615e-18 0 -0.0666 
ITEM: TIMESTEP
750
ITEM: NUMBER OF ATOMS
1
ITEM: BOX BOUNDS pp pp pp
0 0.001
0 0.001
0 0.001
ITEM: ATOMS id type diameter x y z vx vy vz 
1 1 1e-05 0.0005 0.0005 0.0001875 -8.26637e-18 0 -0.0675 
ITEM: TIMESTEP
760
ITEM: NUMBER OF ATOMS
1
ITEM: BOX BOUNDS pp pp pp
0 0.001
0 0.001
0 0.001
ITEM: ATOMS id type diameter x y z vx vy vz 
1 1 1e-05 0.0005 0.0005 0.000508 -8.37658e-18 0 -0.0684 
ITEM: TIMESTEP
770
ITEM: NUMBER OF ATOMS
1
ITEM: BOX BOUNDS pp pp pp
0 0.001
0 0.001
0 0.001
ITEM: ATOMS id type diameter x y z vx vy vz 
1 1 1e-05 0.0005 0.0005 0.0008195 -8.4868e-18 0 -0.0693 
ITEM: TIMESTEP
780
ITEM: NUMBER OF ATOMS
1
ITEM: BOX BOUNDS pp pp pp
0 0.001
0 0.001
0 0.001
ITEM: ATOMS id type diameter x y z vx vy vz 
1 1 1e-05 0.0005 0.0005 0.000122 -8.59702e-18 0 -0.0702 
ITEM: TIMESTEP
790
ITEM: NUMBER OF ATOMS
1
ITEM: BOX BOUNDS pp pp pp
0 0.001
0 0.001
0 0.001
ITEM: ATOMS id type diameter x y z vx vy vz 
1 1 1e-05 0.0005 0.0005 0.0004155 -8.70724e-18 0 -0.0711 
ITEM: TIMESTEP
800
ITEM: NUMBER OF ATOMS
1
ITEM: BOX BOUNDS pp pp pp
0 0.001
0 0.001
0 0.001
ITEM: ATOMS id type diameter x y z vx vy vz 
1 1 1e-05 0.0005 0.0005 0.0007 -8.81746e-18 0 -0.072 
ITEM: TIMESTEP
810
ITEM: NUMBER OF ATOMS
1
ITEM: BOX BOUNDS pp pp pp
0 0.001
0 0.001
0 0.001
ITEM: ATOMS id type diameter x y z vx vy vz 
1 1 1e-05 0.0005 0.0005 -2.45e-05 -8.92768e-18 0 -0.0729 
ITEM: TIMESTEP
820
ITEM: NUMBER OF ATOMS
1
ITEM: BOX BOUNDS pp pp pp
0 0.001
0 0.001
0 0.001
ITEM: ATOMS id type diameter x y z vx vy vz 
1 1 1e-05 0.0005 0.0005 0.000242 -9.03789e-18 0 -0.0738 
ITEM: TIMESTEP
830
ITEM: NUMBER OF ATOMS
1
ITEM: BOX BOUNDS pp pp pp
0 0.001
0 0.001
0 0.001
ITEM: ATOMS id type diameter x y z vx vy vz 
1 1 1e-05 0.0005 0.0005 0.0004995 -9.14811e-18 0 -0.0747 
ITEM: TIMESTEP
840
ITEM: NUMBER OF ATOMS
1
ITEM: BOX BOUNDS pp pp pp
0 0.001
0 0.001
0 0.001
ITEM: ATOMS id type diameter x y z vx vy vz 
1 1 1e-05 0.0005 0.0005 0.000748 -9.25833e-18 0 -0.0756 
ITEM: TIMESTEP
850
ITEM: NUMBER OF ATOMS
1
ITEM: BOX BOUNDS pp pp pp
0 0.001
0 0.001
0 0.001
ITEM: ATOMS id type diameter x y z vx vy vz 
1 1 1e-05 0.0005 0.0005 -1.25e-05 -9.36855e-18 0 -0.0765 
ITEM: TIMESTEP
860
ITEM: NUMBER OF ATOMS
1
ITEM: BOX BOUNDS pp pp pp
0 0.001
0 0.001
0 0.001
ITEM: ATOMS id type diameter x y z vx vy vz 
1 1 1e-05 0.0005 0.0005 0.000218 -9.47877e-18 0 -0.0774 
ITEM: TIMESTEP
870
ITEM: NUMBER OF ATOMS
1
ITEM: BOX BOUNDS pp pp pp
0 0.001
0 0.001
0 0.001
ITEM: ATOMS id type diameter x y z vx vy vz 
1 1 1e-05 0.0005 0.0005 0.0004395 -9.58898e-18 0 -0.0783 
ITEM: TIMESTEP
880
ITEM: NUMBER OF ATOMS
1
ITEM: BOX BOUNDS pp pp pp
0 0.001
0 0.001
0 0.001
ITEM: ATOMS id type diameter x y z vx vy vz 
1 1 1e-05 0.0005 0.0005 0.000652 -9.6992e-18 0 -0.0792 
ITEM: TIMESTEP
890
ITEM: NUMBER OF ATOMS
1
ITEM: BOX BOUNDS pp pp pp
0 0.001
0 0.001
0 0.001
ITEM: ATOMS id type diameter x y z vx vy vz 
1 1 1e-05 0.0005 0.0005 -0.0001445 -9.80942e-18 0 -0.0801 
ITEM: TIMESTEP
900
ITEM: NUMBER OF ATOMS
1
ITEM: BOX BOUNDS pp pp pp
0 0.001
0 0.001
0 0.001
ITEM: ATOMS id type diameter x y z vx vy vz 
1 1 1e-05 0.0005 0.0005 5e-05 -9.91964e-18 0 -0.081 
ITEM: TIMESTEP
910
ITEM: NUMBER OF ATOMS
1
ITEM: BOX BOUNDS pp pp pp
0 0.001
0 0.001
0 0.001
ITEM: ATOMS id type diameter x y z vx vy vz 
1 1 1e-05 0.0005 0.0005 0.0002355 -1.00299e-17 0 -0.0819 
ITEM: TIMESTEP
920
ITEM: NUMBER OF ATOMS
1
ITEM: BOX BOUNDS pp pp pp
0 0.001
0 0.001
0 0.001
ITEM: ATOMS id type diameter x y z vx vy vz 
1 1 1e-05 0.0005 0.0005 0.000412 -1.01401e-17 0 -0.0828 
ITEM: TIMESTEP
930
ITEM: NUMBER OF ATOMS
1
ITEM: BOX BOUNDS pp pp pp
0 0.001
0 0.001
0 0.001
ITEM: ATOMS id type diameter x y z vx vy vz 
1 1 1e-05 0.0005 0.0005 0.0005795 -1.02503e-17 0 -0.0837 
ITEM: TIMESTEP
940
ITEM: NUMBER OF ATOMS
1
ITEM: BOX BOUNDS pp pp pp
0 0.001
0 0.001
0 0.001
ITEM: ATOMS id type diameter x y z vx vy vz 
1 1 1e-05 0.0005 0.0005 0.000738 -1.03605e-17 0 -0.0846 
ITEM: TIMESTEP
950
ITEM: NUMBER OF ATOMS
1
ITEM: BOX BOUNDS pp pp pp
0 0.001
0 0.001
0 0.001
ITEM: ATOMS id type diameter x y z vx vy vz 
1 1 1e-05 0.0005 0.0005 -0.0001125 -1.04707e-17 0 -0.0855 
ITEM: TIMESTEP
960
ITEM: NUMBER OF ATOMS
1
ITEM: BOX BOUNDS pp pp pp
0 0.001
0 0.001
0 0.001
ITEM: ATOMS id type diameter x y z vx vy vz 
1 1 1e-05 0.0005 0.0005 2.8e-05 -1.05809e-17 0 -0.0864 
ITEM: TIMESTEP
970
ITEM: NUMBER OF ATOMS
1
ITEM: BOX BOUNDS pp pp pp
0 0.001
0 0.001
0 0.001
ITEM: ATOMS id type diameter x y z vx vy vz 
1 1 1e-05 0.0005 0.0005 0.0001595 -1.06912e-17 0 -0.0873 
ITEM: TIMESTEP
980
ITEM: NUMBER OF ATOMS
1
ITEM: BOX BOUNDS pp pp pp
0 0.001
0 0.001
0 0.001
ITEM: ATOMS id type diameter x y z vx vy vz 
1 1 1e-05 0.0005 0.0005 0.000282 -1.08014e-17 0 -0.0882 
ITEM: TIMESTEP
990
ITEM: NUMBER OF ATOMS
1
ITEM: BOX BOUNDS pp pp pp
0 0.001
0 0.001
0 0.001
ITEM: ATOMS id type diameter x y z vx vy vz 
1 1 1e-05 0.0005 0.0005 0.0003955 -1.09116e-17 0 -0.0891 
ITEM: TIMESTEP
1000
ITEM: NUMBER OF ATOMS
1
ITEM: BOX BOUNDS pp pp pp
0 0.001
0 0.001
0 0.001
ITEM: ATOMS id type diameter x y z vx vy vz 
1 1 1e-05 0.0005 0.0005 0.0005 -1.10218e-17 0 -0.09 
ITEM: TIMESTEP
1010
ITEM: NUMBER OF ATOMS
1
ITEM: BOX BOUNDS pp pp pp
0 0.001
0 0.001
0 0.001
ITEM: ATOMS id type diameter x y z vx vy vz 
1 1 1e-05 0.0005 0.0005 0.0005955 -1.1132e-17 0 -0.0909 
ITEM: TIMESTEP
1020
ITEM: NUMBER OF ATOMS
1
ITEM: BOX BOUNDS pp pp pp
0 0.001
0 0.001
0 0.001
ITEM: ATOMS id type diameter x y z vx vy vz 
1 1 1e-05 0.0005 0.0005 0.000682 -1.12423e-17 0 -0.0918 
ITEM: TIMESTEP
1030
ITEM: NUMBER OF ATOMS
1
ITEM: BOX BOUNDS pp pp pp
0 0.001
0 0.001
0 0.001
ITEM: ATOMS id type diameter x y z vx vy vz 
1 1 1e-05 0.0005 0.0005 -0.0002405 -1.13525e-17 0 -0.0927 
ITEM: TIMESTEP
1040
ITEM: NUMBER OF ATOMS
1
ITEM: BOX BOUNDS pp pp pp
0 0.001
0 0.001
0 0.001
ITEM: ATOMS id type diameter x y z vx vy vz 
1 1 1e-05 0.0005 0.0005 -0.000172 -1.14627e-17 0 -0.0936 
ITEM: TIMESTEP
1050
ITEM: NUMBER OF ATOMS
1
ITEM: BOX BOUNDS pp pp pp
0 0.001
0 0.001
0 0.001
ITEM: ATOMS id type diameter x y z vx vy vz 
1 1 1e-05 0.0005 0.0005 -0.0001125 -1.15729e-17 0 -0.0945 
ITEM: TIMESTEP
1060
ITEM: NUMBER OF ATOMS
1
ITEM: BOX BOUNDS pp pp pp
0 0.001
0 0.001
0 0.001
ITEM: ATOMS id type diameter x y z vx vy vz 
1 1 1e-05 0.0005 0.0005 -6.2e-05 -1.16831e-17 0 -0.0954 
ITEM: TIMESTEP
1070
ITEM: NUMBER OF ATOMS
1
ITEM: BOX BOUNDS pp pp pp
0 0.001
0 0.001
0 0.001
ITEM: ATOMS id type diameter x y z vx vy vz 
1 1 1e-05 0.0005 0.0005 -2.05e-05 -1.17933e-17 0 -0.0963 
ITEM: TIMESTEP
1080
ITEM: NUMBER OF ATOMS
1
ITEM: BOX BOUNDS pp pp pp
0 0.001
0 0.001
0 0.001
ITEM: ATOMS id type diameter x y z vx vy vz 
1 1 1e-05 0.0005 0.0005 1.2e-05 -1.19036e-17 0 -0.0972 
ITEM: TIMESTEP
1090
ITEM: NUMBER OF ATOMS
1
ITEM: BOX BOUNDS pp pp pp
0 0.001
0 0.001
0 0.001
ITEM: ATOMS id type diameter x y z vx vy vz 
1 1 1e-05 0.0005 0.0005 3.55e-05 -1.20138e-17 0 -0.0981 
ITEM: TIMESTEP
1100
ITEM: NUMBER OF ATOMS
1
ITEM: BOX BOUNDS pp pp pp
0 0.001
0 0.001
0 0.001
ITEM: ATOMS id type diameter x y z vx vy vz 
1 1 1e-05 0.0005 0.0005 5e-05 -1.2124e-17 0 -0.099 
ITEM: TIMESTEP
1110
ITEM: NUMBER OF ATOMS
1
ITEM: BOX BOUNDS pp pp pp
0 0.001
0 0.001
0 0.001
ITEM: ATOMS id type diameter x y z vx vy vz 
1 1 1e-05 0.0005 0.0005 5.55e-05 -1.22342e-17 0 -0.0999 
ITEM: TIMESTEP
1120
ITEM: NUMBER OF ATOMS
1
ITEM: BOX BOUNDS pp pp pp
0 0.001
0 0.001
0 0.001
ITEM: ATOMS id type diameter x y z vx vy vz 
1 1 1e-05 0.0005 0.0005 5.2e-05 -1.23444e-17 0 -0.1008 
ITEM: TIMESTEP
1130
ITEM: NUMBER OF ATOMS
1
ITEM: BOX BOUNDS pp pp pp
0 0.001
0 0.001
0 0.001
ITEM: ATOMS id type diameter x y z vx vy vz 
1 1 1e-05 0.0005 0.0005 3.95e-05 -1.24547e-17 0 -0.1017 
ITEM: TIMESTEP
1140
ITEM: NUMBER OF ATOMS
1
ITEM: BOX BOUNDS pp pp pp
0 0.001
0 0.001
0 0.001
ITEM: ATOMS id type diameter x y z vx vy vz 
1 1 1e-05 0.0005 0.0005 1.8e-05 -1.25649e-17 0 -0.1026 
ITEM: TIMESTEP
1150
ITEM: NUMBER OF ATOMS
1
ITEM: BOX BOUNDS pp pp pp
0 0.001
0 0.001
0 0.001
ITEM: ATOMS id type diameter x y z vx vy vz 
1 1 1e-05 0.0005 0.0005 -1.25e-05 -1.26751e-17 0 -0.1035 
ITEM: TIMESTEP
1160
ITEM: NUMBER OF ATOMS
1
ITEM: BOX BOUNDS pp pp pp
0 0.001
0 0.001
0 0.001
ITEM: ATOMS id type diameter x y z vx vy vz 
1 1 1e-05 0.0005 0.0005 -5.2e-05 -1.27853e-17 0 -0.1044 
ITEM: TIMESTEP
1170
ITEM: NUMBER OF ATOMS
1
ITEM: BOX BOUNDS pp pp pp
0 0.001
0 0.001
0 0.001
ITEM: ATOMS id type diameter x y z vx vy vz 
1 1 1e-05 0.0005 0.0005 -0.0001005 -1.28955e-17 0 -0.1053 
ITEM: TIMESTEP
1180
ITEM: NUMBER OF ATOMS
1
ITEM: BOX BOUNDS pp pp pp
0 0.001
0 0.001
0 0.001
ITEM: ATOMS id type diameter x y z vx vy vz 
1 1 1e-05 0.0005 0.0005 -0.000158 -1.30057e-17 0 -0.1062 
ITEM: TIMESTEP
1190
ITEM: NUMBER OF ATOMS
1
ITEM: BOX BOUNDS pp pp pp
0 0.001
0 0.001
0 0.001
ITEM: ATOMS id type diameter x y z vx vy vz 
1 1 1e-05 0.0005 0.0005 -0.0002245 -1.3116e-17 0 -0.1071 
ITEM: TIMESTEP
1200
ITEM: NUMBER OF ATOMS
1
ITEM: BOX BOUNDS pp pp pp
0 0.001
0 0.001
0 0.001
ITEM: ATOMS id type diameter x y z vx vy vz 
1 1 1e-05 0.0005 0.0005 -0.0003 -1.32262e-17 0 -0.108 
ITEM: TIMESTEP
1210
ITEM: NUMBER OF ATOMS
1
ITEM: BOX BOUNDS pp pp pp
0 0.001
0 0.001
0 0.001
ITEM: ATOMS id type diameter x y z vx vy vz 
1 1 1e-05 0.0005 0.0005 -0.0003845 -1.33364e-17 0 -0.1089 
ITEM: TIMESTEP
1220
ITEM: NUMBER OF ATOMS
1
ITEM: BOX BOUNDS pp pp pp
0 0.001
0 0.001
0 0.001
ITEM: ATOMS id type diameter x y z vx vy vz 
1 1 1e-05 0.0005 0.0005 0.000522 -1.34466e-17 0 -0.1098 
ITEM: TIMESTEP
1230
ITEM: NUMBER OF ATOMS
1
ITEM: BOX BOUNDS pp pp pp
0 0.001
0 0.001
0 0.001
ITEM: ATOMS id type diameter x y z vx vy vz 
1 1 1e-05 0.0005 0.0005 0.0004195 -1.35568e-17 0 -0.1107 
ITEM: TIMESTEP
1240
ITEM: NUMBER OF ATOMS
1
ITEM: BOX BOUNDS pp pp pp
0 0.001
0 0.001
0 0.001
ITEM: ATOMS id type diameter x y z vx vy vz 
1 1 1e-05 0.0005 0.0005 0.000308 -1.36671e-17 0 -0.1116 
ITEM: TIMESTEP
1250
ITEM: NUMBER OF ATOMS
1
ITEM: BOX BOUNDS pp pp pp
0 0.001
0 0.001
0 0.001
ITEM: ATOMS id type diameter x y z vx vy vz 
1 1 1e-05 0.0005 0.0005 0.0001875 -1.37773e-17 0 -0.1125 
ITEM: TIMESTEP
1260
ITEM: NUMBER OF ATOMS
1
ITEM: BOX BOUNDS pp pp pp
0 0.001
0 0.001
0 0.001
ITEM: ATOMS id type diameter x y z vx vy vz 
1 1 1e-05 0.0005 0.0005 5.8e-05 -1.38875e-17 0 -0.1134 
ITEM: TIMESTEP
1270
ITEM: NUMBER OF ATOMS
1
ITEM: BOX BOUNDS pp pp pp
0 0.001
0 0.001
0 0.001
ITEM: ATOMS id type diameter x y z vx vy vz 
1 1 1e-05 0.0005 0.0005 -8.05e-05 -1.39977e-17 0 -0.1143 
ITEM: TIMESTEP
1280
ITEM: NUMBER OF ATOMS
1
ITEM: BOX BOUNDS pp pp pp
0 0.001
0 0.001
0 0.001
ITEM: ATOMS id type diameter x y z vx vy vz 
1 1 1e-05 0.0005 0.0005 -0.000228 -1.41079e-17 0 -0.1152 
ITEM: TIMESTEP
1290
ITEM: NUMBER OF ATOMS
1
ITEM: BOX BOUNDS pp pp pp
0 0.001
0 0.001
0 0.001
ITEM: ATOMS id type diameter x y z vx vy vz 
1 1 1e-05 0.0005 0.0005 -0.0003845 -1.42181e-17 0 -0.1161 
ITEM: TIMESTEP
1300
ITEM: NUMBER OF ATOMS
1
ITEM: BOX BOUNDS pp pp pp
0 0.001
0 0.001
0 0.001
ITEM: ATOMS id type diameter x y z vx vy vz 
1 1 1e-05 0.0005 0.0005 0.00045 -1.43284e-17 0 -0.117 
ITEM: TIMESTEP
1310
ITEM: NUMBER OF ATOMS
1
ITEM: BOX BOUNDS pp pp pp
0 0.001
0 0.001
0 0.001
ITEM: ATOMS id type diameter x y z vx vy vz 
1 1 1e-05 0.0005 0.0005 0.0002755 -1.44386e-17 0 -0.1179 
ITEM: TIMESTEP
1320
ITEM: NUMBER OF ATOMS
1
ITEM: BOX BOUNDS pp pp pp
0 0.001
0 0.001
0 0.001
ITEM: ATOMS id type diameter x y z vx vy vz 
1 1 1e-05 0.0005 0.0005 9.2e-05 -1.45488e-17 0 -0.1188 
ITEM: TIMESTEP
1330
ITEM: NUMBER OF ATOMS
1
ITEM: BOX BOUNDS pp pp pp
0 0.001
0 0.001
0 0.001
ITEM: ATOMS id type diameter x y z vx vy vz 
1 1 1e-05 0.0005 0.0005 -0.0001005 -1.4659e-17 0 -0.1197 
ITEM: TIMESTEP
1340
ITEM: NUMBER OF ATOMS
1
ITEM: BOX BOUNDS pp pp pp
0 0.001
0 0.001
0 0.001
ITEM: ATOMS id type diameter x y z vx vy vz 
1 1 1e-05 0.0005 0.0005 -0.000302 -1.47692e-17 0 -0.1206 
ITEM: TIMESTEP
1350
ITEM: NUMBER OF ATOMS
1
ITEM: BOX BOUNDS pp pp pp
0 0.001
0 0.001
0 0.001
ITEM: ATOMS id type diameter x y z vx vy vz 
1 1 1e-05 0.0005 0.0005 0.0004875 -1.48795e-17 0 -0.1215 
ITEM: TIMESTEP
1360
ITEM: NUMBER OF ATOMS
1
ITEM: BOX BOUNDS pp pp pp
0 0.001
0 0.001
0 0.001
ITEM: ATOMS id type diameter x y z vx vy vz 
1 1 1e-05 0.0005 0.0005 0.000268 -1.49897e-17 0 -0.1224 
ITEM: TIMESTEP
1370
ITEM: NUMBER OF ATOMS
1
ITEM: BOX BOUNDS pp pp pp
0 0.001
0 0.001
0 0.001
ITEM: ATOMS id type diameter x y z vx vy vz 
1 1 1e-05 0.0005 0.0005 3.95e-05 -1.50999e-17 0 -0.1233 
ITEM: TIMESTEP
1380
ITEM: NUMBER OF ATOMS
1
ITEM: BOX BOUNDS pp pp pp
0 0.001
0 0.001
0 0.001
ITEM: ATOMS id type diameter x y z vx vy vz 
1 1 1e-05 0.0005 0.0005 -0.000198 -1.52101e-17 0 -0.1242 
ITEM: TIMESTEP
1390
ITEM: NUMBER OF ATOMS
1
ITEM: BOX BOUNDS pp pp pp
0 0.001
0 0.001
0 0.001
ITEM: ATOMS id type diameter x y z vx vy vz 
1 1 1e-05 0.0005 0.0005 -0.0004445 -1.53203e-17 0 -0.1251 
ITEM: TIMESTEP
1400
ITEM: NUMBER OF ATOMS
1
ITEM: BOX BOUNDS pp pp pp
0 0.001
0 0.001
0 0.001
ITEM: ATOMS id type diameter x y z vx vy vz 
1 1 1e-05 0.0005 0.0005 0.0003 -1.54305e-17 0 -0.126 
ITEM: TIMESTEP
1410
ITEM: NUMBER OF ATOMS
1
ITEM: BOX BOUNDS pp pp pp
0 0.001
0 0.001
0 0.001
ITEM: ATOMS id type diameter x y z vx vy vz 
1 1 1e-05 0.0005 0.0005 3.55e-05 -1.55408e-17 0 -0.1269 
ITEM: TIMESTEP
1420
ITEM: NUMBER OF ATOMS
1
ITEM: BOX BOUNDS pp pp pp
0 0.001
0 0.001
0 0.001
ITEM: ATOMS id type diameter x y z vx vy vz 
1 1 1e-05 0.0005 0.0005 0.000762 -1.5651e-17 0 -0.1278 
ITEM: TIMESTEP
1430
ITEM: NUMBER OF ATOMS
1
ITEM: BOX BOUNDS pp pp pp
0 0.001
0 0.001
0 0.001
ITEM: ATOMS id type diameter x y z vx vy vz 
1 1 1e-05 0.0005 0.0005 0.0004795 -1.57612e-17 0 -0.1287 
ITEM: TIMESTEP
1440
ITEM: NUMBER OF ATOMS
1
ITEM: BOX BOUNDS pp pp pp
0 0.001
0 0.001
0 0.001
ITEM: ATOMS id type diameter x y z vx vy vz 
1 1 1e-05 0.0005 0.0005 0.000188 -1.58714e-17 0 -0.1296 
ITEM: TIMESTEP
1450
ITEM: NUMBER OF ATOMS
1
ITEM: BOX BOUNDS pp pp pp
0 0.001
0 0.001
0 0.001
ITEM: ATOMS id type diameter x y z vx vy vz 
1 1 1e-05 0.0005 0.0005 -0.0001125 -1.59816e-17 0 -0.1305 
ITEM: TIMESTEP
1460
ITEM: NUMBER OF ATOMS
1
ITEM: BOX BOUNDS pp pp pp
0 0.001
0 0.001
0 0.001
ITEM: ATOMS id type diameter x y z vx vy vz 
1 1 1e-05 0.0005 0.0005 0.000578 -1.60919e-17 0 -0.1314 
ITEM: TIMESTEP
1470
ITEM: NUMBER OF ATOMS
1
ITEM: BOX BOUNDS pp pp pp
0 0.001
0 0.001
0 0.001
ITEM: ATOMS id type diameter x y z vx vy vz 
1 1 1e-05 0.0005 0.0005 0.0002595 -1.62021e-17 0 -0.1323 
ITEM: TIMESTEP
1480
ITEM: NUMBER OF ATOMS
1
ITEM: BOX BOUNDS pp pp pp
0 0.001
0 0.001
0 0.001
ITEM: ATOMS id type diameter x y z vx vy vz 
1 1 1e-05 0.0005 0.0005 -6.8e-05 -1.63123e-17 0 -0.1332 
ITEM: TIMESTEP
1490
ITEM: NUMBER OF ATOMS
1
ITEM: BOX BOUNDS pp pp pp
0 0.001
0 0.001
0 0.001
ITEM: ATOMS id type diameter x y z vx vy vz 
1 1 1e-05 0.0005 0.0005 0.0005955 -1.64225e-17 0 -0.1341 
ITEM: TIMESTEP
1500
ITEM: NUMBER OF ATOMS
1
ITEM: BOX BOUNDS pp pp pp
0 0.001
0 0.001
0 0.001
ITEM: ATOMS id type diameter x y z vx vy vz 
1 1 1e-05 0.0005 0.0005 0.00025 -1.65327e-17 0 -0.135 
ITEM: TIMESTEP
1510
ITEM: NUMBER OF ATOMS
1
ITEM: BOX BOUNDS pp pp pp
0 0.001
0 0.001
0 0.001
ITEM: ATOMS id type diameter x y z vx vy vz 
1 1 1e-05 0.0005 0.0005 -0.0001045 -1.6643e-17 0 -0.1359 
ITEM: TIMESTEP
1520
ITEM: NUMBER OF ATOMS
1
ITEM: BOX BOUNDS pp pp pp
0 0.001
0 0.001
0 0.001
ITEM: ATOMS id type diameter x y z vx vy vz 
1 1 1e-05 0.0005 0.0005 0.000532 -1.67532e-17 0 -0.1368 
ITEM: TIMESTEP
1530
ITEM: NUMBER OF ATOMS
1
ITEM: BOX BOUNDS pp pp pp
0 0.001
0 0.001
0 0.001