ITEM: TIMESTEP
0
ITEM: NUMBER OF ATOMS
5
ITEM: BOX BOUNDS pp pp pp
0 0.0001
0 0.0001
0 0.0001
ITEM: ATOMS id type diameter mass x y z vx vy vz 
3 1 9.29466e-07 1.26131e-16 7.13902e-06 5.74394e-06 2.79584e-05 0 0 0 
1 4 7.40549e-07 6.37942e-17 4.65685e-06 5.6159e-06 4.8673e-05 0 0 0 
4 5 9.2581e-07 1.24648e-16 6.31055e-06 2.3808e-06 6.04915e-05 0 0 0 
2 2 5.87667e-07 3.18797e-17 3.18534e-06 5.82562e-07 7.04682e-05 0 0 0 
5 3 2.27923e-07 1.85988e-18 7.48408e-06 3.12948e-06 7.64771e-05 0 0 0 
ITEM: TIMESTEP
100000
ITEM: NUMBER OF ATOMS
120
ITEM: BOX BOUNDS pp pp pp
0 0.0001
0 0.0001
0 0.0001
ITEM: ATOMS id type diameter mass x y z vx vy vz 
3 1 9.59198e-07 1.38626e-16 7.51589e-06 5.9501e-06 2.78522e-05 0 0 0 
6 1 8.35143e-07 9.14962e-17 7.48946e-06 5.13448e-06 2.84629e-05 0 0 0 
7 1 7.62687e-07 6.96882e-17 5.84269e-06 5.81324e-06 2.67695e-05 0 0 0 
8 1 8.94949e-07 1.12594e-16 6.75089e-06 6.3419e-06 2.86516e-05 0 0 0 
9 1 8.1347e-07 8.45559e-17 7.32999e-06 5.65228e-06 2.79679e-05 0 0 0 
10 1 9.51591e-07 1.35354e-16 7.03556e-06 5.68793e-06 2.75461e-05 0 0 0 
11 1 6.88304e-07 5.12226e-17 8.0058e-06 5.37757e-06 2.80614e-05 0 0 0 
12 1 8.38143e-07 9.24856e-17 6.99062e-06 5.78333e-06 2.83159e-05 0 0 0 
13 1 7.68744e-07 7.13617e-17 7.78218e-06 5.59724e-06 2.86721e-05 0 0 0 
14 1 9.49444e-07 1.3444e-16 7.89809e-06 5.71923e-06 2.8834e-05 0 0 0 
16 1 7.55942e-07 6.78556e-17 7.12931e-06 5.9516e-06 2.82258e-05 0 0 0 
17 1 8.54461e-07 9.79933e-17 6.5569e-06 5.56812e-06 2.77669e-05 0 0 0 
18 1 7.54618e-07 6.74997e-17 7.40128e-06 6.22537e-06 2.78361e-05 0 0 0 
19 1 8.34496e-07 9.12836e-17 7.88553e-06 5.86174e-06 2.93545e-05 0 0 0 
20 1 8.49264e-07 9.6216e-17 7.13348e-06 6.29957e-06 2.87784e-05 0 0 0 
21 1 8.2814e-07 8.92136e-17 6.97857e-06 5.74874e-06 2.98417e-05 0 0 0 
22 1 9.52112e-07 1.35577e-16 7.74615e-06 5.434e-06 2.73679e-05 0 0 0 
23 1 7.29875e-07 6.10752e-17 6.7668e-06 4.96628e-06 2.77844e-05 0 0 0 
24 1 6.85338e-07 5.05631e-17 5.8488e-06 5.75439e-06 2.83877e-05 0 0 0 
25 1 9.18096e-07 1.21558e-16 6.53249e-06 7.20929e-06 2.80123e-05 0 0 0 
26 1 8.34077e-07 9.11463e-17 7.00441e-06 6.58292e-06 2.85776e-05 0 0 0 
27 1 8.98869e-07 1.1408e-16 6.89681e-06 5.86696e-06 2.68822e-05 0 0 0 
28 1 8.49745e-07 9.63799e-17 6.05073e-06 5.40993e-06 2.91496e-05 0 0 0 
29 1 8.35748e-07 9.1695e-17 6.55959e-06 6.40323e-06 2.75435e-05 0 0 0 
31 1 7.00705e-07 5.40412e-17 6.93852e-06 5.66619e-06 2.96701e-05 0 0 0 
32 1 7.17474e-07 5.80148e-17 7.50267e-06 5.34918e-06 2.84775e-05 0 0 0 
33 1 9.40067e-07 1.30496e-16 7.31451e-06 5.46205e-06 2.80323e-05 0 0 0 
34 1 7.08525e-07 5.58709e-17 7.10253e-06 5.56477e-06 2.70499e-05 0 0 0 
35 1 8.69496e-07 1.03258e-16 6.07554e-06 6.03076e-06 2.7916e-05 0 0 0 
37 1 7.14242e-07 5.72343e-17 7.66865e-06 6.21403e-06 2.84504e-05 0 0 0 
38 1 8.71242e-07 1.03881e-16 7.14276e-06 6.42573e-06 2.9286e-05 0 0 0 
40 1 8.30751e-07 9.00601e-17 7.76786e-06 5.78172e-06 2.89909e-05 0 0 0 
41 1 8.24519e-07 8.80484e-17 6.98265e-06 6.45071e-06 2.78556e-05 0 0 0 
42 1 7.07946e-07 5.5734e-17 7.16532e-06 5.79781e-06 2.80532e-05 0 0 0 
43 1 8.55375e-07 9.83082e-17 6.51351e-06 6.05077e-06 2.99667e-05 0 0 0 
44 1 8.20016e-07 8.66137e-17 6.7491e-06 6.1663e-06 2.86876e-05 0 0 0 
45 1 7.01651e-07 5.42605e-17 6.43905e-06 5.85154e-06 2.72326e-05 0 0 0 
46 1 8.1971e-07 8.65168e-17 7.62157e-06 5.6118e-06 2.86975e-05 0 0 0 
47 1 7.64301e-07 7.01314e-17 6.43588e-06 5.88158e-06 2.71614e-05 0 0 0 
48 1 8.75212e-07 1.05308e-16 7.01562e-06 5.54761e-06 2.87505e-05 0 0 0 
49 1 8.4939e-07 9.62589e-17 8.24729e-06 5.55607e-06 2.90841e-05 0 0 0 
50 1 8.00905e-07 8.06979e-17 7.31912e-06 5.68452e-06 2.68912e-05 0 0 0 
51 1 9.4002e-07 1.30476e-16 6.92638e-06 6.27439e-06 2.95036e-05 0 0 0 
52 1 7.77206e-07 7.37444e-17 7.16021e-06 5.95911e-06 2.75724e-05 0 0 0 
54 1 7.96236e-07 7.92948e-17 7.56911e-06 5.52878e-06 2.83395e-05 0 0 0 
55 1 7.30812e-07 6.13107e-17 6.14775e-06 5.0682e-06 2.78465e-05 0 0 0 
56 1 8.67623e-07 1.02592e-16 7.42891e-06 5.75464e-06 2.78252e-05 0 0 0 
58 1 7.92051e-07 7.80511e-17 6.67828e-06 5.93915e-06 2.86063e-05 0 0 0 
59 1 9.15449e-07 1.2051e-16 7.56856e-06 5.25111e-06 2.94273e-05 0 0 0 
60 1 7.55732e-07 6.77989e-17 6.07288e-06 6.17619e-06 2.8488e-05 0 0 0 
61 1 7.14297e-07 5.72474e-17 7.6275e-06 6.09173e-06 2.72894e-05 0 0 0 
62 1 8.02671e-07 8.12331e-17 7.03892e-06 5.87771e-06 2.84114e-05 0 0 0 
63 1 7.35462e-07 6.24886e-17 6.28304e-06 6.05314e-06 2.80993e-05 0 0 0 
64 1 9.40765e-07 1.30787e-16 5.8061e-06 5.79374e-06 2.94865e-05 0 0 0 
65 1 9.78395e-07 1.47117e-16 6.96046e-06 5.65554e-06 2.80384e-05 0 0 0 
66 1 9.2753e-07 1.25344e-16 6.86649e-06 5.84154e-06 2.90768e-05 0 0 0 
67 1 8.36126e-07 9.18195e-17 6.81632e-06 5.87629e-06 2.71515e-05 0 0 0 
68 1 7.09007e-07 5.5985e-17 6.44788e-06 6.41912e-06 2.7212e-05 0 0 0 
69 1 9.11408e-07 1.18921e-16 6.88701e-06 5.54574e-06 2.83359e-05 0 0 0 
70 1 7.20095e-07 5.8653e-17 6.97354e-06 5.79634e-06 2.86035e-05 0 0 0 
71 1 7.03853e-07 5.4773e-17 6.16701e-06 6.08308e-06 2.95228e-05 0 0 0 
72 1 7.35504e-07 6.24993e-17 7.26953e-06 5.69026e-06 2.91307e-05 0 0 0 
74 1 8.36377e-07 9.19023e-17 7.90211e-06 5.85336e-06 2.80658e-05 0 0 0 
75 1 9.52209e-07 1.35618e-16 7.22225e-06 5.77085e-06 2.76893e-05 0 0 0 
76 1 7.85325e-07 7.60796e-17 6.93377e-06 5.65036e-06 2.83165e-05 0 0 0 
78 1 7.8858e-07 7.70295e-17 7.93037e-06 5.3139e-06 2.8476e-05 0 0 0 
79 1 9.33249e-07 1.27677e-16 7.65443e-06 6.06224e-06 2.81651e-05 0 0 0 
80 1 8.76659e-07 1.05831e-16 6.59895e-06 5.66168e-06 2.77858e-05 0 0 0 
81 1 8.28584e-07 8.93572e-17 7.26266e-06 5.92505e-06 2.82447e-05 0 0 0 
82 1 8.09147e-07 8.32152e-17 7.18995e-06 5.83775e-06 2.81505e-05 0 0 0 
83 1 8.67006e-07 1.02373e-16 7.17635e-06 6.28593e-06 2.73665e-05 0 0 0 
84 1 9.60599e-07 1.39234e-16 6.38513e-06 5.25729e-06 2.77213e-05 0 0 0 
85 1 7.65669e-07 7.05086e-17 7.41005e-06 5.74652e-06 2.95625e-05 0 0 0 
88 1 8.8364e-07 1.08379e-16 5.52873e-06 6.33701e-06 2.72528e-05 0 0 0 
89 1 7.32816e-07 6.18165e-17 6.83945e-06 5.28438e-06 2.8177e-05 0 0 0 
90 1 7.77346e-07 7.37841e-17 6.04652e-06 5.4947e-06 2.8373e-05 0 0 0 
91 1 8.48266e-07 9.58773e-17 7.51851e-06 4.84481e-06 2.85923e-05 0 0 0 
92 1 7.77851e-07 7.39279e-17 7.05186e-06 6.27043e-06 2.75314e-05 0 0 0 
93 1 8.14612e-07 8.49127e-17 7.27433e-06 5.84834e-06 2.78934e-05 0 0 0 
94 1 8.83443e-07 1.08307e-16 7.10133e-06 5.94834e-06 2.85246e-05 0 0 0 
96 1 8.12481e-07 8.42478e-17 7.89661e-06 5.87067e-06 3.01352e-05 0 0 0 
97 1 8.12279e-07 8.41851e-17 6.40438e-06 5.94829e-06 2.77005e-05 0 0 0 
98 1 8.57725e-07 9.91208e-17 6.48121e-06 5.4458e-06 2.87475e-05 0 0 0 
100 1 8.43669e-07 9.4327e-17 6.79964e-06 5.21081e-06 2.83506e-05 0 0 0 
101 1 8.81417e-07 1.07563e-16 6.42635e-06 5.76974e-06 2.8866e-05 0 0 0 
102 1 8.46703e-07 9.53482e-17 7.51873e-06 5.22508e-06 2.92428e-05 0 0 0 
103 1 7.04038e-07 5.4816e-17 6.90276e-06 5.54095e-06 2.91085e-05 0 0 0 
104 1 6.75746e-07 4.84696e-17 7.40789e-06 5.90649e-06 2.90323e-05 0 0 0 
106 1 8.97132e-07 1.1342e-16 5.86358e-06 5.98214e-06 2.91237e-05 0 0 0 
107 1 8.10757e-07 8.37127e-17 7.64669e-06 4.78078e-06 2.8972e-05 0 0 0 
108 1 8.92178e-07 1.11551e-16 6.94366e-06 5.48144e-06 2.89192e-05 0 0 0 
109 1 8.50916e-07 9.67788e-17 6.85693e-06 5.28864e-06 2.89545e-05 0 0 0 
110 1 8.46241e-07 9.51923e-17 6.12646e-06 5.84524e-06 2.7868e-05 0 0 0 
112 1 8.20011e-07 8.66121e-17 6.98549e-06 5.56508e-06 2.78231e-05 0 0 0 
113 1 6.7609e-07 4.85437e-17 6.42985e-06 6.07864e-06 2.85981e-05 0 0 0 
114 1 8.49591e-07 9.63274e-17 7.21575e-06 6.31683e-06 2.72006e-05 0 0 0 
116 1 8.34601e-07 9.13179e-17 6.93201e-06 5.32726e-06 2.71149e-05 0 0 0 
117 1 8.29203e-07 8.95575e-17 7.16173e-06 5.72571e-06 2.83601e-05 0 0 0 
118 1 8.4334e-07 9.42167e-17 6.37703e-06 6.98618e-06 2.77366e-05 0 0 0 
119 1 7.48106e-07 6.57673e-17 7.34562e-06 5.62045e-06 2.71885e-05 0 0 0 
120 1 8.39828e-07 9.30447e-17 7.62146e-06 5.94342e-06 2.80517e-05 0 0 0 
1 4 3.84338e-07 8.91783e-18 4.65685e-06 5.6159e-06 4.8673e-05 0 0 0 
4 5 9.2581e-07 1.24648e-16 6.31055e-06 2.3808e-06 6.04915e-05 0 0 0 
2 2 9.42851e-07 1.31659e-16 3.36412e-06 8.09711e-07 7.07752e-05 0 0 0 
5 3 2.70205e-07 3.09885e-18 7.48408e-06 3.12948e-06 7.64771e-05 0 0 0 
15 2 9.1441e-07 1.201e-16 3.26714e-06 2.65433e-07 7.11673e-05 0 0 0 
30 2 9.09879e-07 1.18324e-16 2.89623e-06 5.19092e-07 6.99896e-05 0 0 0 
36 2 9.23006e-07 1.23519e-16 2.74545e-06 3.06669e-07 7.07895e-05 0 0 0 
39 2 9.63225e-07 1.4038e-16 2.75766e-06 7.59583e-07 7.05869e-05 0 0 0 
53 2 7.5244e-07 6.69168e-17 3.48183e-06 1.18383e-06 6.94292e-05 0 0 0 
73 2 9.82283e-07 1.48878e-16 3.03928e-06 5.92855e-07 6.98354e-05 0 0 0 
77 2 6.94011e-07 5.25072e-17 2.83714e-06 6.91711e-07 7.11202e-05 0 0 0 
86 2 9.30128e-07 1.264e-16 3.86532e-06 2.7469e-07 7.06626e-05 0 0 0 
87 2 8.84204e-07 1.08587e-16 3.1988e-06 5.42167e-07 7.19217e-05 0 0 0 
95 2 7.94459e-07 7.87653e-17 2.75248e-06 7.171e-07 7.13856e-05 0 0 0 
99 2 7.94381e-07 7.87421e-17 3.5217e-06 9.6632e-07 7.00039e-05 0 0 0 
105 2 7.39785e-07 6.3597e-17 3.33219e-06 7.69274e-07 7.05223e-05 0 0 0 
111 2 8.95818e-07 1.12922e-16 3.36124e-06 4.42126e-07 6.97116e-05 0 0 0 
115 2 9.12919e-07 1.19513e-16 2.8484e-06 6.56424e-07 7.0329e-05 0 0 0 
57 2 9.55093e-07 1.36854e-16 2.92067e-06 9.97918e-05 7.11548e-05 0 0 0 
ITEM: TIMESTEP
200000
ITEM: NUMBER OF ATOMS
193
ITEM: BOX BOUNDS pp pp pp
0 0.0001
0 0.0001
0 0.0001
ITEM: ATOMS id type diameter mass x y z vx vy vz 
3 1 7.77665e-07 7.38749e-17 7.64355e-06 6.19704e-06 2.84059e-05 0 0 0 
6 1 8.53713e-07 9.77361e-17 7.56158e-06 5.05419e-06 2.80532e-05 0 0 0 
7 1 8.53033e-07 9.7503e-17 5.84269e-06 5.81324e-06 2.67695e-05 0 0 0 
8 1 7.58938e-07 6.86655e-17 6.50821e-06 6.42114e-06 2.89128e-05 0 0 0 
9 1 9.46403e-07 1.33152e-16 7.32999e-06 5.65228e-06 2.79679e-05 0 0 0 
10 1 7.09865e-07 5.61885e-17 7.32558e-06 5.79991e-06 2.74013e-05 0 0 0 
11 1 7.52667e-07 6.69774e-17 8.0058e-06 5.37757e-06 2.80614e-05 0 0 0 
12 1 8.01435e-07 8.08584e-17 7.20958e-06 5.86442e-06 2.80095e-05 0 0 0 
13 1 8.56647e-07 9.87474e-17 7.78218e-06 5.59724e-06 2.86721e-05 0 0 0 
14 1 8.20307e-07 8.67061e-17 7.62343e-06 5.49437e-06 2.86895e-05 0 0 0 
16 1 9.09759e-07 1.18277e-16 7.12931e-06 5.9516e-06 2.82258e-05 0 0 0 
17 1 7.4809e-07 6.5763e-17 6.87034e-06 5.37688e-06 2.77215e-05 0 0 0 
18 1 8.28161e-07 8.92203e-17 7.40128e-06 6.22537e-06 2.78361e-05 0 0 0 
19 1 9.58282e-07 1.38229e-16 7.88553e-06 5.86174e-06 2.93545e-05 0 0 0 
20 1 8.61818e-07 1.00546e-16 7.39433e-06 6.28407e-06 2.91124e-05 0 0 0 
21 1 8.97279e-07 1.13476e-16 7.29555e-06 5.91358e-06 2.95913e-05 0 0 0 
22 1 7.28638e-07 6.07652e-17 7.44379e-06 5.60458e-06 2.73454e-05 0 0 0 
23 1 7.78883e-07 7.42227e-17 6.7668e-06 4.96628e-06 2.77844e-05 0 0 0 
24 1 7.27164e-07 6.03973e-17 5.8488e-06 5.75439e-06 2.83877e-05 0 0 0 
25 1 8.23192e-07 8.76242e-17 6.77905e-06 7.09766e-06 2.77317e-05 0 0 0 
26 1 7.18778e-07 5.83317e-17 7.29157e-06 6.42029e-06 2.84427e-05 0 0 0 
27 1 7.13181e-07 5.69796e-17 6.88587e-06 5.83358e-06 2.65371e-05 0 0 0 
28 1 8.52325e-07 9.72603e-17 6.42561e-06 5.57733e-06 2.92423e-05 0 0 0 
29 1 8.07739e-07 8.27813e-17 6.36989e-06 6.24305e-06 2.78527e-05 0 0 0 
31 1 7.59471e-07 6.88102e-17 6.93852e-06 5.66619e-06 2.96701e-05 0 0 0 
32 1 7.70974e-07 7.19846e-17 7.50267e-06 5.34918e-06 2.84775e-05 0 0 0 
33 1 9.80314e-07 1.47984e-16 7.09062e-06 5.82432e-06 2.80692e-05 0 0 0 
34 1 7.74809e-07 7.30641e-17 7.10253e-06 5.56477e-06 2.70499e-05 0 0 0 
35 1 9.44909e-07 1.32522e-16 6.07554e-06 6.03076e-06 2.7916e-05 0 0 0 
37 1 7.5552e-07 6.7742e-17 7.66865e-06 6.21403e-06 2.84504e-05 0 0 0 
38 1 6.68147e-07 4.68529e-17 7.08722e-06 6.39207e-06 2.96111e-05 0 0 0 
40 1 9.51674e-07 1.35389e-16 7.76786e-06 5.78172e-06 2.89909e-05 0 0 0 
41 1 8.11955e-07 8.40846e-17 7.26903e-06 6.64124e-06 2.80619e-05 0 0 0 
42 1 7.56615e-07 6.8037e-17 7.16532e-06 5.79781e-06 2.80532e-05 0 0 0 
43 1 7.42836e-07 6.4387e-17 6.44416e-06 6.33576e-06 3.01771e-05 0 0 0 
44 1 9.51694e-07 1.35398e-16 6.7491e-06 6.1663e-06 2.86876e-05 0 0 0 
45 1 7.55468e-07 6.77279e-17 6.43905e-06 5.85154e-06 2.72326e-05 0 0 0 
46 1 8.59528e-07 9.9747e-17 7.29961e-06 5.44664e-06 2.89165e-05 0 0 0 
47 1 8.03866e-07 8.15965e-17 6.43588e-06 5.88158e-06 2.71614e-05 0 0 0 
48 1 9.0243e-07 1.15441e-16 6.73599e-06 5.2382e-06 2.88119e-05 0 0 0 
49 1 8.1517e-07 8.50872e-17 8.28614e-06 5.30241e-06 2.87874e-05 0 0 0 
50 1 9.71924e-07 1.44217e-16 7.31912e-06 5.68452e-06 2.68912e-05 0 0 0 
51 1 8.39679e-07 9.29949e-17 6.89127e-06 5.92195e-06 2.93541e-05 0 0 0 
52 1 9.01207e-07 1.14972e-16 7.16021e-06 5.95911e-06 2.75724e-05 0 0 0 
54 1 8.41499e-07 9.36009e-17 7.21677e-06 5.74786e-06 2.83625e-05 0 0 0 
55 1 8.11259e-07 8.38684e-17 6.14775e-06 5.0682e-06 2.78465e-05 0 0 0 
56 1 9.00937e-07 1.14869e-16 7.25048e-06 5.40968e-06 2.79789e-05 0 0 0 
58 1 9.0423e-07 1.16133e-16 6.67828e-06 5.93915e-06 2.86063e-05 0 0 0 
59 1 8.0477e-07 8.1872e-17 7.45512e-06 5.23845e-06 2.90647e-05 0 0 0 
60 1 9.12581e-07 1.19381e-16 6.07288e-06 6.17619e-06 2.8488e-05 0 0 0 
61 1 7.41392e-07 6.40124e-17 7.6275e-06 6.09173e-06 2.72894e-05 0 0 0 
62 1 9.59401e-07 1.38714e-16 7.03892e-06 5.87771e-06 2.84114e-05 0 0 0 
63 1 7.69056e-07 7.14486e-17 6.28304e-06 6.05314e-06 2.80993e-05 0 0 0 
64 1 9.44305e-07 1.32269e-16 5.92588e-06 6.06358e-06 2.97683e-05 0 0 0 
65 1 7.62869e-07 6.97381e-17 6.92052e-06 5.85665e-06 2.83236e-05 0 0 0 
66 1 7.57791e-07 6.83547e-17 7.19929e-06 5.8877e-06 2.89271e-05 0 0 0 
67 1 7.62215e-07 6.95589e-17 6.68235e-06 5.60502e-06 2.73797e-05 0 0 0 
68 1 7.65403e-07 7.04354e-17 6.44788e-06 6.41912e-06 2.7212e-05 0 0 0 
69 1 7.98702e-07 8.00338e-17 6.80477e-06 5.54336e-06 2.87046e-05 0 0 0 
70 1 8.3263e-07 9.06726e-17 6.97354e-06 5.79634e-06 2.86035e-05 0 0 0 
71 1 7.75534e-07 7.32693e-17 6.16701e-06 6.08308e-06 2.95228e-05 0 0 0 
72 1 8.23411e-07 8.76941e-17 7.26953e-06 5.69026e-06 2.91307e-05 0 0 0 
74 1 8.76042e-07 1.05608e-16 7.64823e-06 5.65581e-06 2.83402e-05 0 0 0 
75 1 9.67674e-07 1.42333e-16 7.06031e-06 5.44323e-06 2.79241e-05 0 0 0 
76 1 9.32093e-07 1.27203e-16 6.93377e-06 5.65036e-06 2.83165e-05 0 0 0 
78 1 8.86947e-07 1.09601e-16 7.93037e-06 5.3139e-06 2.8476e-05 0 0 0 
79 1 9.76102e-07 1.46085e-16 7.31719e-06 5.79406e-06 2.81106e-05 0 0 0 
80 1 7.9649e-07 7.93707e-17 6.60692e-06 5.67054e-06 2.73986e-05 0 0 0 
81 1 9.07059e-07 1.17227e-16 7.26266e-06 5.92505e-06 2.82447e-05 0 0 0 
82 1 8.99711e-07 1.14401e-16 7.18995e-06 5.83775e-06 2.81505e-05 0 0 0 
83 1 7.99131e-07 8.01629e-17 7.05789e-06 6.53441e-06 2.70798e-05 0 0 0 
84 1 8.86794e-07 1.09544e-16 6.34804e-06 5.24016e-06 2.81254e-05 0 0 0 
85 1 8.03275e-07 8.14167e-17 7.41005e-06 5.74652e-06 2.95625e-05 0 0 0 
88 1 8.52656e-07 9.73736e-17 5.50928e-06 6.32367e-06 2.6839e-05 0 0 0 
89 1 8.24055e-07 8.78998e-17 6.83945e-06 5.28438e-06 2.8177e-05 0 0 0 
90 1 8.17148e-07 8.57081e-17 6.04652e-06 5.4947e-06 2.8373e-05 0 0 0 
91 1 6.8709e-07 5.0952e-17 7.52663e-06 4.84684e-06 2.82493e-05 0 0 0 
92 1 8.86833e-07 1.09558e-16 7.05186e-06 6.27043e-06 2.75314e-05 0 0 0 
93 1 8.15702e-07 8.52541e-17 7.39184e-06 5.89974e-06 2.75192e-05 0 0 0 
94 1 9.01728e-07 1.15172e-16 7.22884e-06 5.86075e-06 2.81364e-05 0 0 0 
96 1 7.30345e-07 6.11932e-17 7.87741e-06 5.92608e-06 3.04904e-05 0 0 0 
97 1 9.6175e-07 1.39736e-16 6.40438e-06 5.94829e-06 2.77005e-05 0 0 0 
98 1 7.24154e-07 5.96504e-17 6.40928e-06 5.54811e-06 2.84191e-05 0 0 0 
100 1 7.44866e-07 6.49164e-17 6.79371e-06 5.18214e-06 2.79874e-05 0 0 0 
101 1 7.92218e-07 7.81004e-17 6.61529e-06 6.06168e-06 2.90515e-05 0 0 0 
102 1 8.55469e-07 9.83406e-17 7.51873e-06 5.22508e-06 2.92428e-05 0 0 0 
103 1 7.80475e-07 7.46786e-17 6.90276e-06 5.54095e-06 2.91085e-05 0 0 0 
104 1 7.43282e-07 6.45031e-17 7.40789e-06 5.90649e-06 2.90323e-05 0 0 0 
106 1 7.25239e-07 5.99189e-17 5.66522e-06 6.13482e-06 2.88712e-05 0 0 0 
107 1 9.31521e-07 1.26969e-16 7.64669e-06 4.78078e-06 2.8972e-05 0 0 0 
108 1 8.58661e-07 9.94454e-17 7.28802e-06 5.27502e-06 2.8896e-05 0 0 0 
109 1 7.77693e-07 7.3883e-17 6.99483e-06 5.14318e-06 2.86245e-05 0 0 0 
110 1 9.64605e-07 1.40984e-16 6.12646e-06 5.84524e-06 2.7868e-05 0 0 0 
112 1 9.76009e-07 1.46043e-16 6.98549e-06 5.56508e-06 2.78231e-05 0 0 0 
113 1 6.87009e-07 5.09339e-17 6.42985e-06 6.07864e-06 2.85981e-05 0 0 0 
114 1 9.36955e-07 1.29204e-16 7.21575e-06 6.31683e-06 2.72006e-05 0 0 0 
116 1 8.30598e-07 9.00103e-17 7.24762e-06 5.068e-06 2.71258e-05 0 0 0 
117 1 8.71717e-07 1.04051e-16 7.16645e-06 5.56788e-06 2.8758e-05 0 0 0 
118 1 8.47034e-07 9.54601e-17 6.37703e-06 6.98618e-06 2.77366e-05 0 0 0 
119 1 8.76264e-07 1.05688e-16 7.34562e-06 5.62045e-06 2.71885e-05 0 0 0 
120 1 9.45959e-07 1.32965e-16 7.7331e-06 5.60077e-06 2.78074e-05 0 0 0 
121 1 8.76418e-07 1.05743e-16 7.00864e-06 5.41298e-06 2.76944e-05 0 0 0 
123 1 7.31604e-07 6.15103e-17 7.66265e-06 5.80847e-06 2.7587e-05 0 0 0 
124 1 8.09496e-07 8.33227e-17 6.4193e-06 5.27308e-06 2.73491e-05 0 0 0 
125 1 8.5446e-07 9.7993e-17 8.11632e-06 5.22516e-06 2.73955e-05 0 0 0 
126 1 9.13021e-07 1.19553e-16 5.697e-06 5.54796e-06 2.92298e-05 0 0 0 
127 1 8.68757e-07 1.02995e-16 6.67266e-06 5.54781e-06 2.77273e-05 0 0 0 
128 1 7.72423e-07 7.23911e-17 8.04932e-06 5.86581e-06 2.93345e-05 0 0 0 
129 1 6.89127e-07 5.14064e-17 6.86243e-06 6.79664e-06 2.99465e-05 0 0 0 
131 1 8.16736e-07 8.55785e-17 7.34694e-06 6.02313e-06 2.75086e-05 0 0 0 
132 1 7.38529e-07 6.32736e-17 7.49548e-06 5.16922e-06 2.80024e-05 0 0 0 
133 1 6.97169e-07 5.32274e-17 7.91421e-06 6.26882e-06 2.82071e-05 0 0 0 
136 1 8.14422e-07 8.48532e-17 7.6882e-06 5.26447e-06 2.98097e-05 0 0 0 
137 1 9.69211e-07 1.43013e-16 6.97474e-06 5.54829e-06 2.79425e-05 0 0 0 
138 1 8.23732e-07 8.77967e-17 6.2847e-06 7.32148e-06 2.82942e-05 0 0 0 
139 1 9.04603e-07 1.16277e-16 6.49429e-06 5.78992e-06 2.92442e-05 0 0 0 
141 1 8.62305e-07 1.00717e-16 7.25219e-06 6.11214e-06 2.71429e-05 0 0 0 
142 1 9.4904e-07 1.34268e-16 7.02557e-06 6.25221e-06 2.8356e-05 0 0 0 
143 1 8.06997e-07 8.25536e-17 6.61937e-06 5.67584e-06 2.89411e-05 0 0 0 
144 1 7.24761e-07 5.98003e-17 6.99164e-06 6.0237e-06 2.88584e-05 0 0 0 
146 1 8.26996e-07 8.88443e-17 7.58251e-06 6.0516e-06 2.76928e-05 0 0 0 
148 1 8.61016e-07 1.00266e-16 6.56787e-06 5.32254e-06 2.91433e-05 0 0 0 
149 1 7.1016e-07 5.62586e-17 7.25064e-06 5.80764e-06 2.8699e-05 0 0 0 
150 1 8.70342e-07 1.0356e-16 6.09819e-06 5.80155e-06 2.94225e-05 0 0 0 
151 1 9.05389e-07 1.1658e-16 6.59356e-06 5.72184e-06 2.97238e-05 0 0 0 
152 1 6.9882e-07 5.36064e-17 7.53615e-06 6.20531e-06 2.82384e-05 0 0 0 
153 1 8.19271e-07 8.63778e-17 6.76543e-06 5.69993e-06 2.86311e-05 0 0 0 
154 1 8.24566e-07 8.80635e-17 6.59085e-06 5.65267e-06 2.81798e-05 0 0 0 
155 1 8.23686e-07 8.77818e-17 8.20874e-06 5.80781e-06 2.93785e-05 0 0 0 
157 1 8.33256e-07 9.08773e-17 6.80637e-06 5.24339e-06 2.87633e-05 0 0 0 
158 1 7.36204e-07 6.26779e-17 5.54581e-06 6.34873e-06 2.76161e-05 0 0 0 
161 1 8.87575e-07 1.09833e-16 7.21579e-06 6.47e-06 2.88584e-05 0 0 0 
162 1 7.72611e-07 7.24441e-17 7.15972e-06 5.79821e-06 2.82584e-05 0 0 0 
165 1 7.05403e-07 5.51356e-17 8.11374e-06 6.01803e-06 2.78371e-05 0 0 0 
168 1 8.35662e-07 9.16666e-17 7.91887e-06 5.80643e-06 2.97234e-05 0 0 0 
169 1 8.42244e-07 9.38498e-17 6.20988e-06 5.77986e-06 2.78172e-05 0 0 0 
170 1 7.74169e-07 7.2883e-17 6.74375e-06 6.55873e-06 2.72434e-05 0 0 0 
171 1 6.74385e-07 4.81774e-17 6.738e-06 5.62365e-06 3.00318e-05 0 0 0 
172 1 8.54967e-07 9.81675e-17 6.6662e-06 6.77446e-06 2.87365e-05 0 0 0 
174 1 7.44092e-07 6.47142e-17 6.64527e-06 5.5628e-06 2.71049e-05 0 0 0 
175 1 7.19885e-07 5.86015e-17 6.91779e-06 6.31239e-06 2.85023e-05 0 0 0 
176 1 7.0413e-07 5.48376e-17 7.15794e-06 5.8528e-06 2.80397e-05 0 0 0 
178 1 7.69333e-07 7.15257e-17 6.71134e-06 6.27021e-06 2.76602e-05 0 0 0 
179 1 7.16553e-07 5.77915e-17 5.73437e-06 5.26865e-06 2.90714e-05 0 0 0 
180 1 7.04548e-07 5.49352e-17 7.88966e-06 5.74932e-06 2.85151e-05 0 0 0 
181 1 7.98009e-07 7.98257e-17 6.99954e-06 6.06941e-06 2.7982e-05 0 0 0 
182 1 7.91246e-07 7.78136e-17 6.71568e-06 5.43763e-06 2.92924e-05 0 0 0 
183 1 7.90328e-07 7.75428e-17 6.24066e-06 5.4828e-06 2.86836e-05 0 0 0 
184 1 8.04528e-07 8.17981e-17 6.95842e-06 6.16406e-06 2.69095e-05 0 0 0 
185 1 7.29014e-07 6.08593e-17 7.87644e-06 5.33769e-06 2.83194e-05 0 0 0 
186 1 7.72042e-07 7.2284e-17 7.2908e-06 6.04586e-06 2.76434e-05 0 0 0 
188 1 7.04776e-07 5.49886e-17 7.42968e-06 5.20102e-06 2.88025e-05 0 0 0 
189 1 8.59421e-07 9.97099e-17 7.50835e-06 4.84227e-06 2.90212e-05 0 0 0 
190 1 7.95164e-07 7.89752e-17 8.32129e-06 6.04228e-06 2.86235e-05 0 0 0 
192 1 8.58024e-07 9.92243e-17 7.08742e-06 6.44117e-06 2.92986e-05 0 0 0 
193 1 6.8147e-07 4.97119e-17 6.63967e-06 5.74648e-06 2.74361e-05 0 0 0 
1 4 1.99468e-07 1.24663e-18 4.65685e-06 5.6159e-06 4.8673e-05 0 0 0 
4 5 9.2581e-07 1.24648e-16 6.31055e-06 2.3808e-06 6.04915e-05 0 0 0 
2 2 9.86842e-07 1.5096e-16 3.42641e-06 5.45141e-07 7.04312e-05 0 0 0 
5 3 2.73293e-07 3.2063e-18 7.48408e-06 3.12948e-06 7.64771e-05 0 0 0 
15 2 7.45924e-07 6.51935e-17 3.35035e-06 9.10599e-08 7.14577e-05 0 0 0 
30 2 8.11006e-07 8.37899e-17 3.1561e-06 6.40811e-07 6.97389e-05 0 0 0 
36 2 9.28258e-07 1.25639e-16 2.41239e-06 8.83721e-08 7.08311e-05 0 0 0 
39 2 8.63888e-07 1.01273e-16 2.64307e-06 1.08649e-06 7.04874e-05 0 0 0 
53 2 9.9265e-07 1.53642e-16 3.48183e-06 1.18383e-06 6.94292e-05 0 0 0 
73 2 7.32015e-07 6.16141e-17 3.15242e-06 1.17208e-08 7.01861e-05 0 0 0 
77 2 8.89503e-07 1.10551e-16 2.83714e-06 6.91711e-07 7.11202e-05 0 0 0 
86 2 7.65706e-07 7.05191e-17 3.55125e-06 1.77738e-07 7.07602e-05 0 0 0 
87 2 8.41269e-07 9.35244e-17 3.37306e-06 5.1095e-07 7.15794e-05 0 0 0 
95 2 7.73573e-07 7.27151e-17 2.76708e-06 7.46566e-07 7.17625e-05 0 0 0 
99 2 8.65434e-07 1.01817e-16 3.78748e-06 1.19513e-06 7.02566e-05 0 0 0 
105 2 9.62348e-07 1.39996e-16 3.33219e-06 7.69274e-07 7.05223e-05 0 0 0 
111 2 1.0072e-06 1.60496e-16 3.42472e-06 4.79651e-07 7.01524e-05 0 0 0 
115 2 8.90903e-07 1.11074e-16 3.35446e-06 5.20066e-07 6.99784e-05 0 0 0 
122 2 9.59003e-07 1.38542e-16 2.99752e-06 9.70991e-07 6.97966e-05 0 0 0 
130 2 8.47958e-07 9.5773e-17 2.67889e-06 5.2083e-07 7.05945e-05 0 0 0 
134 2 9.61946e-07 1.39821e-16 2.90493e-06 2.82253e-07 7.02773e-05 0 0 0 
140 2 9.24765e-07 1.24226e-16 3.08349e-06 5.2824e-07 7.07472e-05 0 0 0 
145 2 8.32472e-07 9.06209e-17 3.31284e-06 1.02752e-06 7.10584e-05 0 0 0 
147 2 8.08596e-07 8.30453e-17 4.01936e-06 5.15018e-07 7.0256e-05 0 0 0 
156 2 9.91362e-07 1.53044e-16 3.16066e-06 4.88576e-07 7.07958e-05 0 0 0 
159 2 9.22014e-07 1.23121e-16 2.60742e-06 3.83816e-07 7.02683e-05 0 0 0 
160 2 8.7869e-07 1.06568e-16 2.82095e-06 4.28623e-07 7.13047e-05 0 0 0 
163 2 8.31076e-07 9.01657e-17 2.81508e-06 1.11712e-06 6.99829e-05 0 0 0 
164 2 7.50011e-07 6.6271e-17 3.31184e-06 4.12927e-07 6.93686e-05 0 0 0 
166 2 9.04053e-07 1.16065e-16 3.00894e-06 5.76179e-07 7.22947e-05 0 0 0 
167 2 7.95111e-07 7.89593e-17 2.89078e-06 4.27041e-07 7.10636e-05 0 0 0 
173 2 9.3208e-07 1.27198e-16 3.00188e-06 3.78848e-07 6.94945e-05 0 0 0 
177 2 8.76024e-07 1.05601e-16 2.73604e-06 6.83945e-07 7.09615e-05 0 0 0 
187 2 8.45758e-07 9.50296e-17 4.54461e-06 2.84616e-07 7.08231e-05 0 0 0 
191 2 7.41482e-07 6.40357e-17 3.2943e-06 7.70554e-07 6.97878e-05 0 0 0 
57 2 8.51346e-07 9.69254e-17 2.70663e-06 9.97081e-05 7.16488e-05 0 0 0 
135 2 8.21453e-07 8.707e-17 3.0399e-06 9.9588e-05 7.09094e-05 0 0 0 
ITEM: TIMESTEP
300000
ITEM: NUMBER OF ATOMS
253
ITEM: BOX BOUNDS pp pp pp
0 0.0001
0 0.0001
0 0.0001
ITEM: ATOMS id type diameter mass x y z vx vy vz 
3 1 8.11189e-07 8.38468e-17 7.64355e-06 6.19704e-06 2.84059e-05 0 0 0 
6 1 9.23627e-07 1.23768e-16 7.56158e-06 5.05419e-06 2.80532e-05 0 0 0 
7 1 9.54082e-07 1.3642e-16 5.84269e-06 5.81324e-06 2.67695e-05 0 0 0 
8 1 8.02909e-07 8.13054e-17 6.50821e-06 6.42114e-06 2.89128e-05 0 0 0 
9 1 8.74399e-07 1.05014e-16 7.25418e-06 6.00936e-06 2.81716e-05 0 0 0 
10 1 7.38016e-07 6.31418e-17 7.32558e-06 5.79991e-06 2.74013e-05 0 0 0 
11 1 8.23048e-07 8.75779e-17 8.0058e-06 5.37757e-06 2.80614e-05 0 0 0 
12 1 8.70136e-07 1.03486e-16 7.20958e-06 5.86442e-06 2.80095e-05 0 0 0 
13 1 9.54601e-07 1.36643e-16 7.78218e-06 5.59724e-06 2.86721e-05 0 0 0 
14 1 8.85868e-07 1.09201e-16 7.62343e-06 5.49437e-06 2.86895e-05 0 0 0 
16 1 8.74693e-07 1.0512e-16 7.32977e-06 6.16116e-06 2.85282e-05 0 0 0 
17 1 7.78357e-07 7.40725e-17 6.87034e-06 5.37688e-06 2.77215e-05 0 0 0 
18 1 9.0887e-07 1.1793e-16 7.40128e-06 6.22537e-06 2.78361e-05 0 0 0 
19 1 8.10278e-07 8.35644e-17 7.9014e-06 5.86091e-06 2.8962e-05 0 0 0 
20 1 9.33998e-07 1.27985e-16 7.39433e-06 6.28407e-06 2.91124e-05 0 0 0 
21 1 7.9046e-07 7.75817e-17 7.37669e-06 6.29187e-06 2.95243e-05 0 0 0 
22 1 7.66861e-07 7.08387e-17 7.44379e-06 5.60458e-06 2.73454e-05 0 0 0 
23 1 8.31182e-07 9.02004e-17 6.7668e-06 4.96628e-06 2.77844e-05 0 0 0 
24 1 7.71543e-07 7.2144e-17 5.8488e-06 5.75439e-06 2.83877e-05 0 0 0 
25 1 8.86431e-07 1.0941e-16 6.77905e-06 7.09766e-06 2.77317e-05 0 0 0 
26 1 7.44361e-07 6.47845e-17 7.29157e-06 6.42029e-06 2.84427e-05 0 0 0 
27 1 7.42712e-07 6.43548e-17 6.88587e-06 5.83358e-06 2.65371e-05 0 0 0 
28 1 9.17665e-07 1.21387e-16 6.42561e-06 5.57733e-06 2.92423e-05 0 0 0 
29 1 8.6395e-07 1.01295e-16 6.36989e-06 6.24305e-06 2.78527e-05 0 0 0 
31 1 8.23165e-07 8.76155e-17 6.93852e-06 5.66619e-06 2.96701e-05 0 0 0 
32 1 8.28463e-07 8.93182e-17 7.50267e-06 5.34918e-06 2.84775e-05 0 0 0 
33 1 9.20749e-07 1.22615e-16 6.77031e-06 6.10399e-06 2.80149e-05 0 0 0 
34 1 8.47294e-07 9.55482e-17 7.10253e-06 5.56477e-06 2.70499e-05 0 0 0 
35 1 8.40784e-07 9.33627e-17 6.4573e-06 6.0698e-06 2.7761e-05 0 0 0 
37 1 7.99184e-07 8.01789e-17 7.66865e-06 6.21403e-06 2.84504e-05 0 0 0 
38 1 6.81934e-07 4.98134e-17 7.08722e-06 6.39207e-06 2.96111e-05 0 0 0 
40 1 8.20356e-07 8.67216e-17 7.71116e-06 5.60152e-06 2.86407e-05 0 0 0 
41 1 8.70267e-07 1.03533e-16 7.26903e-06 6.64124e-06 2.80619e-05 0 0 0 
42 1 8.08631e-07 8.30559e-17 7.16532e-06 5.79781e-06 2.80532e-05 0 0 0 
43 1 7.84333e-07 7.57915e-17 6.44416e-06 6.33576e-06 3.01771e-05 0 0 0 
44 1 8.24061e-07 8.79019e-17 6.71508e-06 6.11406e-06 2.90807e-05 0 0 0 
45 1 8.13412e-07 8.45379e-17 6.43905e-06 5.85154e-06 2.72326e-05 0 0 0 
46 1 9.45769e-07 1.32885e-16 7.29961e-06 5.44664e-06 2.89165e-05 0 0 0 
47 1 8.45481e-07 9.4936e-17 6.43588e-06 5.88158e-06 2.71614e-05 0 0 0 
48 1 6.99111e-07 5.36734e-17 6.8109e-06 5.35612e-06 2.84931e-05 0 0 0 
49 1 8.84324e-07 1.08631e-16 8.28614e-06 5.30241e-06 2.87874e-05 0 0 0 
50 1 7.65088e-07 7.03482e-17 6.96051e-06 5.76563e-06 2.6923e-05 0 0 0 
51 1 9.28057e-07 1.25558e-16 6.89127e-06 5.92195e-06 2.93541e-05 0 0 0 
52 1 8.98288e-07 1.13859e-16 7.50161e-06 5.72017e-06 2.74448e-05 0 0 0 
54 1 9.25991e-07 1.24721e-16 7.21677e-06 5.74786e-06 2.83625e-05 0 0 0 
55 1 9.00562e-07 1.14726e-16 6.14775e-06 5.0682e-06 2.78465e-05 0 0 0 
56 1 7.66376e-07 7.07043e-17 7.49622e-06 5.29171e-06 2.77146e-05 0 0 0 
58 1 8.0985e-07 8.34322e-17 6.71152e-06 5.67672e-06 2.89052e-05 0 0 0 
59 1 8.66832e-07 1.02312e-16 7.45512e-06 5.23845e-06 2.90647e-05 0 0 0 
60 1 8.49122e-07 9.61681e-17 6.20471e-06 6.24402e-06 2.88683e-05 0 0 0 
61 1 7.69516e-07 7.15768e-17 7.6275e-06 6.09173e-06 2.72894e-05 0 0 0 
62 1 6.79999e-07 4.93907e-17 7.02663e-06 5.86483e-06 2.87453e-05 0 0 0 
63 1 8.04184e-07 8.16933e-17 6.28304e-06 6.05314e-06 2.80993e-05 0 0 0 
64 1 7.82554e-07 7.52771e-17 5.93815e-06 5.84502e-06 3.00794e-05 0 0 0 
65 1 8.29309e-07 8.95919e-17 6.92052e-06 5.85665e-06 2.83236e-05 0 0 0 
66 1 7.89985e-07 7.74419e-17 7.19929e-06 5.8877e-06 2.89271e-05 0 0 0 
67 1 7.95689e-07 7.91316e-17 6.68235e-06 5.60502e-06 2.73797e-05 0 0 0 
68 1 8.26285e-07 8.86156e-17 6.44788e-06 6.41912e-06 2.7212e-05 0 0 0 
69 1 8.59859e-07 9.98624e-17 6.80477e-06 5.54336e-06 2.87046e-05 0 0 0 
70 1 9.62751e-07 1.40172e-16 6.97354e-06 5.79634e-06 2.86035e-05 0 0 0 
71 1 8.54514e-07 9.80116e-17 6.16701e-06 6.08308e-06 2.95228e-05 0 0 0 
72 1 9.21825e-07 1.23046e-16 7.26953e-06 5.69026e-06 2.91307e-05 0 0 0 
74 1 9.74434e-07 1.45337e-16 7.64823e-06 5.65581e-06 2.83402e-05 0 0 0 
75 1 6.95225e-07 5.27833e-17 7.35212e-06 5.2695e-06 2.78761e-05 0 0 0 
76 1 6.72466e-07 4.77672e-17 6.8273e-06 5.95705e-06 2.8247e-05 0 0 0 
78 1 8.43838e-07 9.43838e-17 7.93108e-06 5.29431e-06 2.88952e-05 0 0 0 
79 1 8.87368e-07 1.09757e-16 7.67371e-06 5.73484e-06 2.78968e-05 0 0 0 
80 1 8.44791e-07 9.4704e-17 6.60692e-06 5.67054e-06 2.73986e-05 0 0 0 
81 1 6.62844e-07 4.57461e-17 7.26451e-06 5.90141e-06 2.79144e-05 0 0 0 
82 1 6.60749e-07 4.53138e-17 7.50209e-06 5.93778e-06 2.81136e-05 0 0 0 
83 1 8.35058e-07 9.14682e-17 7.05789e-06 6.53441e-06 2.70798e-05 0 0 0 
84 1 9.76563e-07 1.46292e-16 6.34804e-06 5.24016e-06 2.81254e-05 0 0 0 
85 1 8.4273e-07 9.40123e-17 7.41005e-06 5.74652e-06 2.95625e-05 0 0 0 
88 1 9.14046e-07 1.19956e-16 5.50928e-06 6.32367e-06 2.6839e-05 0 0 0 
89 1 9.26653e-07 1.24989e-16 6.83945e-06 5.28438e-06 2.8177e-05 0 0 0 
90 1 8.58988e-07 9.95592e-17 6.04652e-06 5.4947e-06 2.8373e-05 0 0 0 
91 1 7.01596e-07 5.42476e-17 7.52663e-06 4.84684e-06 2.82493e-05 0 0 0 
92 1 7.08728e-07 5.5919e-17 6.99514e-06 6.1626e-06 2.72001e-05 0 0 0 
93 1 8.90701e-07 1.10998e-16 7.39184e-06 5.89974e-06 2.75192e-05 0 0 0 
94 1 7.0405e-07 5.48189e-17 6.99462e-06 6.0642e-06 2.82994e-05 0 0 0 
96 1 7.66058e-07 7.06163e-17 7.87741e-06 5.92608e-06 3.04904e-05 0 0 0 
97 1 8.51073e-07 9.68323e-17 6.06221e-06 5.92624e-06 2.74844e-05 0 0 0 
98 1 7.62274e-07 6.95749e-17 6.40928e-06 5.54811e-06 2.84191e-05 0 0 0 
100 1 7.83405e-07 7.5523e-17 6.79371e-06 5.18214e-06 2.79874e-05 0 0 0 
101 1 8.21489e-07 8.70814e-17 6.61529e-06 6.06168e-06 2.90515e-05 0 0 0 
102 1 8.64326e-07 1.01427e-16 7.51873e-06 5.22508e-06 2.92428e-05 0 0 0 
103 1 8.6521e-07 1.01738e-16 6.90276e-06 5.54095e-06 2.91085e-05 0 0 0 
104 1 8.17568e-07 8.58403e-17 7.40789e-06 5.90649e-06 2.90323e-05 0 0 0 
106 1 7.50971e-07 6.65258e-17 5.66522e-06 6.13482e-06 2.88712e-05 0 0 0 
107 1 8.42007e-07 9.37707e-17 7.96073e-06 5.00161e-06 2.91127e-05 0 0 0 
108 1 9.47248e-07 1.33509e-16 7.28802e-06 5.27502e-06 2.8896e-05 0 0 0 
109 1 8.12904e-07 8.43798e-17 6.99483e-06 5.14318e-06 2.86245e-05 0 0 0 