ITEM: TIMESTEP
0
ITEM: NUMBER OF ATOMS
5
ITEM: BOX BOUNDS ff ff ff
1e-05 3e-05
1e-05 3e-05
0 4e-05
ITEM: ATOMS id type diameter x y z vx vy vz fx fy fz 
4 4 1.0539e-06 2e-05 2e-05 1.9e-05 0 0 0 0 0 -8.22e-06 
2 2 1.2839e-06 2e-05 1.9e-05 2e-05 0 0 0 0 -3.122e-05 0 
3 3 1.0283e-06 2e-05 2e-05 2e-05 0 0 0 0 2e-05 -4.3e-05 
1 1 1.0839e-06 2e-05 2.1e-05 2e-05 0 0 0 0 1.122e-05 0 
5 5 1.4839e-06 2e-05 2e-05 2.1e-05 0 0 0 0 0 5.122e-05 
ITEM: TIMESTEP
2000
ITEM: NUMBER OF ATOMS
6
ITEM: BOX BOUNDS ff ff ff
1e-05 3e-05
1e-05 3e-05
0 4e-05
ITEM: ATOMS id type diameter x y z vx vy vz fx fy fz 
4 4 1.05252e-06 2e-05 1.99999e-05 1.898e-05 0 -8.53062e-14 -9.99964e-12 0 -8.21849e-08 -9.63376e-06 
2 2 1.3122e-06 2e-05 1.898e-05 2.00002e-05 0 -9.99842e-12 1.77914e-13 0 -3.02557e-05 5.38375e-07 
3 3 1.04765e-06 2e-05 2.00085e-05 1.99819e-05 0 4.24165e-12 -9.05585e-12 0 1.71767e-05 -3.66718e-05 
1 1 1.11113e-06 2e-05 2.102e-05 2.00002e-05 0 9.99836e-12 1.80909e-13 0 1.35359e-05 2.44917e-07 
5 5 1.4839e-06 2e-05 1.99999e-05 2.102e-05 0 -8.23088e-14 9.99966e-12 0 -3.74701e-07 4.55223e-05 
6 4 9.08972e-07 1.99096e-05 2.19756e-05 2.05541e-05 0 1e-11 0 0 0 0 
ITEM: TIMESTEP
4000
ITEM: NUMBER OF ATOMS
6
ITEM: BOX BOUNDS ff ff ff
1e-05 3e-05
1e-05 3e-05
0 4e-05
ITEM: ATOMS id type diameter x y z vx vy vz fx fy fz 
4 4 1.05114e-06 2e-05 1.99997e-05 1.896e-05 0 -1.72285e-13 -9.99852e-12 0 -1.9067e-07 -1.10655e-05 
2 2 1.34112e-06 2e-05 1.896e-05 2.00007e-05 0 -9.9939e-12 3.49251e-13 0 -2.93132e-05 1.02439e-06 
3 3 1.06737e-06 2e-05 2.0017e-05 1.99638e-05 0 4.2466e-12 -9.05353e-12 0 1.42505e-05 -3.03814e-05 
1 1 1.13908e-06 2e-05 2.104e-05 2.00007e-05 0 9.99348e-12 3.60966e-13 0 1.58932e-05 5.74065e-07 
5 5 1.4839e-06 2e-05 1.99997e-05 2.104e-05 0 -1.60542e-13 9.99871e-12 0 -6.39816e-07 3.98484e-05 
6 4 9.0778e-07 1.99096e-05 2.19956e-05 2.05541e-05 0 1e-11 0 0 0 0 
ITEM: TIMESTEP
6000
ITEM: NUMBER OF ATOMS
6
ITEM: BOX BOUNDS ff ff ff
1e-05 3e-05
1e-05 3e-05
0 4e-05
ITEM: ATOMS id type diameter x y z vx vy vz fx fy fz 
4 4 1.04976e-06 2e-05 1.99992e-05 1.894e-05 0 -2.6051e-13 -9.99661e-12 0 -3.26244e-07 -1.2519e-05 
2 2 1.37069e-06 2e-05 1.894e-05 2.00016e-05 0 -9.98676e-12 5.14471e-13 0 -2.84076e-05 1.46343e-06 
3 3 1.08745e-06 2e-05 2.00254e-05 1.99457e-05 0 4.22717e-12 -9.06262e-12 0 1.12555e-05 -2.41305e-05 
1 1 1.16773e-06 2e-05 2.106e-05 2.00016e-05 0 9.9854e-12 5.40199e-13 0 1.8281e-05 9.88985e-07 
5 5 1.4839e-06 2e-05 1.99993e-05 2.106e-05 0 -2.34645e-13 9.99725e-12 0 -8.02639e-07 3.41972e-05 
6 4 9.0659e-07 1.99096e-05 2.20156e-05 2.05541e-05 0 1e-11 0 0 0 0 
ITEM: TIMESTEP
8000
ITEM: NUMBER OF ATOMS
7
ITEM: BOX BOUNDS ff ff ff
1e-05 3e-05
1e-05 3e-05
0 4e-05
ITEM: ATOMS id type diameter x y z vx vy vz fx fy fz 
4 4 1.04838e-06 2e-05 1.99986e-05 1.892e-05 -1.27892e-14 -3.93919e-13 -9.99223e-12 -1.71103e-08 -5.27013e-07 -1.33683e-05 
2 2 1.14391e-06 2.00472e-05 1.84373e-05 1.97127e-05 8.39945e-13 -8.59212e-12 -5.04678e-12 2.87666e-07 -2.94265e-06 -1.72843e-06 
3 3 1.10792e-06 2.00013e-05 2.00384e-05 1.99305e-05 6.78e-13 6.48967e-12 -7.5779e-12 4.40193e-06 4.21343e-05 -4.91997e-05 
1 1 1.1971e-06 2e-05 2.10799e-05 2.00029e-05 -1.2384e-14 9.97594e-12 6.93144e-13 -2.6866e-08 2.16419e-05 1.50371e-06 
5 5 1.4839e-06 2.00006e-05 2.00071e-05 2.10784e-05 2.90121e-13 3.96582e-12 9.17541e-12 2.18618e-06 2.9884e-05 6.91403e-05 
6 4 9.05402e-07 1.99096e-05 2.20356e-05 2.05541e-05 0 1e-11 0 0 0 0 
7 2 1.07792e-06 1.99553e-05 1.93771e-05 2.02648e-05 -7.53467e-13 -9.94697e-12 -7.00062e-13 -6.8318e-06 -9.01907e-05 -6.34757e-06 
ITEM: TIMESTEP
10000
ITEM: NUMBER OF ATOMS
7
ITEM: BOX BOUNDS ff ff ff
1e-05 3e-05
1e-05 3e-05
0 4e-05
ITEM: ATOMS id type diameter x y z vx vy vz fx fy fz 
4 4 1.04701e-06 1.99999e-05 1.99976e-05 1.89e-05 -2.73457e-14 -5.28339e-13 -9.986e-12 -3.89289e-08 -7.52135e-07 -1.42159e-05 
2 2 1.16913e-06 2.00489e-05 1.84202e-05 1.97026e-05 8.68109e-13 -8.54654e-12 -5.11889e-12 6.77504e-07 -6.67003e-06 -3.99497e-06 
3 3 1.12877e-06 2.00027e-05 2.00514e-05 1.99153e-05 7.74289e-13 6.46282e-12 -7.59161e-12 4.38139e-06 3.65704e-05 -4.29578e-05 
1 1 1.22721e-06 1.99999e-05 2.10999e-05 2.00044e-05 -2.64049e-14 9.96408e-12 8.46448e-13 -6.63836e-08 2.50503e-05 2.12802e-06 
5 5 1.4839e-06 2.00012e-05 2.00152e-05 2.10967e-05 3.01886e-13 4.14163e-12 9.09702e-12 2.02363e-06 2.77626e-05 6.098e-05 
6 4 9.04215e-07 1.99096e-05 2.20556e-05 2.05541e-05 0 1e-11 0 0 0 0 
7 2 1.10168e-06 1.99537e-05 1.93572e-05 2.02638e-05 -8.47979e-13 -9.96119e-12 -2.35699e-13 -6.97721e-06 -8.19612e-05 -1.93934e-06 
