  Granular Flow Simulation 

       2  atoms 
          2  atom types 

   0  1.000000e-04  xlo xhi 
   0  1.000000e-04  ylo yhi 
   0  1.000000e-04  zlo zhi 

 Atoms

     1 1 7.405490e-06  30 4.656850e-06 5.615900e-06 4.867300e-05 1.205600e-02 2.795000e-03 3.956800e-02 5.038000e-04 8.090000e-04 
     2 2 8.405490e-06  30 2.656850e-06 3.615900e-06 7.867300e-05 1.205600e-02 2.795000e-03 3.956800e-02 5.038000e-04 8.090000e-04 
