  Granular Flow Simulation 

       64 atoms 
       4 atom types 
       10 nutrients

   0.0   1.0e-04  xlo xhi 
   0.0   2.0e-04  ylo yhi 
   0.0   2.0e-04  zlo zhi 

 Atoms

     1 1 9.66e-7 290 2e-5 11e-6 5e-7 9.66e-7 aob
     2 2 9.66e-7 290 2e-5 23e-6 5e-7 9.66e-7 nob
     3 3 9.66e-7 290 2e-5 35e-6 5e-7 9.66e-7 comm
     4 4 9.66e-7 290 2e-5 47e-6 5e-7 9.66e-7 ana
     5 1 9.66e-7 290 2e-5 59e-6 5e-7 9.66e-7 aob
     6 2 9.66e-7 290 2e-5 71e-6 5e-7 9.66e-7 nob
     7 3 9.66e-7 290 2e-5 83e-6 5e-7 9.66e-7 comm
     8 4 9.66e-7 290 2e-5 95e-6 5e-7 9.66e-7 ana
     9 1 9.66e-7 290 2e-5 107e-6 5e-7 9.66e-7 aob
     10 2 9.66e-7 290 2e-5 119e-6 5e-7 9.66e-7 nob
     11 3 9.66e-7 290 2e-5 131e-6 5e-7 9.66e-7 comm
     12 4 9.66e-7 290 2e-5 143e-6 5e-7 9.66e-7 ana
     13 1 9.66e-7 290 2e-5 155e-6 5e-7 9.66e-7 aob
     14 2 9.66e-7 290 2e-5 167e-6 5e-7 9.66e-7 nob
     15 3 9.66e-7 290 2e-5 179e-6 5e-7 9.66e-7 comm
     16 4 9.66e-7 290 2e-5 191e-6 5e-7 9.66e-7 ana
     17 1 9.66e-7 290 4e-5 11e-6 5e-7 9.66e-7 aob
     18 2 9.66e-7 290 4e-5 23e-6 5e-7 9.66e-7 nob
     19 3 9.66e-7 290 4e-5 35e-6 5e-7 9.66e-7 comm
     20 4 9.66e-7 290 4e-5 47e-6 5e-7 9.66e-7 ana
     21 1 9.66e-7 290 4e-5 59e-6 5e-7 9.66e-7 aob
     22 2 9.66e-7 290 4e-5 71e-6 5e-7 9.66e-7 nob
     23 3 9.66e-7 290 4e-5 83e-6 5e-7 9.66e-7 comm
     24 4 9.66e-7 290 4e-5 95e-6 5e-7 9.66e-7 ana
     25 1 9.66e-7 290 4e-5 107e-6 5e-7 9.66e-7 aob
     26 2 9.66e-7 290 4e-5 119e-6 5e-7 9.66e-7 nob
     27 3 9.66e-7 290 4e-5 131e-6 5e-7 9.66e-7 comm
     28 4 9.66e-7 290 4e-5 143e-6 5e-7 9.66e-7 ana
     29 1 9.66e-7 290 4e-5 155e-6 5e-7 9.66e-7 aob
     30 2 9.66e-7 290 4e-5 167e-6 5e-7 9.66e-7 nob
     31 3 9.66e-7 290 4e-5 179e-6 5e-7 9.66e-7 comm
     32 4 9.66e-7 290 4e-5 191e-6 5e-7 9.66e-7 ana
     33 1 9.66e-7 290 6e-5 11e-6 5e-7 9.66e-7 aob
     34 2 9.66e-7 290 6e-5 23e-6 5e-7 9.66e-7 nob
     35 3 9.66e-7 290 6e-5 35e-6 5e-7 9.66e-7 comm
     36 4 9.66e-7 290 6e-5 47e-6 5e-7 9.66e-7 ana
     37 1 9.66e-7 290 6e-5 59e-6 5e-7 9.66e-7 aob
     38 2 9.66e-7 290 6e-5 71e-6 5e-7 9.66e-7 nob
     39 3 9.66e-7 290 6e-5 83e-6 5e-7 9.66e-7 comm
     40 4 9.66e-7 290 6e-5 95e-6 5e-7 9.66e-7 ana
     41 1 9.66e-7 290 6e-5 107e-6 5e-7 9.66e-7 aob
     42 2 9.66e-7 290 6e-5 119e-6 5e-7 9.66e-7 nob
     43 3 9.66e-7 290 6e-5 131e-6 5e-7 9.66e-7 comm
     44 4 9.66e-7 290 6e-5 143e-6 5e-7 9.66e-7 ana
     45 1 9.66e-7 290 6e-5 155e-6 5e-7 9.66e-7 aob
     46 2 9.66e-7 290 6e-5 167e-6 5e-7 9.66e-7 nob
     47 3 9.66e-7 290 6e-5 179e-6 5e-7 9.66e-7 comm
     48 4 9.66e-7 290 6e-5 191e-6 5e-7 9.66e-7 ana
     49 1 9.66e-7 290 8e-5 11e-6 5e-7 9.66e-7 aob
     50 2 9.66e-7 290 8e-5 23e-6 5e-7 9.66e-7 nob
     51 3 9.66e-7 290 8e-5 35e-6 5e-7 9.66e-7 comm
     52 4 9.66e-7 290 8e-5 47e-6 5e-7 9.66e-7 ana
     53 1 9.66e-7 290 8e-5 59e-6 5e-7 9.66e-7 aob
     54 2 9.66e-7 290 8e-5 71e-6 5e-7 9.66e-7 nob
     55 3 9.66e-7 290 8e-5 83e-6 5e-7 9.66e-7 comm
     56 4 9.66e-7 290 8e-5 95e-6 5e-7 9.66e-7 ana
     57 1 9.66e-7 290 8e-5 107e-6 5e-7 9.66e-7 aob
     58 2 9.66e-7 290 8e-5 119e-6 5e-7 9.66e-7 nob
     59 3 9.66e-7 290 8e-5 131e-6 5e-7 9.66e-7 comm
     60 4 9.66e-7 290 8e-5 143e-6 5e-7 9.66e-7 ana
     61 1 9.66e-7 290 8e-5 155e-6 5e-7 9.66e-7 aob
     62 2 9.66e-7 290 8e-5 167e-6 5e-7 9.66e-7 nob
     63 3 9.66e-7 290 8e-5 179e-6 5e-7 9.66e-7 comm
     64 4 9.66e-7 290 8e-5 191e-6 5e-7 9.66e-7 ana


 Nutrients

     1 nh3 l 1.13e-4 1.13e-4 1.13e-4 1.13e-4 1.13e-4 1.13e-4 1.13e-4
     2 no2 l 1e-20 1e-20 1e-20 1e-20 1e-20 1e-20 1e-20
     3 no3 l 1e-20 1e-20 1e-20 1e-20 1e-20 1e-20 1e-20
     4 o2 l 2.81e-4 2.81e-4 2.81e-4 2.81e-4 2.81e-4 2.81e-4 2.81e-4
     5 co2 l 0.005 0.005 0.005 0.005 0.005 0.005 0.005
     6 go2 g 0.21 0.21 0.21 0.21 0.21 0.21 0.21
     7 gco2 g 3.09e-3 3.09e-3 3.09e-3 3.09e-3 3.09e-3 3.09e-3 3.09e-3
     8 gn2 g 0.787 0.787 0.787 0.787 0.787 0.787 0.787
     9 h2o l 1 1 1 1 1 1 1
     10 h l 0 0 0 0 0 0 0

 Diffusion Coeffs
     
     nh3 1.639e-9
     no2 1.7e-9
     no3 1.7e-9
     o2 2e-9
     co2 1.919e-9
     go2 0 
     gco2 0
     gn2 0
     h2o 0
     h 0 

 Ks
     
     aob 1.71e-04 0 0 1.88e-05 0 0 0 0 0 0
     nob 0 3.93e-04 0 6.88e-05 0 0 0 0 0 0
     comm 1.65e-04 0 0 1.81e-05 0 0 0 0 0 0
     ana  5.00e-06 3.57e-06 0 3.13e-07 0 0 0 0 0 0

 Consumption Rate

     aob 0.000283611
     nob 0.000702222
     comm 0.000212778
     ana  0.000006389

 Yield
    
     aob 0.1142692
     nob 0.031871
     comm 0.1461402
     ana  0.12359729

 Maintenance
 
     aob 0
     nob 0
     comm 0
     ana  0

 Electron Donor
    
     aob 0.9
     nob 2.9
     comm 0.725
     ana  1.6

 KLa
          
     nh3 0
     no2 0
     no3 0
     o2 0
     co2 0
     go2 0 
     gco2 0
     gn2 0
     h2o 0
     h 0 

 Decay

     aob 0
     nob 0
     comm 0
     ana  0

 Catabolism Coeffs
         
     aob -1 1 0 -1.5 0 0 0 0 1 1
     nob 0 -1 1 -0.5 0 0 0 0 0 0
     comm -1 0 1 -2 0 0 0 0 1 1
     ana  -1 -1 0 0 0 0 0 1 2 1

 Anabolism Coeffs
          
     aob -0.9 0.7 0 0 -1 0 0 0 1.1 -0.3
     nob 0 -2.9 2.7 0 -1 0 0 0 0.2 -1.2
     comm -0.725 0 0.525 0 -1 0 0 0 0.925 -0.475
     ana -1.6 0 0 0 -1 0.7 0 0 2.5 -1
 
 Decay Coeffs
           
     aob 0 0 0 0 1 0 0 0 0 0
     nob 0 0 0 0 1 0 0 0 0 0
     comm 0 0 0 0 1 0 0 0 0 0
     ana  0 0 0 0 1 0 0 0 0 0
 
 Nutrient Energy

    nh3 inf -79.37 -26.57 inf inf 3
    no2 inf -50.60 -32.20 inf inf 3
    no3 inf -103.70 -111.30 inf	inf 3
    o2 inf 16.4 inf inf inf 2
    co2 -386.00	-623.16	-586.85	-527.80	inf 3
    go2 inf 0 inf inf inf 2
    gco2 inf -394.36 inf inf inf 2
    gn2 inf 0 inf inf inf 2
    h2o inf -237.18 -157.3 inf inf 2
    h inf 0 inf inf inf 2

 Type Energy

    aob inf -67 inf inf inf 2
    nob inf -67 inf inf inf 2
    comm inf -67 inf inf inf 2
    ana inf -67 inf inf inf 2

 Dissipation

    aob 3500
    nob 3500
    comm 3500
    ana 3500

 Nutrient Charge
  
    nh3 na 1 0 na na
    no2 na 0 -1 na na
    no3 na 0 -1 na na
    o2 na 0 na na na
    co2 0 0 -1 -2 na
    go2 na 0 na na na
    gco2 na 0 na na na
    gn2 na 0 na na na
    h2o na 0 -1 na na
    h na 1 na na na

 Type Charge
  
    aob na 0 na na na
    nob na 0 na na na
    comm na 0 na na na
    ana na 0 na na na

