<?xml version="1.0"?>
<VTKFile type="UnstructuredGrid" version="0.1" byte_order="LittleEndian" header_type="UInt32" compressor="vtkZLibDataCompressor">
  <UnstructuredGrid>
    <Piece NumberOfPoints="100" NumberOfCells="100">
      <PointData>
        <DataArray type="Int32" Name="id" format="ascii" RangeMin="1" RangeMax="100">
          66 6 24 65 73 28
          31 22 85 23 57 61
          76 29 80 25 10 18
          100 34 87 67 74 9
          41 64 38 94 37 21
          54 62 92 4 30 99
          83 70 86 71 78 27
          90 1 72 60 32 69
          56 15 68 8 16 42
          98 93 2 53 45 5
          88 52 55 40 17 82
          48 96 95 11 46 3
          39 7 35 63 77 91
          13 89 81 19 33 84
          43 49 75 79 44 26
          50 47 51 59 20 12
          36 14 97 58
        </DataArray>
        <DataArray type="Int32" Name="type" format="ascii" RangeMin="1" RangeMax="1">
          1 1 1 1 1 1
          1 1 1 1 1 1
          1 1 1 1 1 1
          1 1 1 1 1 1
          1 1 1 1 1 1
          1 1 1 1 1 1
          1 1 1 1 1 1
          1 1 1 1 1 1
          1 1 1 1 1 1
          1 1 1 1 1 1
          1 1 1 1 1 1
          1 1 1 1 1 1
          1 1 1 1 1 1
          1 1 1 1 1 1
          1 1 1 1 1 1
          1 1 1 1 1 1
          1 1 1 1
        </DataArray>
        <DataArray type="Float64" Name="radius" format="ascii" RangeMin="5e-06" RangeMax="5e-06">
          5e-06 5e-06 5e-06 5e-06 5e-06 5e-06
          5e-06 5e-06 5e-06 5e-06 5e-06 5e-06
          5e-06 5e-06 5e-06 5e-06 5e-06 5e-06
          5e-06 5e-06 5e-06 5e-06 5e-06 5e-06
          5e-06 5e-06 5e-06 5e-06 5e-06 5e-06
          5e-06 5e-06 5e-06 5e-06 5e-06 5e-06
          5e-06 5e-06 5e-06 5e-06 5e-06 5e-06
          5e-06 5e-06 5e-06 5e-06 5e-06 5e-06
          5e-06 5e-06 5e-06 5e-06 5e-06 5e-06
          5e-06 5e-06 5e-06 5e-06 5e-06 5e-06
          5e-06 5e-06 5e-06 5e-06 5e-06 5e-06
          5e-06 5e-06 5e-06 5e-06 5e-06 5e-06
          5e-06 5e-06 5e-06 5e-06 5e-06 5e-06
          5e-06 5e-06 5e-06 5e-06 5e-06 5e-06
          5e-06 5e-06 5e-06 5e-06 5e-06 5e-06
          5e-06 5e-06 5e-06 5e-06 5e-06 5e-06
          5e-06 5e-06 5e-06 5e-06
        </DataArray>
      </PointData>
      <CellData>
      </CellData>
      <Points>
        <DataArray type="Float32" Name="Points" NumberOfComponents="3" format="ascii" RangeMin="2.496407743e-05" RangeMax="0.00027418823498">
          2.1979532903e-05 1.0021412891e-05 6.2989347498e-06 3.7394955143e-05 1.2008068552e-05 6.9621632974e-06
          3.5177647078e-05 7.4876302278e-06 7.1241779551e-06 4.6003478928e-05 3.4214410789e-06 7.2735306276e-06
          4.2195071728e-05 1.0031811144e-05 7.7909189713e-06 5.8505062043e-05 6.3935030994e-06 7.5171869867e-06
          5.1424449339e-05 8.088280083e-06 6.0051092987e-06 7.584940613e-05 1.0009241578e-06 6.2253184296e-06
          8.8654160209e-05 1.0498123629e-05 6.41969973e-06 9.2712070909e-05 1.1808978343e-05 6.7349524215e-06
          0.00012877982226 2.4416772249e-06 6.3726979533e-06 0.00017023913097 9.1161809905e-06 6.1565701799e-06
          0.00017810496502 1.0164074411e-05 6.2760345827e-06 6.3962994318e-05 2.6043067919e-05 7.0584665082e-06
          8.6453837866e-05 2.9622979127e-05 6.7341134127e-06 0.00012101045286 2.2720092602e-05 6.5659073698e-06
          0.0001507960551 2.9281165553e-05 7.2855264079e-06 0.00017297711747 2.641901483e-05 6.2439698922e-06
          0.00018824441941 2.3852760933e-05 6.9335583248e-06 3.5122993722e-06 3.121816917e-05 6.8376780291e-06
          9.0052108135e-06 3.6652032577e-05 6.8395884227e-06 1.9951963623e-05 3.6550292862e-05 6.7970904638e-06
          2.1898124032e-05 4.0992181312e-05 7.5599464253e-06 0.00010231661872 3.541616752e-05 6.3954012148e-06
          0.00013388412481 4.4455366151e-05 6.7773571573e-06 0.00013338215649 4.1939321818e-05 6.1123705564e-06
          0.00014058717352 3.9211405237e-05 6.0211077653e-06 0.00016196288925 4.114244075e-05 6.7963369474e-06
          1.0582384675e-05 5.8142082707e-05 7.9398705566e-06 4.3925763748e-05 6.034159378e-05 7.6117544268e-06
          4.8233549023e-05 6.1243059463e-05 7.1212944022e-06 0.00014781054051 5.1813836762e-05 6.3514557951e-06
          0.00013911217684 5.8468362113e-05 6.7773771661e-06 0.00016213291383 5.0763112085e-05 7.3502201303e-06
          0.00016436513397 5.7536199165e-05 6.2291960603e-06 9.5473342299e-06 6.2048507971e-05 6.4924070102e-06
          3.0657785828e-05 6.540704635e-05 6.9622615229e-06 3.9487811591e-05 7.1627124271e-05 6.3708034759e-06
          0.00018906789774 6.4249907155e-05 6.4819473664e-06 9.1681358754e-06 8.8852881163e-05 7.5037146416e-06
          2.6720548703e-05 9.226534894e-05 7.0373189374e-06 5.2185663662e-05 8.4448212874e-05 7.2110779001e-06
          6.056303755e-05 8.2958395069e-05 6.8177414505e-06 7.9936347902e-05 9.0206071036e-05 6.9346242526e-06
          9.3216454843e-05 8.9014407422e-05 6.6517773121e-06 0.00014603979071 9.0740853921e-05 6.8153567554e-06
          0.00018877163529 8.4897779743e-05 6.7693513301e-06 0.00019071171118 9.1812369647e-05 6.9045277087e-06
          9.2166246759e-06 0.00010381740867 6.5917347456e-06 1.8129116143e-05 9.6064002719e-05 7.4769445746e-06
          5.7565244788e-05 9.9064316601e-05 7.7397453424e-06 8.1434838648e-05 9.8635202448e-05 7.3886171776e-06
          0.00010055910388 9.6881303762e-05 6.8401341196e-06 0.00010166574066 9.6117924841e-05 6.540083632e-06
          0.00011849191651 9.362664423e-05 7.8297198343e-06 0.00013812727411 0.00010504153033 6.3294828578e-06
          2.3128051907e-05 0.00011316325981 7.3486157817e-06 3.4908869566e-05 0.00011336353055 7.0086562118e-06
          7.2238733992e-05 0.00011638554861 6.9194848038e-06 7.7166492702e-05 0.00010918758198 6.6083066486e-06
          8.1015787146e-05 0.00011462135444 7.5368707257e-06 0.00012813213107 0.00011665232159 7.755956176e-06
          0.00015946406347 0.00011240058666 7.166305295e-06 0.00018396567611 0.00011119464762 6.4839246079e-06
          1.32761852e-05 0.00013284143643 6.660065992e-06 3.1970514101e-05 0.00012843661534 6.3418997343e-06
          8.7590306066e-05 0.00013032012794 6.9041357165e-06 0.00011071180779 0.00013333036622 6.8352214839e-06
          0.00013409505482 0.00013550989388 7.14887301e-06 0.00018450188509 0.00013178520021 6.983003459e-06
          0.00017774249136 0.00013154820772 7.1899603427e-06 1.861999408e-05 0.00014624680625 7.7014110502e-06
          3.8564317947e-05 0.00015051092487 6.3700745159e-06 4.753653775e-05 0.00014661929163 6.3038505687e-06
          8.5699124611e-05 0.00014521657431 6.5495501076e-06 9.1732421424e-05 0.00014686708164 7.9493856902e-06
          0.00013106146071 0.00015005133173 7.1284744081e-06 0.0001783388434 0.00014086725423 7.5585999184e-06
          0.00018852543144 0.00014682242181 6.4452124207e-06 7.6731803347e-06 0.00016313805827 6.6131137828e-06
          2.4665660021e-05 0.0001557500218 6.9070219979e-06 4.0088361857e-05 0.00016508424596 7.7092827269e-06
          4.8406251153e-05 0.00016387594223 6.6284305831e-06 7.3133625847e-05 0.00015682649973 7.8307184594e-06
          0.00011842433014 0.00015776531654 7.6178048403e-06 0.00018074388208 0.00016230667825 6.8823223955e-06
          7.5665302575e-06 0.00017067095905 6.6692318796e-06 2.1965644919e-05 0.00017659369041 6.1013188315e-06
          4.4563330448e-05 0.00017591210781 7.5488023867e-06 0.0001201983905 0.00017431942979 7.8677048805e-06
          0.0001192941636 0.00017703334743 7.9945002653e-06 0.00013214594219 0.00017677940195 7.3135524872e-06
          0.00015727861319 0.00018156853912 6.2255776356e-06 0.0001642156858 0.00017306226073 6.5742524384e-06
          0.00019185937708 0.00018044099852 6.7174651122e-06 8.3411705418e-06 0.0001900553616 6.6055740717e-06
          2.876153485e-05 0.00019511816208 7.5086632023e-06 6.8375462433e-05 0.00018637339235 7.775699487e-06
          0.00015669610002 0.00019140671066 7.7261365732e-06 0.00019369274378 0.00019392740796 7.3803557825e-06
        </DataArray>
      </Points>
      <Cells>
        <DataArray type="Int64" Name="connectivity" format="ascii" RangeMin="0" RangeMax="99">
          0 1 2 3 4 5
          6 7 8 9 10 11
          12 13 14 15 16 17
          18 19 20 21 22 23
          24 25 26 27 28 29
          30 31 32 33 34 35
          36 37 38 39 40 41
          42 43 44 45 46 47
          48 49 50 51 52 53
          54 55 56 57 58 59
          60 61 62 63 64 65
          66 67 68 69 70 71
          72 73 74 75 76 77
          78 79 80 81 82 83
          84 85 86 87 88 89
          90 91 92 93 94 95
          96 97 98 99
        </DataArray>
        <DataArray type="Int64" Name="offsets" format="ascii" RangeMin="1" RangeMax="100">
          1 2 3 4 5 6
          7 8 9 10 11 12
          13 14 15 16 17 18
          19 20 21 22 23 24
          25 26 27 28 29 30
          31 32 33 34 35 36
          37 38 39 40 41 42
          43 44 45 46 47 48
          49 50 51 52 53 54
          55 56 57 58 59 60
          61 62 63 64 65 66
          67 68 69 70 71 72
          73 74 75 76 77 78
          79 80 81 82 83 84
          85 86 87 88 89 90
          91 92 93 94 95 96
          97 98 99 100
        </DataArray>
        <DataArray type="UInt8" Name="types" format="ascii" RangeMin="1" RangeMax="1">
          1 1 1 1 1 1
          1 1 1 1 1 1
          1 1 1 1 1 1
          1 1 1 1 1 1
          1 1 1 1 1 1
          1 1 1 1 1 1
          1 1 1 1 1 1
          1 1 1 1 1 1
          1 1 1 1 1 1
          1 1 1 1 1 1
          1 1 1 1 1 1
          1 1 1 1 1 1
          1 1 1 1 1 1
          1 1 1 1 1 1
          1 1 1 1 1 1
          1 1 1 1 1 1
          1 1 1 1
        </DataArray>
      </Cells>
    </Piece>
  </UnstructuredGrid>
</VTKFile>
