<?xml version="1.0"?>
<VTKFile type="UnstructuredGrid" version="0.1" byte_order="LittleEndian" header_type="UInt32" compressor="vtkZLibDataCompressor">
  <UnstructuredGrid>
    <Piece NumberOfPoints="100" NumberOfCells="100">
      <PointData>
        <DataArray type="Int32" Name="id" format="ascii" RangeMin="1" RangeMax="100">
          66 6 24 65 73 28
          31 22 85 23 57 61
          76 29 80 25 10 18
          100 34 87 67 74 9
          41 64 38 94 37 21
          54 62 92 4 30 99
          83 70 86 71 78 27
          90 1 72 60 32 69
          56 15 68 8 16 42
          98 93 2 53 45 5
          88 52 55 40 17 82
          48 96 95 11 46 3
          39 7 35 63 77 91
          13 89 81 19 33 84
          43 49 75 79 44 26
          50 47 51 59 20 12
          36 14 97 58
        </DataArray>
        <DataArray type="Int32" Name="type" format="ascii" RangeMin="1" RangeMax="1">
          1 1 1 1 1 1
          1 1 1 1 1 1
          1 1 1 1 1 1
          1 1 1 1 1 1
          1 1 1 1 1 1
          1 1 1 1 1 1
          1 1 1 1 1 1
          1 1 1 1 1 1
          1 1 1 1 1 1
          1 1 1 1 1 1
          1 1 1 1 1 1
          1 1 1 1 1 1
          1 1 1 1 1 1
          1 1 1 1 1 1
          1 1 1 1 1 1
          1 1 1 1 1 1
          1 1 1 1
        </DataArray>
        <DataArray type="Float64" Name="radius" format="ascii" RangeMin="5e-06" RangeMax="5e-06">
          5e-06 5e-06 5e-06 5e-06 5e-06 5e-06
          5e-06 5e-06 5e-06 5e-06 5e-06 5e-06
          5e-06 5e-06 5e-06 5e-06 5e-06 5e-06
          5e-06 5e-06 5e-06 5e-06 5e-06 5e-06
          5e-06 5e-06 5e-06 5e-06 5e-06 5e-06
          5e-06 5e-06 5e-06 5e-06 5e-06 5e-06
          5e-06 5e-06 5e-06 5e-06 5e-06 5e-06
          5e-06 5e-06 5e-06 5e-06 5e-06 5e-06
          5e-06 5e-06 5e-06 5e-06 5e-06 5e-06
          5e-06 5e-06 5e-06 5e-06 5e-06 5e-06
          5e-06 5e-06 5e-06 5e-06 5e-06 5e-06
          5e-06 5e-06 5e-06 5e-06 5e-06 5e-06
          5e-06 5e-06 5e-06 5e-06 5e-06 5e-06
          5e-06 5e-06 5e-06 5e-06 5e-06 5e-06
          5e-06 5e-06 5e-06 5e-06 5e-06 5e-06
          5e-06 5e-06 5e-06 5e-06 5e-06 5e-06
          5e-06 5e-06 5e-06 5e-06
        </DataArray>
      </PointData>
      <CellData>
      </CellData>
      <Points>
        <DataArray type="Float32" Name="Points" NumberOfComponents="3" format="ascii" RangeMin="2.496407743e-05" RangeMax="0.00027418823498">
          2.1979532903e-05 1.0021412891e-05 6.2989347498e-06 3.7257563235e-05 1.2995947145e-05 6.8899198595e-06
          3.4329070331e-05 6.9597604124e-06 7.0885339483e-06 4.5663146011e-05 2.4904579732e-06 7.4056083577e-06
          4.3185384129e-05 1.0153037692e-05 7.8586099335e-06 5.9473488363e-05 6.2075109781e-06 7.6831984188e-06
          5.1411941968e-05 9.0344037744e-06 5.6815447351e-06 7.584940613e-05 1.0009241578e-06 6.2253184296e-06
          8.7705171609e-05 1.0191564797e-05 6.3459738158e-06 9.3661066785e-05 1.2115537174e-05 6.8086783358e-06
          0.00012877982226 2.4416772249e-06 6.3726979533e-06 0.00016924800002 8.9841414592e-06 6.1415171331e-06
          0.00017909609596 1.0296113942e-05 6.2910876295e-06 6.3962994318e-05 2.6043067919e-05 7.0584665082e-06
          8.6453837866e-05 2.9622979127e-05 6.7341134127e-06 0.00012101045286 2.2720092602e-05 6.5659073698e-06
          0.0001507960551 2.9281165553e-05 7.2855264079e-06 0.00017297711747 2.641901483e-05 6.2439698922e-06
          0.00018824441941 2.3852760933e-05 6.9335583248e-06 2.7940811833e-06 3.0522351153e-05 6.837662113e-06
          9.7772735899e-06 3.7287576561e-05 6.8378158176e-06 1.9408995286e-05 3.5722889152e-05 6.6535944825e-06
          2.2319978598e-05 4.1885723476e-05 7.7136392065e-06 0.00010231661872 3.541616752e-05 6.3954012148e-06
          0.00013331758964 4.5264740038e-05 6.9321135925e-06 0.0001326213096 4.1326635255e-05 5.898542895e-06
          0.00014147750335 3.8757880247e-05 5.9809453887e-06 0.00016193832562 4.0144121158e-05 6.743805443e-06
          1.0823508092e-05 5.7232053223e-05 8.2770684458e-06 4.2952990043e-05 6.0138027038e-05 7.7225095083e-06
          4.9206322728e-05 6.1446626205e-05 7.0105393206e-06 0.00014781054051 5.1813836762e-05 6.3514557951e-06
          0.00013911217684 5.8468362113e-05 6.7773771661e-06 0.00016180331295 4.9834528909e-05 7.5207731243e-06
          0.00016467100068 5.8475932747e-05 6.0764068621e-06 9.306211723e-06 6.2958541093e-05 6.1552091211e-06
          3.0657785828e-05 6.540704635e-05 6.9622615229e-06 3.9487811591e-05 7.1627124271e-05 6.3708034759e-06
          0.00018906789774 6.4249907155e-05 6.4819473664e-06 9.1681358754e-06 8.8852881163e-05 7.5037146416e-06
          2.7634139769e-05 9.1861409601e-05 6.9905704549e-06 5.1202161558e-05 8.4623119619e-05 7.2572552199e-06
          6.1546539655e-05 8.27834956e-05 6.7715641308e-06 7.976735651e-05 8.9221808594e-05 6.8829835982e-06
          9.3216454843e-05 8.9014407422e-05 6.6517773121e-06 0.00014603979071 9.0740853921e-05 6.8153567554e-06
          0.0001885015372 8.3935126895e-05 6.7505320658e-06 0.00019098180928 9.2775015219e-05 6.9233469731e-06
          9.2166246759e-06 0.00010381740867 6.5917347456e-06 1.7215526896e-05 9.6467942058e-05 7.523693057e-06
          5.7565244788e-05 9.9064316601e-05 7.7397453424e-06 8.1553902419e-05 9.9627271993e-05 7.4289150689e-06
          9.9755721749e-05 9.7435484349e-05 7.0579617386e-06 0.00010246913007 9.5563744253e-05 6.3222555582e-06
          0.00011849191651 9.362664423e-05 7.8297198343e-06 0.00013812727411 0.00010504153033 6.3294828578e-06
          2.3128051907e-05 0.00011316325981 7.3486157817e-06 3.4908869566e-05 0.00011336353055 7.0086562118e-06
          7.1423084592e-05 0.00011696392176 6.9050697675e-06 7.699233538e-05 0.00010820872558 6.5010108301e-06
          8.1809557742e-05 0.00011521455599 7.6712203736e-06 0.00012813213107 0.00011665232159 7.755956176e-06
          0.00015946406347 0.00011240058666 7.166305295e-06 0.00018396567611 0.00011119464762 6.4839246079e-06
          1.32761852e-05 0.00013284143643 6.660065992e-06 3.1970514101e-05 0.00012843661534 6.3418997343e-06
          8.7590306066e-05 0.00013032012794 6.9041357165e-06 0.00011071180779 0.00013333036622 6.8352214839e-06
          0.00013409505482 0.00013550989388 7.14887301e-06 0.00018550081586 0.00013181999384 6.952408512e-06
          0.00017677991127 0.00013127792045 7.2095904216e-06 1.861999408e-05 0.00014624680625 7.7014110502e-06
          3.7646921555e-05 0.00015090883244 6.3768457039e-06 4.8453937779e-05 0.0001462213695 6.2970789259e-06
          8.4757848526e-05 0.00014495907817 6.3311572376e-06 9.2673697509e-05 0.00014712457778 8.1677790149e-06
          0.00013106146071 0.00015005133173 7.1284744081e-06 0.00017839983047 0.00014186459885 7.5981438385e-06
          0.00018852543144 0.00014682242181 6.4452124207e-06 7.6873366197e-06 0.00016213818162 6.6056650212e-06
          2.4665660021e-05 0.0001557500218 6.9070219979e-06 3.9106831537e-05 0.00016522682563 7.8368257164e-06
          4.9387781473e-05 0.00016373334802 6.5008875936e-06 7.3133625847e-05 0.00015682649973 7.8307184594e-06
          0.00011842433014 0.00015776531654 7.6178048403e-06 0.00018074388208 0.00016230667825 6.8823223955e-06
          7.5523739724e-06 0.0001716708357 6.6766806412e-06 2.1965644919e-05 0.00017659369041 6.1013188315e-06
          4.4563330448e-05 0.00017591210781 7.5488023867e-06 0.00012051417434 0.00017337163445 7.8234234024e-06
          0.00011897837976 0.00017798114277 8.0387826529e-06 0.00013214594219 0.00017677940195 7.3135524872e-06
          0.00015733703913 0.00018058167188 6.0750544435e-06 0.0001642156858 0.00017306226073 6.5742524384e-06
          0.00019185937708 0.00018044099852 6.7174651122e-06 8.3411705418e-06 0.0001900553616 6.6055740717e-06
          2.876153485e-05 0.00019511816208 7.5086632023e-06 6.8375462433e-05 0.00018637339235 7.775699487e-06
          0.00015663767408 0.00019239359244 7.8766597653e-06 0.00019369274378 0.00019392740796 7.3803557825e-06
        </DataArray>
      </Points>
      <Cells>
        <DataArray type="Int64" Name="connectivity" format="ascii" RangeMin="0" RangeMax="99">
          0 1 2 3 4 5
          6 7 8 9 10 11
          12 13 14 15 16 17
          18 19 20 21 22 23
          24 25 26 27 28 29
          30 31 32 33 34 35
          36 37 38 39 40 41
          42 43 44 45 46 47
          48 49 50 51 52 53
          54 55 56 57 58 59
          60 61 62 63 64 65
          66 67 68 69 70 71
          72 73 74 75 76 77
          78 79 80 81 82 83
          84 85 86 87 88 89
          90 91 92 93 94 95
          96 97 98 99
        </DataArray>
        <DataArray type="Int64" Name="offsets" format="ascii" RangeMin="1" RangeMax="100">
          1 2 3 4 5 6
          7 8 9 10 11 12
          13 14 15 16 17 18
          19 20 21 22 23 24
          25 26 27 28 29 30
          31 32 33 34 35 36
          37 38 39 40 41 42
          43 44 45 46 47 48
          49 50 51 52 53 54
          55 56 57 58 59 60
          61 62 63 64 65 66
          67 68 69 70 71 72
          73 74 75 76 77 78
          79 80 81 82 83 84
          85 86 87 88 89 90
          91 92 93 94 95 96
          97 98 99 100
        </DataArray>
        <DataArray type="UInt8" Name="types" format="ascii" RangeMin="1" RangeMax="1">
          1 1 1 1 1 1
          1 1 1 1 1 1
          1 1 1 1 1 1
          1 1 1 1 1 1
          1 1 1 1 1 1
          1 1 1 1 1 1
          1 1 1 1 1 1
          1 1 1 1 1 1
          1 1 1 1 1 1
          1 1 1 1 1 1
          1 1 1 1 1 1
          1 1 1 1 1 1
          1 1 1 1 1 1
          1 1 1 1 1 1
          1 1 1 1 1 1
          1 1 1 1 1 1
          1 1 1 1
        </DataArray>
      </Cells>
    </Piece>
  </UnstructuredGrid>
</VTKFile>
