  Granular Flow Simulation 

       40 atoms 
       1 atom types 
       10 nutrients

   0.0   1.0e-04  xlo xhi 
   0.0   4.0e-05  ylo yhi 
   0.0   1.0e-04  zlo zhi 

 Atoms

     1 1 1.0e-6 150 0.5e-5 0.5e-5 1e-6 1.0e-6  
     2 1 1.0e-6 150 1.5e-5 0.5e-5 1e-6 1.0e-6  
     3 1 1.0e-6 150 2.5e-5 0.5e-5 1e-6 1.0e-6  
     4 1 1.0e-6 150 3.5e-5 0.5e-5 1e-6 1.0e-6  
     5 1 1.0e-6 150 4.5e-5 0.5e-5 1e-6 1.0e-6  
     6 1 1.0e-6 150 5.5e-5 0.5e-5 1e-6 1.0e-6  
     7 1 1.0e-6 150 6.5e-5 0.5e-5 1e-6 1.0e-6  
     8 1 1.0e-6 150 7.5e-5 0.5e-5 1e-6 1.0e-6  
     9 1 1.0e-6 150 8.5e-5 0.5e-5 1e-6 1.0e-6  
     10 1 1.0e-6 150 9.5e-5 0.5e-5 1e-6 1.0e-6  
     11 1 1.0e-6 150 0.5e-5 1.5e-5 1e-6 1.0e-6  
     12 1 1.0e-6 150 1.5e-5 1.5e-5 1e-6 1.0e-6  
     13 1 1.0e-6 150 2.5e-5 1.5e-5 1e-6 1.0e-6  
     14 1 1.0e-6 150 3.5e-5 1.5e-5 1e-6 1.0e-6  
     15 1 1.0e-6 150 4.5e-5 1.5e-5 1e-6 1.0e-6  
     16 1 1.0e-6 150 5.5e-5 1.5e-5 1e-6 1.0e-6  
     17 1 1.0e-6 150 6.5e-5 1.5e-5 1e-6 1.0e-6  
     18 1 1.0e-6 150 7.5e-5 1.5e-5 1e-6 1.0e-6  
     19 1 1.0e-6 150 8.5e-5 1.5e-5 1e-6 1.0e-6  
     20 1 1.0e-6 150 9.5e-5 1.5e-5 1e-6 1.0e-6  
     21 1 1.0e-6 150 0.5e-5 2.5e-5 1e-6 1.0e-6  
     22 1 1.0e-6 150 1.5e-5 2.5e-5 1e-6 1.0e-6  
     23 1 1.0e-6 150 2.5e-5 2.5e-5 1e-6 1.0e-6  
     24 1 1.0e-6 150 3.5e-5 2.5e-5 1e-6 1.0e-6  
     25 1 1.0e-6 150 4.5e-5 2.5e-5 1e-6 1.0e-6  
     26 1 1.0e-6 150 5.5e-5 2.5e-5 1e-6 1.0e-6  
     27 1 1.0e-6 150 6.5e-5 2.5e-5 1e-6 1.0e-6  
     28 1 1.0e-6 150 7.5e-5 2.5e-5 1e-6 1.0e-6  
     29 1 1.0e-6 150 8.5e-5 2.5e-5 1e-6 1.0e-6  
     30 1 1.0e-6 150 9.5e-5 2.5e-5 1e-6 1.0e-6  
     31 1 1.0e-6 150 0.5e-5 3.5e-5 1e-6 1.0e-6  
     32 1 1.0e-6 150 1.5e-5 3.5e-5 1e-6 1.0e-6  
     33 1 1.0e-6 150 2.5e-5 3.5e-5 1e-6 1.0e-6  
     34 1 1.0e-6 150 3.5e-5 3.5e-5 1e-6 1.0e-6  
     35 1 1.0e-6 150 4.5e-5 3.5e-5 1e-6 1.0e-6  
     36 1 1.0e-6 150 5.5e-5 3.5e-5 1e-6 1.0e-6  
     37 1 1.0e-6 150 6.5e-5 3.5e-5 1e-6 1.0e-6  
     38 1 1.0e-6 150 7.5e-5 3.5e-5 1e-6 1.0e-6  
     39 1 1.0e-6 150 8.5e-5 3.5e-5 1e-6 1.0e-6  
     40 1 1.0e-6 150 9.5e-5 3.5e-5 1e-6 1.0e-6  

 Nutrients

     1 nh3 l 1e-2 1e-2 1e-2 1e-2 1e-2 1e-2 1e-2
     2 no2 l 1e-20 1e-20 1e-20 1e-20 1e-20 1e-20 1e-20
     3 no3 l 1e-20 1e-20 1e-20 1e-20 1e-20 1e-20 1e-20
     4 o2 l 6.25e-5 6.25e-5 6.25e-5 6.25e-5 6.25e-5 6.25e-5 6.25e-5
     5 co2 l 1e-3 1e-3 1e-3 1e-3 1e-3 1e-3 1e-3
     6 go2 g 4.66e-2 4.66e-2 4.66e-2 4.66e-2 4.66e-2 4.66e-2 4.66e-2
     7 gco2 g 6.18e-4 6.18e-4 6.18e-4 6.18e-4 6.18e-4 6.18e-4 6.18e-4
     8 gn2 g 0.953 0.953 0.953 0.953 0.953 0.953 0.953
     9 h2o l 1 1 1 1 1 1 1
     10 h l 0 0 0 0 0 0 0

 Type Name

     1 aob

 Diffusion Coeffs
     
     nh3 1.639e-9
     no2 1.7e-9
     no3 1.7e-9
     o2 2e-9
     co2 1.919e-9
     go2 0 
     gco2 0
     gn2 0
     h2o 0
     h 0 

 Ks
     
     aob 1.65e-6 0 0 9.38e-7 0 0 0 0 0 0

 Consumption Rate

     aob 0.000003333

 Yield
    
     aob 0.2

 Maintenance
 
     aob 0.000000529

 Electron Donor
    
     aob 0.9

 Decay

     aob 0

 Catabolism Coeffs
         
     aob -1 1 0 -1.5 0 0 0 0 1 1

 Anabolism Coeffs
          
     aob -0.9 0.7 0 0 -1 0 0 0 1.1 -0.3
 
 Decay Coeffs
           
     aob 0 0 0 0 1 0 0 0 0 0
 
 Nutrient Energy

    nh3 inf -79.37 -26.57 inf inf 3
    no2 inf -50.60 -32.20 inf inf 2
    no3 inf -103.70 -111.30 inf	inf 2
    o2 inf 16.4 inf inf inf 2
    co2 -386.00	-623.16	-586.85	-527.80	inf 3
    go2 inf 0 inf inf inf 2
    gco2 inf -394.36 inf inf inf 2
    gn2 inf 0 inf inf inf 2
    h2o inf -237.18 -157.3 inf inf 2
    h inf 0 inf inf inf 2

 Type Energy

    aob inf -67 inf inf inf 2

 Dissipation

    aob 3500

 Nutrient Charge
  
    nh3 na 1 0 na na
    no2 na 0 -1 na na
    no3 na 0 -1 na na
    o2 na 0 na na na
    co2 0 0 -1 -2 na
    go2 na 0 na na na
    gco2 na 0 na na na
    gn2 na 0 na na na
    h2o na 0 -1 na na
    h na 1 na na na

 Type Charge
  
    aob na 0 na na na


