NUFEB Simulation 

       2 atoms 
       1 atom types 
       2 bacilli

   0.000000e-04   1e-04  xlo xhi 
   0.000000e-04   0.4e-04  ylo yhi 
   0.000000e-04   1e-04  zlo zhi 

 Atoms 

     1 1 1 150 45e-6 50e-6 1.0e-6 0.5
     2 1 1 150 65e-6 50e-6 1.0e-6 0.5

 Bacilli
     
     1 0 0 0 0 0 0 1e-6 1e-6 1e-6 1e-6
     2 0 0 0 0 0 0 1e-6 1e-6 0 1e-6
