NUFEB Simulation 

       3 atoms 
       1 atom types 
       3 bacilli

   0.000000e-04   50e-6  xlo xhi 
   0.000000e-04   50e-6  ylo yhi 
   0.000000e-04   10e-6  zlo zhi 

 Atoms 

     1 1 1 150 20e-6 11e-6 1.0e-6 1
     2 1 1 150 24e-6 14e-6 1.0e-6 1
     3 1 1 150 22e-6 27e-6 1.0e-6 1

 Bacilli
     
     1 0 0.333 0.333 0 0 0 0.2e-6 0.5e-6 0 1e-6
     2 0 0.333 0.333 0 0 0 0 -1e-6 0 1e-6
     3 0 0.333 0.333 0 0 0 1e-6 0.5e-6 0 1e-6
