NUFEB Simulation 

       1 atoms 
       1 atom types 
       1 bacilli

   0.000000e-04   50e-6  xlo xhi 
   0.000000e-04   50e-6  ylo yhi 
   0.000000e-04   10e-6  zlo zhi 

 Atoms 

     1 1 1 150 25.1e-6 25.1e-6 1.0e-6 1

 Bacilli
     
     1 0 0 0 0 0 0 0 2.5e-6 0 1e-6
