NUFEB Simulation 

       10 atoms 
       1 atom types 
       10 bacilli

   0.000000e-04   50e-6  xlo xhi 
   0.000000e-04   50e-6  ylo yhi 
   0.000000e-04   10e-6  zlo zhi 

 Atoms 

     1 1 1 150 20e-6 4e-6 1.0e-6 0.5
     2 1 1 150 24e-6 14e-6 1.0e-6 0.5
     3 1 1 150 22e-6 27e-6 1.0e-6 0.5
     4 1 1 150 14e-6 32e-6 1.0e-6 0.5
     5 1 1 150 28e-6 42e-6 1.0e-6 0.5
     6 1 1 150 9e-6 24e-6 1.0e-6 0.5
     7 1 1 150 11e-6 17e-6 1.0e-6 0.5
     8 1 1 150 4e-6 28e-6 1.0e-6 0.5
     9 1 1 150 37e-6 8e-6 1.0e-6 0.5
     10 1 1 150 42e-6 23e-6 1.0e-6 0.5


 Bacilli
     
     1 0 0 0 0 0 0 0.2e-6 2e-6 0 1e-6
     2 0 0 0 0 0 0 0 -1e-6 0 1e-6
     3 0 0 0 0 0 0 1e-6 0.5e-6 0 1e-6
     4 0 0 0 0 0 0 0 1e-6 0 1e-6
     5 0 0 0 0 0 0 -1e-6 0 0 1e-6
     6 0 0 0 0 0 0 1e-6 -1e-6 0 1e-6
     7 0 0 0 0 0 0 1e-6 1e-6 0 1e-6
     8 0 0 0 0 0 0 -1e-6 0 0 1e-6
     9 0 0 0 0 0 0 1e-6 -0.87e-6 0 1e-6
     10 0 0 0 0 0 0 1e-6 1e-6 0 1e-6
