LAMMPS (5 Nov 2016)
# NUFEB simulation

atom_style	bio
atom_modify	map array sort 1000 5.0e-7
boundary	ff ff ff
newton		off
#processors  2 1 1

comm_modify	vel yes
read_data_bio atom.in
  orthogonal box = (0 0 0) to (0.0001 0.0001 0.0001)
  1 by 1 by 1 MPI processor grid
  reading atoms ...
  12 atoms
  10 nutrients

group AOB type 1
4 atoms in group AOB
group NOB type 2
4 atoms in group NOB
group COMM type 3
4 atoms in group COMM

neighbor	5.0e-7 bin
neigh_modify	delay 0 one 5000

#pair_style none
pair_style  gran/hooke/history 0.000200 NULL 0.000050 NULL 0.0 1

pair_coeff  * *
timestep 36

fix 1 all nve/limit 1e-8

#fix	 2 all gravity 1.47 vector 0 0 -1 # spherical 90.0 -180.0
#fix     3 all fdrag
fix 10 all viscous 0.1


fix xw all wall/gran hooke/history 2000 NULL 500.0 NULL 1.5 0 xplane  0.0   1.0e-04
fix yw all wall/gran hooke/history 2000 NULL 500.0 NULL 1.5 0 yplane  0.0   1.0e-04
fix zw all wall/gran hooke/history 2000 NULL 500.0 NULL 1.5 0 zplane  0.0   1.0e-04

variable kanc equal 50

fix xwa all walladh v_kanc xplane  0.0   1.0e-04
fix ywa all walladh v_kanc yplane  0.0   1.0e-04
fix zwa all walladh v_kanc zplane  0.0   1.0e-04

##############Ibm Variable Definitions##############

#Defining EPS density and ratio variables
variable EPSdens equal 30
variable EPSratio equal 1.25

variable ke equal 5e+10

#Defining kinetics variables
variable temp equal 298.15
variable gasTran equal 0.08205746
variable gvol equal 8e-14
variable rth equal 0.0083144
variable pressure equal 1
variable ph equal 7.0

#Defining diffusion variables
variable diffT equal 1e-3
variable tol equal 1e-8

##############Ibm functions##############

fix k1 all kinetics 25 25 25 v_temp v_rth v_gvol v_gasTran v_ph
fix g1 all diffusion exp v_diffT v_tol pp pp nd
#fix ki3 all kinetics/ph 1
fix ki2 all kinetics/thermo 1 fix open v_pressure
fix ki1 all kinetics/monod 1 v_EPSdens
fix d1 all divide 1 v_EPSdens 1 3123

#fix j1 all epsadh 1 v_ke 1
#fix e1 HET eps_extract 16 v_EPSratio v_EPSdens 1242242

##############Ibm compute##############

compute myMass all biomass
compute myNtypes all ntypes

##############Simulation outputs##############

dump		id all custom 250 snapshot.bubblemd id type diameter x y z
dump            d0 all bio 500 Conc DGRAn DGRCat ph biomass gas
thermo_style    custom step cpu atoms biomass c_myNtypes[*]
thermo		10
thermo_modify	lost ignore

run  10000
Neighbor list info ...
  2 neighbor list requests
  update every 1 steps, delay 0 steps, check yes
  max neighbors/atom: 5000, page size: 100000
  master list distance cutoff = 1.466e-06
  ghost atom cutoff = 1.466e-06
  binsize = 7.33e-07 -> bins = 137 137 137
Memory usage per processor = 20.2453 Mbytes
Step CPU Atoms biomass c_myNtypes[1] c_myNtypes[2] c_myNtypes[3] 
       0            0       12 1.6425146e-15            4            4            4 
      10    4.3439901       12 1.651389e-15            4            4            4 
      20    4.7378321       12 1.6602902e-15            4            4            4 
      30    5.1089621       12 1.6692514e-15            4            4            4 
      40     5.504199       12 1.6782807e-15            4            4            4 
      50    5.8611312       12 1.6873692e-15            4            4            4 
      60     6.215487       12 1.6965166e-15            4            4            4 
      70    6.5633061       12 1.705724e-15            4            4            4 
      80    6.9054072       12 1.7149905e-15            4            4            4 
      90     7.243402       12 1.724318e-15            4            4            4 
     100    7.5771902       12 1.7337048e-15            4            4            4 
     110     7.903785       12 1.7431545e-15            4            4            4 
     120     8.227628       12 1.7526654e-15            4            4            4 
     130    8.5497181       12 1.7622372e-15            4            4            4 
     140    8.8688891       12 1.7718717e-15            4            4            4 
     150    9.1851101       16 1.781571e-15            8            4            4 
     160    9.4987721       20 1.7913333e-15            8            4            8 
     170    9.8135011       20 1.8011605e-15            8            4            8 
     180    10.135994       20 1.8110592e-15            8            4            8 
     190    10.455968       20 1.8210226e-15            8            4            8 
     200    10.777728       20 1.8310508e-15            8            4            8 
     210    11.096628       20 1.8411442e-15            8            4            8 
     220    11.415258       20 1.8513032e-15            8            4            8 
     230    11.733347       20 1.8615288e-15            8            4            8 
     240    12.048264       20 1.871823e-15            8            4            8 
     250    12.360299       20 1.8821855e-15            8            4            8 
     260    12.675544       20 1.892616e-15            8            4            8 
     270    12.989167       20 1.9031145e-15            8            4            8 
     280    13.299792       20 1.9136817e-15            8            4            8 
     290    13.613332       20 1.9243179e-15            8            4            8 
     300    13.926105       20 1.9350236e-15            8            4            8 
     310    14.239539       20 1.9457992e-15            8            4            8 
     320    14.552727       20 1.9566453e-15            8            4            8 
     330    14.866193       20 1.9675623e-15            8            4            8 
     340     15.17923       20 1.9785507e-15            8            4            8 
     350    15.491853       20 1.9896109e-15            8            4            8 
     360    15.809195       20 2.0007474e-15            8            4            8 
     370    16.128474       20  2.01196e-15            8            4            8 
     380    16.447294       20 2.0232463e-15            8            4            8 
     390    16.765768       20 2.0346068e-15            8            4            8 
     400    17.083107       20 2.0460417e-15            8            4            8 
     410    17.401531       20 2.0575515e-15            8            4            8 
     420    17.719438       20 2.0691369e-15            8            4            8 
     430    18.037947       20 2.0807981e-15            8            4            8 
     440    18.357151       20 2.0925357e-15            8            4            8 
     450    18.676297       20 2.1043503e-15            8            4            8 
     460    18.995077       20 2.1162424e-15            8            4            8 
     470    19.320992       24 2.1282123e-15            8            8            8 
     480    19.641284       24 2.1402608e-15            8            8            8 
     490    19.961187       24 2.1523882e-15            8            8            8 
     500    20.497151       24 2.1645951e-15            8            8            8 
     510    20.814893       24 2.1768821e-15            8            8            8 
     520     21.13209       24 2.1892496e-15            8            8            8 
     530    21.448442       24 2.2016982e-15            8            8            8 
     540    21.765543       24 2.2142285e-15            8            8            8 
     550     22.08373       24 2.2268409e-15            8            8            8 
     560    22.400337       24 2.2395361e-15            8            8            8 
     570    22.718111       24 2.2523146e-15            8            8            8 
     580    23.037149       24 2.2651769e-15            8            8            8 
     590    23.354779       24 2.2781236e-15            8            8            8 
     600    23.675548       24 2.2911552e-15            8            8            8 
     610    23.997107       24 2.3042724e-15            8            8            8 
     620     24.31466       24 2.3174757e-15            8            8            8 
     630    24.633758       24 2.3307657e-15            8            8            8 
     640    24.954144       24 2.3441429e-15            8            8            8 
     650    25.275672       24 2.3576098e-15            8            8            8 
     660    25.597332       24 2.3711669e-15            8            8            8 
     670    25.921789       24 2.3848145e-15            8            8            8 
     680    26.245676       24 2.3985519e-15            8            8            8 
     690    26.570085       24 2.4123797e-15            8            8            8 
     700    26.897338       24 2.4262985e-15            8            8            8 
     710    27.223018       24 2.4403088e-15            8            8            8 
     720    27.550883       24 2.4544112e-15            8            8            8 
     730     27.87766       24 2.4686063e-15            8            8            8 
     740    28.214669       24 2.4828948e-15            8            8            8 
     750    28.541451       24 2.4972773e-15            8            8            8 
     760    28.867312       24 2.5117543e-15            8            8            8 
     770    29.195719       24 2.5263266e-15            8            8            8 
     780    29.523622       24 2.5409948e-15            8            8            8 
     790    29.852784       24 2.5557594e-15            8            8            8 
     800    30.179116       24 2.5706212e-15            8            8            8 
     810     30.50899       24 2.5855808e-15            8            8            8 
     820    30.837587       24 2.6006389e-15            8            8            8 
     830    31.168081       24 2.6157961e-15            8            8            8 
     840    31.497932       24 2.6310531e-15            8            8            8 
     850    31.827741       24 2.6464105e-15            8            8            8 
     860    32.173203       24 2.6618691e-15            8            8            8 
     870    32.500624       24 2.6774295e-15            8            8            8 
     880    32.826899       25 2.6930924e-15            9            8            8 
     890    33.156067       26 2.7088585e-15           10            8            8 
     900    33.484032       26 2.7247286e-15           10            8            8 
     910    33.810078       27 2.7407032e-15           11            8            8 
     920    34.138989       27 2.7567831e-15           11            8            8 
     930    34.464463       27 2.772969e-15           11            8            8 
     940     34.79049       27 2.7892617e-15           11            8            8 
     950    35.118539       27 2.8056618e-15           11            8            8 
     960    35.448179       28  2.82217e-15           11            8            9 
     970    35.781267       28 2.8387872e-15           11            8            9 
     980    36.116116       28 2.855514e-15           11            8            9 
     990    36.449971       28 2.8723512e-15           11            8            9 
    1000    37.025582       28 2.8892995e-15           11            8            9 
    1010     37.39651       29 2.9063596e-15           11            8           10 
    1020    37.728731       29 2.9235324e-15           11            8           10 
    1030    38.075275       29 2.9408182e-15           11            8           10 
    1040     38.41866       30 2.9582176e-15           11            8           11 
    1050    38.772912       31 2.9757319e-15           12            8           11 
    1060      39.1248       31 2.9933616e-15           12            8           11 
    1070    39.474984       31 3.0111075e-15           12            8           11 
    1080    39.833237       31 3.0289711e-15           12            8           11 
    1090    40.190195       31 3.0469529e-15           12            8           11 
    1100    40.555193       31 3.0650549e-15           12            8           11 
    1110    40.895968       31 3.0832767e-15           12            8           11 
    1120    41.233486       32 3.1016191e-15           12            8           12 
    1130    41.573188       32 3.1200829e-15           12            8           12 
    1140    41.913706       32 3.1386687e-15           12            8           12 
    1150    42.253943       32 3.1573775e-15           12            8           12 
    1160    42.594034       32 3.1762101e-15           12            8           12 
    1170    42.931751       32 3.1951673e-15           12            8           12 
    1180    43.271342       32 3.2142499e-15           12            8           12 
    1190    43.609524       32 3.2334589e-15           12            8           12 
    1200    43.949403       32 3.252795e-15           12            8           12 
    1210    44.295523       33 3.2722592e-15           13            8           12 
    1220    44.648179       33 3.2918522e-15           13            8           12 
    1230    44.990018       34 3.311575e-15           13            8           13 
    1240    45.348868       34 3.3314285e-15           13            8           13 
    1250     45.69099       34 3.3514135e-15           13            8           13 
    1260    46.032626       34 3.3715309e-15           13            8           13 
    1270    46.379755       34 3.3917816e-15           13            8           13 
    1280    46.727946       34 3.4121666e-15           13            8           13 
    1290     47.07177       34 3.4326867e-15           13            8           13 
    1300    47.415096       34 3.4533429e-15           13            8           13 
    1310    47.765002       34 3.4741361e-15           13            8           13 
    1320    48.111061       34 3.4950672e-15           13            8           13 
    1330     48.45696       35 3.5161371e-15           13            8           14 
    1340    48.801202       35 3.5373468e-15           13            8           14 
    1350    49.152995       35 3.5586973e-15           13            8           14 
    1360    49.496997       36 3.5801895e-15           13            8           15 
    1370     49.84191       36 3.6018244e-15           13            8           15 
    1380    50.187257       36 3.6236029e-15           13            8           15 
    1390    50.532827       37 3.645526e-15           14            8           15 
    1400    50.882557       37 3.6675948e-15           14            8           15 
    1410    51.234894       38 3.6898101e-15           15            8           15 
    1420    51.579424       39 3.712173e-15           16            8           15 
    1430    51.935843       40 3.7346846e-15           16            8           16 
    1440    52.295258       40 3.7573457e-15           16            8           16 
    1450    52.648156       40 3.7801576e-15           16            8           16 
    1460    52.998577       40 3.803121e-15           16            8           16 
    1470    53.357108       40 3.8262372e-15           16            8           16 
    1480    53.709573       40 3.8495072e-15           16            8           16 
    1490    54.057481       40 3.8729319e-15           16            8           16 
    1500    54.677986       40 3.8965125e-15           16            8           16 
    1510    55.023617       40  3.92025e-15           16            8           16 
    1520    55.371761       40 3.9441454e-15           16            8           16 
    1530    55.720945       40 3.9681997e-15           16            8           16 
    1540    56.070797       40 3.992414e-15           16            8           16 
    1550    56.429339       40 4.0167894e-15           16            8           16 
    1560    56.778577       40 4.0413268e-15           16            8           16 
    1570    57.130845       40 4.0660276e-15           16            8           16 
    1580    57.487152       40 4.0908937e-15           16            8           16 
    1590    57.843105       40 4.1159255e-15           16            8           16 
    1600    58.207977       40 4.1411245e-15           16            8           16 
    1610     58.56989       40 4.1664919e-15           16            8           16 
    1620    58.928358       40 4.1920286e-15           16            8           16 
    1630    59.286237       41 4.2177356e-15           17            8           16 
    1640    59.648981       41 4.2436141e-15           17            8           16 
    1650    60.016962       41 4.2696652e-15           17            8           16 
    1660    60.382023       41 4.2958902e-15           17            8           16 
    1670    60.745493       41 4.3222902e-15           17            8           16 
    1680    61.110722       41 4.3488665e-15           17            8           16 
    1690    61.485555       42 4.3756201e-15           18            8           16 
    1700    61.885525       42 4.4025524e-15           18            8           16 
    1710    62.250713       43 4.4296646e-15           18            8           17 
    1720    62.612579       43 4.4569578e-15           18            8           17 
    1730       62.969       44 4.4844334e-15           19            8           17 
    1740    63.329853       44 4.5120925e-15           19            8           17 
    1750     63.69668       44 4.5399365e-15           19            8           17 
    1760    64.061691       44 4.5679666e-15           19            8           17 
    1770    64.427822       44 4.5961841e-15           19            8           17 
    1780    64.791371       45 4.6245902e-15           20            8           17 
    1790    65.151121       45 4.6531863e-15           20            8           17 
    1800    65.511577       45 4.6819736e-15           20            8           17 
    1810    65.872287       46 4.7109535e-15           20            8           18 
    1820    66.236148       46 4.7401273e-15           20            8           18 
    1830    66.596583       46 4.7694963e-15           20            8           18 
    1840    66.958024       46 4.7990618e-15           20            8           18 
    1850    67.319338       46 4.8288252e-15           20            8           18 
    1860    67.680232       46 4.8587879e-15           20            8           18 
    1870    68.041982       46 4.8889512e-15           20            8           18 
    1880    68.402718       46 4.9193165e-15           20            8           18 
    1890     68.76464       46 4.9498852e-15           20            8           18 
    1900    69.124072       46 4.9806586e-15           20            8           18 
    1910    69.485408       46 5.0116383e-15           20            8           18 
    1920    69.847102       46 5.0428255e-15           20            8           18 
    1930    70.209309       47 5.0742217e-15           20            8           19 
    1940    70.572297       47 5.1058284e-15           20            8           19 
    1950    70.937987       47 5.1376469e-15           20            8           19 
    1960     71.30438       47 5.1696788e-15           20            8           19 
    1970    71.672736       47 5.2019254e-15           20            8           19 
    1980    72.043088       47 5.2343893e-15           20            8           19 
    1990    72.417975       48 5.2670723e-15           21            8           19 
    2000    73.021175       48 5.2999736e-15           21            8           19 
    2010     73.41985       48 5.3330956e-15           21            8           19 
    2020    73.797702       48 5.3664408e-15           21            8           19 
    2030    74.179269       48 5.4000104e-15           21            8           19 
    2040    74.550727       49 5.4338053e-15           22            8           19 
    2050    74.922641       49 5.4678274e-15           22            8           19 
    2060    75.299846       49 5.5020779e-15           22            8           19 
    2070    75.680255       50 5.5365585e-15           22            8           20 
    2080    76.068475       50 5.571271e-15           22            8           20 
    2090    76.470557       50 5.6062167e-15           22            8           20 
    2100    76.848169       50 5.6413971e-15           22            8           20 
    2110    77.222509       51 5.676814e-15           23            8           20 
    2120      77.5985       51 5.7124689e-15           23            8           20 
    2130    77.977672       51 5.7483635e-15           23            8           20 
    2140    78.358768       52 5.7844994e-15           23            8           21 
    2150    78.748367       53 5.8208782e-15           24            8           21 
    2160     79.14579       55 5.8575017e-15           24            8           23 
    2170    79.526863       55 5.8943716e-15           24            8           23 
    2180     79.91502       55 5.9314894e-15           24            8           23 
    2190    80.313807       55 5.968857e-15           24            8           23 
    2200    80.707067       55 6.006476e-15           24            8           23 
    2210    81.090408       56 6.0443481e-15           24            8           24 
    2220    81.478286       56 6.0824752e-15           24            8           24 
    2230    81.884575       56 6.120859e-15           24            8           24 
    2240    82.268798       57 6.1595012e-15           25            8           24 
    2250     82.66757       57 6.1984036e-15           25            8           24 
    2260    83.067871       57 6.237568e-15           25            8           24 
    2270    83.447529       59 6.2769963e-15           26            8           25 
    2280    83.825878       59 6.3166901e-15           26            8           25 
    2290    84.221866       59 6.3566515e-15           26            8           25 
    2300     84.60548       60 6.3968821e-15           26            8           26 
    2310    84.983727       60 6.4373839e-15           26            8           26 
    2320    85.364783       60 6.4781587e-15           26            8           26 
    2330    85.742793       61 6.5192084e-15           27            8           26 
    2340     86.12345       62 6.5605349e-15           28            8           26 
    2350    86.514621       64 6.6021401e-15           28            8           28 
    2360    86.911475       65 6.6440259e-15           29            8           28 
    2370    87.299306       65 6.6861942e-15           29            8           28 
    2380    87.683979       65 6.728647e-15           29            8           28 
    2390    88.068732       65 6.7713863e-15           29            8           28 
    2400    88.454523       66 6.8144139e-15           30            8           28 
    2410    88.856653       66 6.8577319e-15           30            8           28 
    2420    89.259367       66 6.9013423e-15           30            8           28 
    2430    89.653522       66 6.9452471e-15           30            8           28 
    2440     90.04556       67 6.9894485e-15           30            8           29 
    2450    90.450731       68 7.0339484e-15           30            8           30 
    2460    90.858686       69 7.0787488e-15           31            8           30 
    2470    91.248952       70 7.1238517e-15           32            8           30 
    2480    91.637178       71 7.169259e-15           32            8           31 
    2490    92.035527       71 7.2149731e-15           32            8           31 
    2500    92.670797       71 7.2609961e-15           32            8           31 
    2510    93.059719       71 7.3073303e-15           32            8           31 
    2520    93.451216       71 7.3539778e-15           32            8           31 
    2530    93.875649       72 7.4009408e-15           33            8           31 
    2540    94.283247       72 7.4482214e-15           33            8           31 
    2550    94.679277       73 7.495822e-15           33            8           32 
    2560    95.075376       73 7.5437446e-15           33            8           32 
    2570     95.48879       74 7.5919914e-15           34            8           32 
    2580    95.901853       74 7.6405647e-15           34            8           32 
    2590    96.300118       75 7.6894672e-15           35            8           32 
    2600    96.728985       76 7.738701e-15           35            8           33 
    2610    97.134561       76 7.7882679e-15           35            8           33 
    2620    97.528713       76 7.8381705e-15           35            8           33 
    2630    97.917017       78 7.8884109e-15           36            9           33 
    2640    98.315423       79 7.9389915e-15           37            9           33 
    2650    98.731115       79 7.989915e-15           37            9           33 
    2660    99.127798       79 8.0411837e-15           37            9           33 
    2670    99.521837       79 8.0927996e-15           37            9           33 
    2680    99.914357       80 8.1447653e-15           38            9           33 
    2690    100.32464       80 8.1970831e-15           38            9           33 
    2700     100.7558       82 8.2497554e-15           38            9           35 
    2710    101.16549       82 8.3027848e-15           38            9           35 
    2720     101.5599       82 8.356249e-15           38            9           35 
    2730    101.96183       82 8.4101174e-15           38            9           35 
    2740    102.36166       82 8.4644313e-15           38            9           35 
    2750    102.77079       82 8.5190282e-15           38            9           35 
    2760    103.18913       82 8.5741527e-15           38            9           35 
    2770    103.59473       82 8.6296758e-15           38            9           35 
    2780    104.00363       82 8.6855095e-15           38            9           35 
    2790    104.40935       83 8.7418657e-15           39            9           35 
    2800    104.81516       84 8.7984936e-15           39           10           35 
    2810    105.23526       84 8.8556686e-15           39           10           35 
    2820    105.66158       84 8.9131001e-15           39           10           35 
    2830     106.0692       84 8.971112e-15           39           10           35 
    2840    106.49421       84 9.0294375e-15           39           10           35 
    2850    106.90121       85 9.0881504e-15           40           10           35 
    2860    107.30542       87 9.147451e-15           40           11           36 
    2870    107.71284       88 9.2071783e-15           40           11           37 
    2880    108.14599       88 9.2672447e-15           40           11           37 
    2890    108.56282       88 9.3280025e-15           40           11           37 
    2900    109.00476       88 9.3891415e-15           40           11           37 
    2910    109.42264       88 9.4506743e-15           40           11           37 
    2920    109.82817       88 9.512786e-15           40           11           37 
    2930    110.23908       88 9.5752237e-15           40           11           37 
    2940    110.67345       90 9.6382735e-15           41           11           38 
    2950    111.09316       90 9.7016289e-15           41           11           38 
    2960    111.50163       91 9.7655932e-15           41           11           39 
    2970    111.92842       92 9.8298605e-15           41           12           39 
    2980    112.35708       92 9.894746e-15           41           12           39 
    2990    112.76866       94 9.9599321e-15           42           12           40 
    3000    113.40158       94 1.0025777e-14           42           12           40 
    3010     113.8073       94 1.0092006e-14           42           12           40 
    3020    114.21935       95 1.0158718e-14           43           12           40 
    3030    114.63321       96 1.0225853e-14           44           12           40 
    3040     115.0471       96 1.0293653e-14           44           12           40 
    3050     115.4701       97 1.0361779e-14           45           12           40 
    3060     115.8869       97 1.0430376e-14           45           12           40 
    3070    116.32468       97 1.0499668e-14           45           12           40 
    3080    116.73318       97 1.0569328e-14           45           12           40 
    3090    117.17848       97 1.0639465e-14           45           12           40 
    3100    117.60398       99 1.0710158e-14           46           13           40 
    3110    118.02365      101 1.078136e-14           47           13           41 
    3120    118.43685      102 1.0853032e-14           48           13           41 
    3130    118.85414      104 1.0925226e-14           48           13           43 
    3140    119.27476      106 1.0997669e-14           50           13           43 
    3150    119.69434      106 1.1070194e-14           50           13           43 
    3160     120.1119      106 1.1143243e-14           50           13           43 
    3170    120.52832      106 1.1216798e-14           50           13           43 
    3180    120.94552      110 1.1291072e-14           51           13           46 
    3190    121.36739      110 1.1365846e-14           51           13           46 
    3200    121.79467      111 1.1441326e-14           51           13           47 
    3210    122.21975      112 1.1517308e-14           52           13           47 
    3220    122.63573      114 1.159428e-14           54           13           47 
    3230    123.05419      114 1.1671924e-14           54           13           47 
    3240    123.48236      115 1.1750096e-14           54           13           48 
    3250    123.89638      117 1.1828802e-14           55           13           49 
    3260    124.32164      118 1.1908088e-14           56           13           49 
    3270    124.74023      121 1.1988032e-14           57           13           51 
    3280    125.15993      121 1.2068525e-14           57           13           51 
    3290    125.57031      121 1.2149772e-14           57           13           51 
    3300    125.98158      121 1.2231626e-14           57           13           51 
    3310    126.40609      121 1.2314096e-14           57           13           51 
    3320    126.82226      122 1.2397129e-14           58           13           51 
    3330    127.20013      123 1.2480953e-14           58           13           52 
    3340    127.58915      123 1.2565211e-14           58           13           52 
    3350    128.01418      123 1.2650177e-14           58           13           52 
    3360    128.43862      126  1.27357e-14           59           14           53 
    3370    128.86693      127 1.282189e-14           60           14           53 
    3380    129.31304      127 1.2908678e-14           60           14           53 
    3390    129.74112      128 1.2996104e-14           60           14           54 
    3400    130.16936      128 1.3084141e-14           60           14           54 
    3410     130.5995      129 1.3172817e-14           61           14           54 
    3420    131.02846      129 1.3262113e-14           61           14           54 
    3430    131.45791      129 1.3352051e-14           61           14           54 
    3440    131.88999      129 1.3442615e-14           61           14           54 
    3450    132.31992      129 1.3533826e-14           61           14           54 
    3460    132.72291      131 1.362585e-14           62           14           55 
    3470     133.0503      134 1.3718826e-14           63           14           57 
    3480    133.48785      135 1.3811941e-14           64           14           57 
    3490    133.83544      136 1.3906303e-14           65           14           57 
    3500    134.44265      136 1.4001088e-14           65           14           57 
    3510    134.77838      137 1.4096687e-14           66           14           57 
    3520    135.18575      138 1.4192755e-14           67           14           57 
    3530    135.52404      139 1.4289785e-14           67           14           58 
    3540     135.9096      139 1.4387219e-14           67           14           58 
    3550    136.23065      140 1.4485666e-14           68           14           58 
    3560    136.61977      140 1.4584451e-14           68           14           58 
    3570    136.94705      141 1.468432e-14           68           14           59 
    3580    137.27514      142 1.4784752e-14           68           14           60 
    3590    137.58953      143 1.4885924e-14           68           14           61 
    3600    137.90519      144 1.4987786e-14           68           15           61 
    3610    138.22703      146 1.5090303e-14           69           15           62 
    3620    138.54406      146 1.5193584e-14           69           15           62 
    3630     138.8589      149 1.5297625e-14           69           15           65 
    3640    139.18092      150 1.5402384e-14           70           15           65 
    3650    139.50979      150 1.5507829e-14           70           15           65 
    3660    139.82056      151 1.561405e-14           70           15           66 
    3670    140.13986      152 1.5721017e-14           70           15           67 
    3680    140.48473      153 1.5828737e-14           71           15           67 
    3690    140.80048      154 1.5937217e-14           72           15           67 
    3700    141.11028      155 1.6046462e-14           72           16           67 
    3710    141.41388      156  1.61565e-14           72           16           68 
    3720    141.72752      156 1.6267368e-14           72           16           68 
    3730    142.03922      157 1.6378967e-14           72           16           69 
    3740    142.34807      158 1.6491331e-14           73           16           69 
    3750    142.64373      160 1.6604493e-14           74           16           70 
    3760    142.94107      161 1.6718465e-14           74           16           71 
    3770    143.26043      162 1.683324e-14           74           16           72 
    3780    143.57694      164 1.6948823e-14           75           16           73 
    3790    143.86155      166 1.7065275e-14           76           16           74 
    3800    144.15547      166 1.7182491e-14           76           16           74 
    3810    144.45421      167 1.7300571e-14           77           16           74 
    3820    144.76319      167 1.7419468e-14           77           16           74 
    3830    145.04906      167 1.7539199e-14           77           16           74 
    3840    145.33326      168 1.7659771e-14           78           16           74 
    3850    145.61731      170 1.7781235e-14           80           16           74 
    3860    145.89952      170 1.7903541e-14           80           16           74 
    3870    146.17173      170 1.8026697e-14           80           16           74 
    3880     146.4428      172 1.8150713e-14           81           16           75 
    3890    146.71589      173 1.8275623e-14           82           16           75 
    3900    146.95213      175 1.8401454e-14           84           16           75 
    3910    147.19503      178 1.852817e-14           86           17           75 
    3920    147.41593      178 1.8655762e-14           86           17           75 
    3930    147.63462      180 1.8784235e-14           88           17           75 
    3940    147.86974      182 1.891359e-14           89           17           76 
    3950    148.10069      183 1.9043848e-14           89           17           77 
    3960    148.33808      184 1.9175007e-14           89           17           78 
    3970    148.57642      185 1.9307073e-14           90           17           78 
    3980    148.80059      185 1.9440053e-14           90           17           78 
    3990    149.02685      185 1.9573955e-14           90           17           78 
    4000    149.49818      187 1.9708785e-14           90           18           79 
    4010    149.72125      187 1.9844549e-14           90           18           79 
    4020    149.95212      191 1.9981256e-14           91           18           82 
    4030    150.18245      192 2.011891e-14           92           18           82 
    4040    150.41422      194 2.0257519e-14           94           18           82 
    4050    150.63655      194 2.0397088e-14           94           18           82 
    4060    150.86628      194 2.0537626e-14           94           18           82 
    4070    151.08995      195 2.0679138e-14           94           18           83 
    4080    151.37627      198 2.0821616e-14           96           19           83 
    4090    151.65679      200 2.0965108e-14           96           20           84 
    4100      151.934      202 2.1109616e-14           98           20           84 
    4110    152.18271      202 2.1255139e-14           98           20           84 
    4120    152.41048      203 2.1401668e-14           99           20           84 
    4130     152.6384      203 2.1549212e-14           99           20           84 
    4140    152.85973      205 2.1697779e-14          100           20           85 
    4150    153.08253      206 2.1847375e-14          100           20           86 
    4160    153.30387      207 2.1998009e-14          101           20           86 
    4170    153.52488      209 2.2149688e-14          102           20           87 
    4180    153.74745      209 2.2302419e-14          102           20           87 
    4190     153.9699      212 2.245621e-14          103           20           89 
    4200    154.20186      215 2.2611063e-14          104           20           91 
    4210    154.42662      216 2.276698e-14          105           20           91 
    4220    154.64935      218 2.2923979e-14          106           20           92 
    4230    154.88131      220 2.3082068e-14          106           20           94 
    4240    155.16969      221 2.3241131e-14          107           20           94 
    4250    155.44996      223 2.340131e-14          107           22           94 
    4260    155.75035      224 2.3562587e-14          107           22           95 
    4270     156.0263      227 2.3725063e-14          109           22           96 
    4280    156.26653      227 2.3888717e-14          109           22           96 
    4290    156.48905      229 2.4053519e-14          109           22           98 
    4300    156.71361      229 2.4219464e-14          109           22           98 
    4310    156.93517      232 2.4386559e-14          111           22           99 
    4320    157.15668      234 2.4554813e-14          113           22           99 
    4330    157.37922      237 2.4724233e-14          115           22          100 
    4340    157.60246      239 2.489483e-14          117           22          100 
    4350    157.82443      241 2.506661e-14          119           22          100 
    4360    158.04629      241 2.5239583e-14          119           22          100 
    4370    158.26833      244 2.5413757e-14          121           22          101 
    4380    158.49053      247 2.558914e-14          122           23          102 
    4390    158.71341      250 2.5765741e-14          124           23          103 
    4400    158.93844      250 2.5943568e-14          124           23          103 
    4410    159.18291      253 2.6122631e-14          126           23          104 
    4420    159.41348      253 2.6302943e-14          126           23          104 
    4430     159.6381      256 2.6484506e-14          127           23          106 
    4440    159.86398      257 2.666733e-14          128           23          106 
    4450     160.0904      257 2.6851424e-14          128           23          106 
    4460    160.32102      258 2.7036797e-14          129           23          106 
    4470    160.54909      260 2.7223458e-14          130           23          107 
    4480    160.80205      261 2.7411417e-14          130           23          108 
    4490    161.04792      267 2.7600682e-14          131           25          111 
    4500    161.49662      268 2.7791262e-14          131           25          112 
    4510    161.74246      269 2.7983162e-14          131           25          113 
    4520    161.97381      270 2.8176393e-14          131           25          114 
    4530    162.20485      271 2.8370967e-14          132           25          114 
    4540    162.44491      278 2.8566896e-14          134           25          119 
    4550    162.67561      279 2.8764186e-14          134           25          120 
    4560    162.91575      280 2.8962848e-14          134           25          121 
    4570    163.15654      281 2.9162902e-14          134           26          121 
    4580    163.45908      284 2.9364358e-14          136           26          122 
    4590    163.77263      286 2.956723e-14          138           26          122 
    4600    164.08408      289 2.977152e-14          140           27          122 
    4610     164.3898      290 2.9977238e-14          140           27          123 
    4620    164.61386      293 3.0184398e-14          141           28          124 
    4630    164.84441      295 3.0392994e-14          142           29          124 
    4640    165.07443      299 3.0603036e-14          144           29          126 
    4650     165.3049      303 3.0814536e-14          147           29          127 
    4660    165.53577      305 3.1027504e-14          148           29          128 
    4670    165.77051      308 3.1241951e-14          150           29          129 
    4680    166.00481      309 3.1457887e-14          151           29          129 
    4690    166.26493      310 3.1675323e-14          152           29          129 
    4700    166.49402      313 3.1894269e-14          154           29          130 
    4710    166.73375      315 3.2114736e-14          155           29          131 
    4720    166.96643      316 3.2336735e-14          156           29          131 
    4730    167.20027      316 3.2560276e-14          156           29          131 
    4740    167.48342      320 3.2785372e-14          156           29          135 
    4750     167.7168      321 3.3012033e-14          156           29          136 
    4760    167.95538      322 3.3240267e-14          156           29          137 
    4770     168.1945      324 3.3470086e-14          157           29          138 
    4780    168.43494      325  3.37015e-14          157           30          138 
    4790    168.67368      329 3.3934522e-14          159           30          140 
    4800    168.91214      332 3.4169161e-14          160           30          142 
    4810    169.15104      334 3.440543e-14          161           30          143 
    4820    169.40866      336 3.4643338e-14          162           30          144 
    4830    169.65011      336 3.4882898e-14          162           30          144 
    4840     169.8877      337 3.512412e-14          162           30          145 
    4850    170.14691      338 3.5367018e-14          163           30          145 
    4860    170.44535      343 3.5611609e-14          166           30          147 
    4870    170.74809      343 3.5857903e-14          166           30          147 
    4880     171.0144      347 3.6105911e-14          168           30          149 
    4890    171.26029      347 3.6355639e-14          168           30          149 
    4900    171.50486      349 3.6607099e-14          169           30          150 
    4910    171.76207      352 3.6860304e-14          172           30          150 
    4920    172.00068      353 3.711527e-14          173           30          150 
    4930     172.2454      353 3.7372005e-14          173           30          150 
    4940    172.48927      356 3.7630521e-14          175           30          151 
    4950    172.73248      358 3.7890831e-14          177           30          151 
    4960    172.97664      360 3.8152948e-14          177           30          153 
    4970    173.25663      362 3.8416879e-14          179           30          153 
    4980    173.49795      364 3.8682641e-14          180           31          153 
    4990    173.74102      366 3.8950247e-14          181           31          154 
    5000    174.21174      368 3.921971e-14          182           31          155 
    5010    174.45476      371 3.9491044e-14          182           32          157 
    5020    174.69996      373 3.976426e-14          183           33          157 
    5030    174.95724      377 4.0039373e-14          183           33          161 
    5040    175.21699      380 4.0316396e-14          185           34          161 
    5050    175.46338      383 4.0595341e-14          186           34          163 
    5060    175.71085      384 4.0876223e-14          186           34          164 
    5070    175.95976      385 4.1159053e-14          187           34          164 
    5080     176.2102      386 4.1443847e-14          188           34          164 
    5090    176.46359      390 4.1730617e-14          190           34          166 
    5100    176.71915      394 4.2019377e-14          193           34          167 
    5110    176.97677      395 4.2310141e-14          193           35          167 
    5120    177.24713      398 4.2602924e-14          194           35          169 
    5130    177.50368      399 4.2897738e-14          194           35          170 
    5140    177.79163      401 4.3194598e-14          195           35          171 
    5150    178.11704      405 4.3493519e-14          198           35          172 
    5160    178.44489      413 4.3794515e-14          200           35          178 
    5170    178.69277      415  4.40976e-14          202           35          178 
    5180    178.94419      422 4.4402786e-14          206           35          181 
    5190    179.19919      424 4.4710092e-14          208           35          181 
    5200    179.46911      428 4.5019529e-14          210           35          183 
    5210    179.73851      434 4.5331112e-14          214           35          185 
    5220    179.99147      438 4.5644853e-14          215           37          186 
    5230    180.25171      439 4.596077e-14          216           37          186 
    5240      180.508      444 4.6278878e-14          219           38          187 
    5250    180.76519      446 4.6599192e-14          220           38          188 
    5260     181.0664      448 4.6921729e-14          222           38          188 
    5270    181.37193      455 4.7246504e-14          224           40          191 
    5280     181.6257      458 4.7573531e-14          225           40          193 
    5290    181.88296      461 4.7902827e-14          226           40          195 
    5300    182.13595      465 4.8234407e-14          228           40          197 
    5310    182.44234      470 4.8568287e-14          231           40          199 
    5320    182.69723      474 4.8904485e-14          233           40          201 
    5330    182.96276      476 4.9243014e-14          234           40          202 
    5340    183.23909      482 4.9583891e-14          237           40          205 
    5350    183.49219      485 4.9927132e-14          239           41          205 
    5360    183.82249      490 5.0272754e-14          242           41          207 
    5370    184.17032      491 5.0620774e-14          242           41          208 
    5380    184.52277      493 5.0971208e-14          242           41          210 
    5390    184.79859      495 5.1324072e-14          243           42          210 
    5400    185.09996      497 5.1679383e-14          245           42          210 
    5410     185.4174      502 5.2037157e-14          248           42          212 
    5420    185.73906      506 5.2397414e-14          252           42          212 
    5430    186.07146      510 5.2760167e-14          254           43          213 
    5440    186.39686      511 5.3125435e-14          254           43          214 
    5450    186.72068      516 5.3493236e-14          256           44          216 
    5460    187.04723      517 5.3863589e-14          257           44          216 
    5470    187.32112      521 5.4236512e-14          259           45          217 
    5480    187.57907      523 5.461202e-14          260           45          218 
    5490    187.88698      525 5.4990131e-14          261           46          218 
    5500    188.41154      527 5.5370863e-14          263           46          218 
    5510    188.73367      532 5.5754234e-14          265           46          221 
    5520    189.05291      541 5.6140262e-14          271           46          224 
    5530    189.39222      545 5.652897e-14          274           46          225 
    5540    189.71811      552 5.6920373e-14          278           46          228 
    5550    190.04734      553 5.7314491e-14          279           46          228 
    5560    190.37962      558 5.7711341e-14          281           46          231 
    5570    190.70483      563 5.8110944e-14          284           47          232 
    5580    191.03801      568 5.8513317e-14          287           47          234 
    5590    191.39069      574 5.8918482e-14          289           48          237 
    5600     191.7386      578 5.9326458e-14          290           50          238 
    5610    192.05135      582 5.9737263e-14          292           50          240 
    5620    192.36369      585 6.0150916e-14          294           50          241 
    5630    192.69131      586 6.0567437e-14          294           50          242 
    5640    193.03102      587 6.0986847e-14          295           50          242 
    5650    193.35249      590 6.1409163e-14          295           51          244 
    5660    193.66584      594 6.1834407e-14          298           52          244 
    5670    193.97251      600  6.22626e-14          302           52          246 
    5680    194.27271      600 6.2693762e-14          302           52          246 
    5690    194.58947      602 6.3127911e-14          303           52          247 
    5700    194.90658      606 6.356507e-14          305           52          249 
    5710    195.21035      611 6.400526e-14          308           52          251 
    5720    195.55514      616 6.4448501e-14          310           52          254 
    5730    195.86706      621 6.4894813e-14          312           52          257 
    5740      196.176      627 6.5344219e-14          313           52          262 
    5750    196.47067      633 6.579674e-14          314           54          265 
    5760    196.82342      637 6.6252398e-14          315           54          268 
    5770    197.16214      641 6.6711216e-14          317           54          270 
    5780    197.46427      647 6.7173214e-14          318           54          275 
    5790    197.73274      649 6.7638414e-14          319           54          276 
    5800    198.00579      653 6.810684e-14          321           54          278 
    5810    198.31932      655 6.8578512e-14          322           54          279 
    5820    198.62993      661 6.9053453e-14          326           54          281 
    5830    198.98004      666 6.9531686e-14          328           54          284 
    5840    199.28755      671 7.0013233e-14          330           55          286 
    5850     199.6023      673 7.0498119e-14          332           55          286 
    5860    199.92791      674 7.0986365e-14          332           56          286 
    5870     200.2742      679 7.1477996e-14          335           56          288 
    5880    200.62002      684 7.1973033e-14          338           57          289 
    5890    200.96407      690 7.2471501e-14          342           57          291 
    5900    201.31157      693 7.2973423e-14          345           57          291 
    5910    201.66117      698 7.3478823e-14          347           57          294 
    5920    202.00793      702 7.3987726e-14          350           57          295 
    5930    202.35392      706 7.4500155e-14          352           57          297 
    5940    202.70525      709 7.5016135e-14          353           57          299 
    5950    203.05514      711 7.5535691e-14          353           57          301 
    5960    203.39049      721 7.6058847e-14          357           58          306 
    5970    203.69928      725 7.6585629e-14          360           58          307 
    5980    203.99233      727 7.7116063e-14          361           59          307 
    5990    204.31614      735 7.7650171e-14          367           59          309 
    6000    204.88388      743 7.818798e-14          372           59          312 
    6010    205.20758      747 7.8729515e-14          374           59          314 
    6020    205.52973      753 7.9274803e-14          377           59          317 
    6030    205.87814      762 7.982387e-14          381           60          321 
    6040    206.19826      767 8.0376742e-14          383           60          324 
    6050    206.54252      775 8.0933444e-14          389           60          326 
    6060    206.83268      778 8.1494005e-14          389           60          329 
    6070    207.15997      783 8.2058449e-14          392           60          331 
    6080    207.49878      785 8.2626805e-14          393           60          332 
    6090    207.83699      788 8.3199098e-14          394           60          334 
    6100    208.18384      799 8.3775355e-14          400           61          338 
    6110    208.51756      808 8.4355605e-14          405           61          342 
    6120      208.845      816 8.4939876e-14          409           63          344 
    6130    209.18442      822 8.5528198e-14          414           63          345 
    6140    209.52391      829 8.6120594e-14          418           64          347 
    6150    209.87711      835 8.6717093e-14          421           64          350 
    6160    210.21406      842 8.7317726e-14          424           65          353 
    6170    210.57718      848 8.792252e-14          427           65          356 
    6180    210.93702      855 8.8531504e-14          431           65          359 
    6190    211.28444      857 8.9144705e-14          432           65          360 
    6200    211.61967      862 8.9762155e-14          433           66          363 
    6210    211.97446      869 9.0383883e-14          436           66          367 
    6220    212.32408      877 9.1009917e-14          439           69          369 
    6230    212.61894      880 9.164029e-14          439           69          372 
    6240    212.96747      882 9.2275029e-14          440           69          373 
    6250    213.32722      889 9.2914163e-14          445           70          374 
    6260    213.67624      895 9.3557725e-14          449           70          376 
    6270    214.05686      906 9.4205744e-14          456           71          379 
    6280    214.43685      915 9.4858253e-14          459           73          383 
    6290    214.74697      919 9.5515284e-14          461           74          384 
    6300    215.09871      924 9.6176867e-14          464           75          385 
    6310    215.44782      930 9.6843032e-14          468           75          387 
    6320    215.79002      935 9.7513811e-14          472           75          388 
    6330    216.13886      947 9.8189236e-14          478           76          393 
    6340    216.50412      949 9.8869339e-14          479           76          394 
    6350    216.88724      958 9.9554153e-14          486           76          396 
    6360     217.2421      965 1.0024371e-13          490           76          399 
    6370    217.60985      967 1.0093804e-13          492           76          399 
    6380    217.97633      972 1.0163718e-13          495           76          401 
    6390    218.34602      977 1.0234116e-13          498           77          402 
    6400    218.70519      980 1.0305002e-13          500           78          402 
    6410    219.06482      985 1.0376379e-13          502           78          405 
    6420    219.42567      994 1.044825e-13          508           78          408 
    6430    219.78924     1001 1.0520618e-13          510           79          412 
    6440     220.1516     1008 1.0593488e-13          516           79          413 
    6450    220.51748     1014 1.0666862e-13          518           79          417 
    6460     220.9422     1021 1.0740744e-13          522           80          419 
    6470    221.31001     1030 1.0815139e-13          526           80          424 
    6480    221.68438     1036 1.0890048e-13          529           80          427 
    6490    222.05265     1046 1.0965476e-13          537           80          429 
    6500    222.64288     1058 1.1041426e-13          543           80          435 
    6510    222.99449     1068 1.1117903e-13          548           82          438 
    6520    223.37791     1074 1.1194908e-13          551           83          440 
    6530    223.74403     1083 1.1272447e-13          557           84          442 
    6540     224.1057     1090 1.1350523e-13          560           86          444 
    6550    224.45623     1099 1.1429139e-13          562           86          451 
    6560    224.77808     1107  1.15083e-13          565           86          456 
    6570    225.11111     1112 1.158801e-13          567           86          459 
    6580    225.47762     1121 1.1668271e-13          569           87          465 
    6590    225.84487     1128 1.1749088e-13          571           88          469 
    6600     226.1985     1136 1.1830464e-13          577           88          471 
    6610    226.56619     1149 1.1912404e-13          583           89          477 
    6620    226.95953     1161 1.1994911e-13          588           89          484 
    6630    227.35853     1171 1.2077989e-13          590           92          489 
    6640    227.75803     1178 1.2161642e-13          593           93          492 
    6650    228.16754     1186 1.2245875e-13          597           93          496 
    6660    228.58129     1193 1.233069e-13          600           93          500 
    6670    228.95389     1202 1.2416092e-13          606           93          503 
    6680     229.3355     1209 1.2502086e-13          611           93          505 
    6690    229.71831     1214 1.2588675e-13          613           93          508 
    6700    230.09583     1220 1.2675863e-13          615           93          512 
    6710    230.46833     1231 1.2763655e-13          619           95          517 
    6720    230.85385     1235 1.2852054e-13          620           96          519 
    6730     231.2319     1240 1.2941066e-13          621           96          523 
    6740    231.61857     1250 1.3030693e-13          627           96          527 
    6750    232.00044     1259 1.3120941e-13          631           97          531 
    6760    232.40196     1265 1.3211813e-13          634           98          533 
    6770    232.80574     1278 1.3303314e-13          642           98          538 
    6780    233.21622     1288 1.3395448e-13          650           99          539 
    6790    233.62824     1294 1.348822e-13          654           99          541 
    6800    234.02717     1302 1.3581633e-13          661           99          542 
    6810    234.44996     1315 1.3675693e-13          668          100          547 
    6820    234.85741     1327 1.3770404e-13          676          100          551 
    6830    235.26183     1337 1.386577e-13          683          100          554 
    6840    235.64269     1341 1.3961796e-13          684          100          557 
    6850    236.05511     1349 1.4058486e-13          685          101          563 
    6860    236.43073     1359 1.4155846e-13          694          101          564 
    6870    236.81266     1366 1.4253879e-13          698          102          566 
    6880    237.18014     1378 1.435259e-13          704          103          571 
    6890    237.55489     1388 1.4451985e-13          709          103          576 
    6900    237.94146     1398 1.4552067e-13          715          105          578 
    6910    238.34066     1407 1.4652841e-13          718          105          584 
    6920    238.76186     1420 1.4754313e-13          725          106          589 
    6930    239.16501     1425 1.4856486e-13          726          106          593 
    6940    239.57766     1431 1.4959366e-13          730          106          595 
    6950    239.99975     1440 1.5062958e-13          735          106          599 
    6960    240.40683     1446 1.5167266e-13          738          106          602 
    6970    240.80843     1453 1.5272296e-13          741          106          606 
    6980    241.21846     1465 1.5378053e-13          745          106          614 
    6990    241.63519     1479 1.548454e-13          752          108          619 
    7000    242.27942     1488 1.5591765e-13          756          109          623 
    7010    242.68881     1499 1.5699731e-13          759          110          630 
    7020    243.09574     1512 1.5808443e-13          768          111          633 
    7030    243.50957     1521 1.5917908e-13          773          112          636 
    7040    243.92936     1528 1.602813e-13          778          113          637 
    7050    244.34311     1540 1.6139114e-13          785          113          642 
    7060    244.75529     1554 1.6250865e-13          794          114          646 
    7070    245.17556     1562 1.6363389e-13          797          114          651 
    7080    245.57221     1574 1.6476691e-13          804          114          656 
    7090    246.00072     1586 1.6590776e-13          809          117          660 
    7100    246.44142     1594 1.670565e-13          811          117          666 
    7110    246.85953     1612 1.6821318e-13          824          117          671 
    7120    247.29867     1620 1.6937786e-13          828          117          675 
    7130    247.72224     1629 1.705506e-13          833          117          679 
    7140    248.15875     1636 1.7173144e-13          836          117          683 
    7150    248.58788     1648 1.7292045e-13          842          118          688 
    7160    249.02714     1666 1.7411768e-13          850          119          697 
    7170    249.45697     1677 1.7532319e-13          856          121          700 
    7180     249.8875     1690 1.7653704e-13          862          125          703 
    7190    250.32546     1704 1.7775928e-13          870          127          707 
    7200    250.75278     1717 1.7898997e-13          877          129          711 
    7210     251.1866     1729 1.8022916e-13          886          130          713 
    7220     251.6095     1738 1.8147692e-13          893          130          715 
    7230    252.05672     1756 1.827333e-13          903          131          722 
    7240    252.50066     1761 1.8399836e-13          907          131          723 
    7250    252.95152     1770 1.8527216e-13          913          131          726 
    7260    253.39164     1785 1.8655476e-13          922          132          731 
    7270    253.84104     1799 1.8784622e-13          928          134          737 
    7280    254.27886     1812 1.8914661e-13          937          134          741 
    7290    254.73279     1822 1.9045598e-13          944          134          744 
    7300    255.19472     1831 1.917744e-13          946          134          751 
    7310     255.6534     1841 1.9310193e-13          951          135          755 
    7320     256.1133     1859 1.9443863e-13          959          135          765 
    7330    256.57455     1868 1.9578457e-13          963          136          769 
    7340    257.05238     1883 1.971398e-13          971          137          775 
    7350    257.51768     1893 1.985044e-13          977          137          779 
    7360    257.97464     1915 1.9987843e-13          989          139          787 
    7370    258.44957     1931 2.0126195e-13          998          139          794 
    7380     258.9225     1949 2.0265503e-13         1006          140          803 
    7390    259.40582     1965 2.0405773e-13         1016          141          808 
    7400    259.87743     1975 2.0547011e-13         1021          141          813 
    7410    260.34737     1985 2.0689225e-13         1025          142          818 
    7420    260.81358     1999 2.0832422e-13         1032          143          824 
    7430    261.27819     2018 2.0976607e-13         1042          144          832 
    7440    261.73882     2025 2.1121788e-13         1046          145          834 
    7450    262.19625     2036 2.1267971e-13         1052          145          839 
    7460    262.65931     2049 2.1415163e-13         1061          147          841 
    7470    263.13115     2060 2.1563372e-13         1067          148          845 
    7480    263.61367     2079 2.1712604e-13         1076          148          855 
    7490    264.10531     2101 2.1862867e-13         1088          151          862 
    7500    264.83789     2108 2.2014166e-13         1092          151          865 
    7510    265.36243     2120 2.216651e-13         1095          154          871 
    7520    265.84253     2135 2.2319905e-13         1104          154          877 
    7530    266.33275     2152 2.2474359e-13         1114          156          882 
    7540    266.81347     2167 2.2629879e-13         1120          157          890 
    7550    267.29749     2184 2.2786472e-13         1132          157          895 
    7560    267.77747     2198 2.2944145e-13         1141          159          898 
    7570    268.26978     2214 2.3102908e-13         1152          159          903 
    7580    268.74532     2231 2.3262766e-13         1161          160          910 
    7590    269.22783     2253 2.3423727e-13         1172          161          920 
    7600     269.7352     2274 2.3585799e-13         1184          161          929 
    7610    270.22671     2291 2.3748989e-13         1189          164          938 
    7620    270.72851     2302 2.3913306e-13         1194          164          944 
    7630    271.23288     2308 2.4078756e-13         1197          164          947 
    7640    271.71969     2322 2.4245347e-13         1204          165          953 
    7650    272.22082     2339 2.4413087e-13         1214          165          960 
    7660    272.74155     2349 2.4581985e-13         1220          165          964 
    7670    273.25465     2366 2.4752047e-13         1229          166          971 
    7680    273.78041     2382 2.4923283e-13         1236          167          979 
    7690    274.30015     2394 2.5095699e-13         1241          168          985 
    7700    274.81623     2407 2.5269304e-13         1247          170          990 
    7710    275.34047     2430 2.5444106e-13         1261          171          998 
    7720    275.87459     2444 2.5620112e-13         1271          171         1002 
    7730    276.41027     2461 2.5797332e-13         1278          173         1010 
    7740    276.94309     2481 2.5975774e-13         1289          173         1019 
    7750    277.48335     2506 2.6155445e-13         1301          176         1029 
    7760    278.03426     2526 2.6336356e-13         1312          177         1037 
    7770    278.59086     2541 2.6518513e-13         1319          178         1044 
    7780    279.13305     2567 2.6701926e-13         1332          180         1055 
    7790    279.67391     2577 2.6886604e-13         1338          180         1059 
    7800    280.21565     2591 2.7072554e-13         1346          180         1065 
    7810    280.77175     2605 2.7259787e-13         1357          180         1068 
    7820     281.3067     2628 2.7448311e-13         1370          182         1076 
    7830    281.84875     2647 2.7638134e-13         1382          182         1083 
    7840    282.42866     2657 2.7829264e-13         1385          183         1089 
    7850    283.05591     2675 2.8021711e-13         1390          184         1101 
    7860    283.60562     2693 2.8215483e-13         1397          184         1112 
    7870    284.18422     2711 2.8410591e-13         1407          184         1120 
    7880    284.74338     2733 2.8607042e-13         1416          187         1130 
    7890    285.32321     2760 2.8804847e-13         1431          189         1140 
    7900    285.87325     2776 2.9004014e-13         1438          189         1149 
    7910    286.42918     2803 2.9204553e-13         1456          189         1158 
    7920     287.0087     2823 2.9406474e-13         1466          190         1167 
    7930     287.6028     2847 2.9609784e-13         1480          191         1176 
    7940    288.16933     2869 2.9814494e-13         1490          193         1186 
    7950    288.74653     2889 3.0020614e-13         1501          194         1194 
    7960    289.31503     2908 3.0228153e-13         1504          198         1206 
    7970    289.91622     2928 3.0437121e-13         1516          200         1212 
    7980    290.53081     2946 3.0647528e-13         1527          201         1218 
    7990    291.14132     2961 3.0859381e-13         1533          202         1226 
    8000    291.97085     2977 3.1072693e-13         1542          204         1231 
    8010    292.55768     3008 3.1287472e-13         1556          207         1245 
    8020    293.13285     3022 3.1503729e-13         1562          208         1252 
    8030    293.70131     3046 3.1721474e-13         1577          209         1260 
    8040    294.28922     3068 3.1940717e-13         1591          210         1267 
    8050    294.86784     3086 3.2161469e-13         1600          212         1274 
    8060    295.45416     3104 3.2383739e-13         1611          213         1280 
    8070    296.03579     3127 3.2607539e-13         1626          216         1285 
    8080    296.65217     3151 3.2832878e-13         1642          216         1293 
    8090    297.24466     3174 3.3059767e-13         1658          216         1300 
    8100       297.83     3191 3.3288216e-13         1668          217         1306 
    8110    298.44147     3211 3.3518236e-13         1679          217         1315 
    8120    299.03851     3232 3.3749837e-13         1690          219         1323 
    8130    299.65273     3252 3.3983032e-13         1701          222         1329 
    8140    300.25843     3283 3.4217831e-13         1716          226         1341 
    8150    300.86912     3302 3.4454243e-13         1724          228         1350 
    8160    301.47242     3319 3.4692281e-13         1734          229         1356 
    8170     302.0921     3337 3.4931954e-13         1743          229         1365 
    8180      302.725     3362 3.5173273e-13         1756          230         1376 
    8190    303.36089     3388 3.5416251e-13         1770          231         1387 
    8200    303.98126     3411 3.5660897e-13         1783          234         1394 
    8210    304.59947     3436 3.5907224e-13         1797          235         1404 
    8220    305.23281     3452 3.6155243e-13         1807          236         1409 
    8230    305.86599     3479 3.6404965e-13         1821          238         1420 
    8240    306.49114     3500 3.6656404e-13         1833          239         1428 
    8250    307.14425     3523 3.6909568e-13         1846          241         1436 
    8260    307.78023     3557 3.7164471e-13         1867          242         1448 
    8270    308.44995     3585 3.7421124e-13         1884          242         1459 
    8280    309.10363     3608 3.7679537e-13         1897          243         1468 
    8290    309.80583     3627 3.7939725e-13         1906          244         1477 
    8300    310.48444     3660 3.8201697e-13         1924          245         1491 
    8310    311.12611     3689 3.8465467e-13         1940          247         1502 
    8320    311.78753     3720 3.8731048e-13         1955          247         1518 
    8330    312.44511     3745 3.8998452e-13         1971          249         1525 
    8340    313.09785     3771 3.9267691e-13         1982          250         1539 
    8350    313.75917     3795 3.9538777e-13         1997          250         1548 
    8360    314.42505     3819 3.9811723e-13         2008          250         1561 
    8370    315.08735     3844 4.0086541e-13         2022          251         1571 
    8380    315.74804     3869 4.0363245e-13         2036          253         1580 
    8390    316.42405     3887 4.0641845e-13         2047          253         1587 
    8400    317.09744     3907 4.0922355e-13         2058          255         1594 
    8410    317.77541     3936 4.1204788e-13         2075          256         1605 
    8420    318.48296     3975 4.1489156e-13         2097          257         1621 
    8430    319.19457     3997 4.1775474e-13         2110          259         1628 
    8440    319.89564     4024 4.2063753e-13         2124          260         1640 
    8450    320.58739     4065 4.2354007e-13         2145          262         1658 
    8460    321.29297     4090 4.264625e-13         2162          263         1665 
    8470    321.98248     4129 4.2940494e-13         2181          266         1682 
    8480    322.68313     4158 4.3236754e-13         2199          266         1693 
    8490    323.38462     4181 4.3535043e-13         2212          267         1702 
    8500    324.32169     4209 4.3835375e-13         2222          268         1719 
    8510    325.03325     4240 4.4137763e-13         2236          270         1734 
    8520    325.74618     4274 4.4442221e-13         2252          271         1751 
    8530    326.45656     4300 4.4748763e-13         2267          274         1759 
    8540    327.18405     4327 4.5057402e-13         2282          275         1770 
    8550    327.90768     4358 4.5368154e-13         2297          276         1785 
    8560    328.61375     4375 4.5681033e-13         2305          279         1791 
    8570     329.3705     4396 4.5996052e-13         2315          280         1801 
    8580    330.10202     4426 4.6313225e-13         2329          283         1814 
    8590    330.85891     4465 4.6632567e-13         2346          289         1830 
    8600     331.6241     4493 4.6954093e-13         2365          292         1836 
    8610    332.36973     4530 4.7277816e-13         2390          293         1847 
    8620    333.10766     4566 4.7603751e-13         2412          298         1856 
    8630    333.85875     4587 4.7931913e-13         2420          300         1867 
    8640    334.61314     4620 4.8262316e-13         2435          300         1885 
    8650    335.35441     4658 4.8594978e-13         2460          301         1897 
    8660    336.11345     4695 4.8929912e-13         2483          304         1908 
    8670    336.88214     4721 4.9267133e-13         2497          307         1917 
    8680    337.64128     4747 4.9606657e-13         2508          309         1930 
    8690    338.39694     4774 4.9948501e-13         2523          311         1940 
    8700    339.15972     4798 5.0292679e-13         2536          312         1950 
    8710    339.94165     4827 5.0639208e-13         2552          314         1961 
    8720    340.72368     4865 5.0988102e-13         2573          317         1975 
    8730     341.5224     4891 5.1339377e-13         2585          321         1985 
    8740    342.33065     4918 5.169305e-13         2598          321         1999 
    8750    343.12448     4948 5.2049134e-13         2609          324         2015 
    8760    343.91425     4982 5.2407647e-13         2626          325         2031 
    8770    344.74783     5019 5.2768602e-13         2650          325         2044 
    8780    345.55627     5053 5.3132018e-13         2670          326         2057 
    8790    346.35837     5088 5.3497912e-13         2685          328         2075 
    8800    347.16973     5121 5.3866299e-13         2701          329         2091 
    8810    347.98903     5170 5.4237195e-13         2731          332         2107 
    8820    348.79378     5204 5.461062e-13         2751          332         2121 
    8830    349.60752     5242 5.498659e-13         2770          335         2137 
    8840    350.46051     5280 5.5365122e-13         2792          337         2151 
    8850    351.30998     5325 5.5746231e-13         2817          344         2164 
    8860    352.16721     5354 5.6129933e-13         2834          347         2173 
    8870    353.01312     5391 5.6516246e-13         2854          349         2188 
    8880    353.86934     5430 5.6905186e-13         2876          350         2204 
    8890    354.72714     5467 5.7296771e-13         2895          351         2221 
    8900    355.59805     5516 5.7691018e-13         2924          351         2241 
    8910    356.47459     5564 5.8087945e-13         2953          353         2258 
    8920    357.34986     5597 5.848757e-13         2969          356         2272 
    8930    358.22028     5645 5.8889913e-13         2993          358         2294 
    8940    359.09037     5679 5.9294989e-13         3007          360         2312 
    8950    359.95404     5726 5.9702818e-13         3036          360         2330 
    8960    360.87386     5763 6.0113419e-13         3059          361         2343 
    8970    361.74322     5800 6.0526807e-13         3084          361         2355 
    8980    362.63293     5848 6.0943003e-13         3107          366         2375 
    8990    363.53112     5886 6.1362021e-13         3126          367         2393 
    9000    364.67313     5932 6.1783882e-13         3150          368         2414 
    9010    365.55782     5967 6.2208607e-13         3168          371         2428 
    9020    366.43905     5997 6.2636213e-13         3186          374         2437 
    9030    367.33583     6040 6.306672e-13         3211          376         2453 
    9040    368.24481     6085 6.3500147e-13         3235          380         2470 
    9050    369.15087     6133 6.3936513e-13         3260          381         2492 
    9060    370.07888     6170 6.4375833e-13         3279          385         2506 
    9070    371.06652     6220 6.4818129e-13         3302          389         2529 
    9080    371.96473     6272 6.5263421e-13         3334          392         2546 
    9090    372.87582     6321 6.5711726e-13         3362          393         2566 
    9100    373.79912     6364 6.6163065e-13         3384          395         2585 
    9110    374.72726     6408 6.6617459e-13         3409          398         2601 
    9120     375.6641     6464 6.7074928e-13         3439          401         2624 
    9130    376.64495     6498 6.7535493e-13         3457          405         2636 
    9140    377.59948     6544 6.7999172e-13         3483          409         2652 
    9150    378.52625     6589 6.8465984e-13         3507          413         2669 
    9160    379.47686     6629 6.8935951e-13         3527          415         2687 
    9170    380.41389     6669 6.9409092e-13         3547          419         2703 
    9180     381.3708     6725 6.988543e-13         3580          420         2725 
    9190    382.34511     6775 7.0364984e-13         3603          422         2750 
    9200    383.33365     6831 7.0847772e-13         3629          425         2777 
    9210    384.31662     6877 7.1333817e-13         3653          427         2797 
    9220    385.27749     6934 7.1823139e-13         3690          431         2813 
    9230    386.25737     6985 7.2315762e-13         3722          433         2830 
    9240    387.24483     7025 7.2811703e-13         3747          434         2844 
    9250    388.24874     7064 7.3310986e-13         3774          434         2856 
    9260    389.25086     7101 7.3813629e-13         3792          438         2871 
    9270     390.2623     7136 7.4319657e-13         3812          438         2886 
    9280    391.25433     7173 7.4829092e-13         3832          439         2902 
    9290    392.27988     7228 7.5341956e-13         3861          443         2924 
    9300    393.33234     7279 7.5858268e-13         3889          445         2945 
    9310    394.36543     7326 7.637805e-13         3918          448         2960 
    9320    395.39482     7379 7.6901327e-13         3950          450         2979 
    9330    396.45943     7420 7.7428119e-13         3967          454         2999 
    9340    397.49213     7474 7.7958449e-13         3993          457         3024 
    9350    398.53007     7518 7.8492339e-13         4022          457         3039 
    9360    399.57523     7571 7.9029812e-13         4058          457         3056 
    9370    400.61205     7624 7.9570894e-13         4090          458         3076 
    9380    401.72139     7659 8.0115605e-13         4112          460         3087 
    9390    402.79517     7707 8.0663966e-13         4134          462         3111 
    9400    403.86053     7757 8.1216001e-13         4164          465         3128 
    9410    404.93421     7808 8.1771733e-13         4190          465         3153 
    9420    406.00726     7862 8.2331191e-13         4219          467         3176 
    9430     407.1099     7920 8.2894397e-13         4251          470         3199 
    9440    408.21782     7976 8.346137e-13         4278          474         3224 
    9450    409.32976     8035 8.4032135e-13         4312          478         3245 
    9460    410.44787     8079 8.4606719e-13         4335          483         3261 
    9470    411.56206     8140 8.5185141e-13         4366          487         3287 
    9480    412.66895     8202 8.5767427e-13         4398          493         3311 
    9490    413.79836     8258  8.63536e-13         4433          493         3332 
    9500    415.17206     8314 8.6943682e-13         4468          493         3353 
    9510    416.31978     8375 8.7537699e-13         4496          495         3384 
    9520    417.47316     8439 8.8135673e-13         4530          497         3412 
    9530    418.62755     8487 8.8737632e-13         4555          499         3433 
    9540    419.78867     8558 8.9343599e-13         4597          503         3458 
    9550     420.9464     8615 8.9953598e-13         4629          505         3481 
    9560    422.12882     8670 9.0567651e-13         4653          508         3509 
    9570    423.31071     8718 9.1185785e-13         4684          510         3524 
    9580     424.5252     8777 9.1808029e-13         4720          513         3544 
    9590    425.74032     8844 9.2434403e-13         4756          520         3568 
    9600     426.9508     8911 9.3064934e-13         4799          520         3592 
    9610    428.18578     8973 9.369965e-13         4835          523         3615 
    9620    429.40601     9043 9.4338573e-13         4873          530         3640 
    9630    430.62959     9096 9.4981732e-13         4900          531         3665 
    9640    431.86387     9155 9.5629154e-13         4930          534         3691 
    9650    433.10778     9224 9.6280862e-13         4966          536         3722 
    9660    434.36005     9283 9.6936882e-13         4992          538         3753 
    9670    435.62725     9338 9.7597237e-13         5028          540         3770 
    9680    436.89054     9389 9.8261956e-13         5062          542         3785 
    9690     438.1666     9445 9.8931065e-13         5085          550         3810 
    9700    439.44232     9518 9.9604588e-13         5119          555         3844 
    9710    440.72604     9581 1.0028255e-12         5150          559         3872 
    9720    441.98101     9647 1.0096499e-12         5189          562         3896 
    9730    443.25865     9716 1.0165192e-12         5226          566         3924 
    9740    444.57737     9781 1.0234337e-12         5261          569         3951 
    9750    445.94152     9848 1.0303935e-12         5306          573         3969 
    9760    447.26612     9916 1.0373992e-12         5348          575         3993 
    9770    448.56671     9985 1.0444509e-12         5390          579         4016 
    9780    449.88861    10043 1.0515488e-12         5419          585         4039 
    9790    451.19508    10104 1.0586934e-12         5460          585         4059 
    9800    452.54171    10178 1.0658848e-12         5498          589         4091 
    9810     453.8897    10243 1.0731233e-12         5536          593         4114 
    9820    455.22686    10317 1.0804091e-12         5576          597         4144 
    9830    456.57662    10389 1.0877426e-12         5621          599         4169 
    9840    457.90834    10480 1.0951239e-12         5668          604         4208 
    9850    459.25558    10549 1.1025534e-12         5706          609         4234 
    9860    460.63065    10627 1.1100314e-12         5749          613         4265 
    9870    461.99917    10693 1.1175581e-12         5781          617         4295 
    9880    463.47123    10771 1.1251337e-12         5814          622         4335 
    9890    464.87286    10838 1.1327587e-12         5854          624         4360 
    9900     466.2814    10914 1.1404332e-12         5893          628         4393 
    9910    467.69941    10998 1.1481576e-12         5939          631         4428 
    9920    469.12482    11058 1.1559322e-12         5969          634         4455 
    9930    470.56783    11138 1.1637571e-12         6018          637         4483 
    9940    472.00414    11222 1.1716325e-12         6065          640         4517 
    9950    473.45751    11299 1.179559e-12         6107          645         4547 
    9960    474.91433    11381 1.1875368e-12         6153          648         4580 
    9970    476.39937    11457 1.1955661e-12         6202          651         4604 
    9980    477.86078    11519 1.2036472e-12         6237          655         4627 
    9990    479.32328    11590 1.2117804e-12         6268          657         4665 
   10000    481.02134    11677 1.219966e-12         6316          662         4699 
Loop time of 481.021 on 1 procs for 10000 steps with 11677 atoms

Performance: 64662406.072 tau/day, 20.789 timesteps/s
98.8% CPU use with 1 MPI tasks x no OpenMP threads

MPI task timing breakdown:
Section |  min time  |  avg time  |  max time  |%varavg| %total
---------------------------------------------------------------
Pair    | 7.2688     | 7.2688     | 7.2688     |   0.0 |  1.51
Neigh   | 37.083     | 37.083     | 37.083     |   0.0 |  7.71
Comm    | 0.22947    | 0.22947    | 0.22947    |   0.0 |  0.05
Output  | 4.5264     | 4.5264     | 4.5264     |   0.0 |  0.94
Modify  | 431.66     | 431.66     | 431.66     |   0.0 | 89.74
Other   |            | 0.2513     |            |       |  0.05

Nlocal:    11677 ave 11677 max 11677 min
Histogram: 1 0 0 0 0 0 0 0 0 0
Nghost:    0 ave 0 max 0 min
Histogram: 1 0 0 0 0 0 0 0 0 0
Neighs:    120735 ave 120735 max 120735 min
Histogram: 1 0 0 0 0 0 0 0 0 0

Total # of neighbors = 120735
Ave neighs/atom = 10.3396
Neighbor list builds = 10000
Dangerous builds = 0


