  Granular Flow Simulation 

       10 atoms 
       2 atom types 
       2 nutrients

   0.0   2.0e-04  xlo xhi 
   0.0   2.0e-04  ylo yhi 
   0.0   2.0e-04  zlo zhi 

 Atoms

     1 1 7.8e-7 290 1e-4 0.1e-4 0.39e-6 7.8e-7 hety
     2 2 7.8e-7 290 1e-4 0.3e-4 0.39e-6 7.8e-7 hetr
     3 1 7.8e-7 290 1e-4 0.5e-4 0.39e-6 7.8e-7 hety
     4 2 7.8e-7 290 1e-4 0.7e-4 0.39e-6 7.8e-7 hetr
     5 1 7.8e-7 290 1e-4 0.9e-4 0.39e-6 7.8e-7 hety
     6 2 7.8e-7 290 1e-4 1.1e-4 0.39e-6 7.8e-7 hetr
     7 1 7.8e-7 290 1e-4 1.3e-4 0.39e-6 7.8e-7 hety
     8 2 7.8e-7 290 1e-4 1.5e-4 0.39e-6 7.8e-7 hetr
     9 1 7.8e-7 290 1e-4 1.7e-4 0.39e-6 7.8e-7 hety
     10 2 7.8e-7 290 1e-4 1.9e-4 0.39e-6 7.8e-7 hetr

 Nutrients

     1 o2 l 3.13e-5 3.13e-5 3.13e-5 3.13e-5 3.13e-5 3.13e-5 3.13e-5
     2 h2o l 0 0 0 0 0 0 0

 Diffusion Coeffs
     
     o2 2e-9
     h2o 0 

 Ks
     
     hety 9.38e-6
     hetr 1.88e-5

 Growth

     hety 0.000381111
     hetr 0.001524167

 Yield
    
     hety 0.0598
     hetr 0.0299
  
 Catabolism Coeffs
         
    hety -1 1
    hetr -1 1

 Anabolism Coeffs
          
    hety 0 0
    hetr 0 0

 
 Nutrient Energy

    o2 inf 16.4 inf inf inf 2
    h2o inf -237.18 inf inf inf 2

 Type Energy

    hety inf -68 inf inf inf 2
    hetr inf -67 inf inf inf 2

 Dissipation

    hety 0
    hetr 0

