ITEM: TIMESTEP
0
ITEM: NUMBER OF ATOMS
10
ITEM: BOX BOUNDS ff ff ff
0.0000000000000000e+00 2.0000000000000001e-04
0.0000000000000000e+00 2.0000000000000001e-04
0.0000000000000000e+00 2.0000000000000001e-04
ITEM: ATOMS id type diameter x y z vx vy vz fx fy fz 
1 1 7.8e-07 0.0001 1e-05 3.9e-07 0 0 0 0 0 0 
2 2 7.8e-07 0.0001 3e-05 3.9e-07 0 0 0 0 0 0 
3 1 7.8e-07 0.0001 5e-05 3.9e-07 0 0 0 0 0 0 
4 2 7.8e-07 0.0001 7e-05 3.9e-07 0 0 0 0 0 0 
5 1 7.8e-07 0.0001 9e-05 3.9e-07 0 0 0 0 0 0 
6 2 7.8e-07 0.0001 0.00011 3.9e-07 0 0 0 0 0 0 
7 1 7.8e-07 0.0001 0.00013 3.9e-07 0 0 0 0 0 0 
8 2 7.8e-07 0.0001 0.00015 3.9e-07 0 0 0 0 0 0 
9 1 7.8e-07 0.0001 0.00017 3.9e-07 0 0 0 0 0 0 
10 2 7.8e-07 0.0001 0.00019 3.9e-07 0 0 0 0 0 0 
ITEM: TIMESTEP
1
ITEM: NUMBER OF ATOMS
10
ITEM: BOX BOUNDS ff ff ff
0.0000000000000000e+00 2.0000000000000001e-04
0.0000000000000000e+00 2.0000000000000001e-04
0.0000000000000000e+00 2.0000000000000001e-04
ITEM: ATOMS id type diameter x y z vx vy vz fx fy fz 
1 1 7.96079e-07 0.0001 1e-05 3.9e-07 0 0 2.77778e-12 0 0 1.60794e-05 
2 2 8.05787e-07 0.0001 3e-05 3.9e-07 0 0 2.77778e-12 0 0 2.57874e-05 
3 1 7.96079e-07 0.0001 5e-05 3.9e-07 0 0 2.77778e-12 0 0 1.60794e-05 
4 2 8.05787e-07 0.0001 7e-05 3.9e-07 0 0 2.77778e-12 0 0 2.57874e-05 
5 1 7.96079e-07 0.0001 9e-05 3.9e-07 0 0 2.77778e-12 0 0 1.60794e-05 
6 2 8.05787e-07 0.0001 0.00011 3.9e-07 0 0 2.77778e-12 0 0 2.57874e-05 
7 1 7.96079e-07 0.0001 0.00013 3.9e-07 0 0 2.77778e-12 0 0 1.60794e-05 
8 2 8.05787e-07 0.0001 0.00015 3.9e-07 0 0 2.77778e-12 0 0 2.57874e-05 
9 1 7.96079e-07 0.0001 0.00017 3.9e-07 0 0 2.77778e-12 0 0 1.60794e-05 
10 2 8.05787e-07 0.0001 0.00019 3.9e-07 0 0 2.77778e-12 0 0 2.57874e-05 
