ITEM: TIMESTEP
0
ITEM: NUMBER OF ATOMS
10
ITEM: BOX BOUNDS ff ff ff
0.0000000000000000e+00 2.0000000000000001e-04
0.0000000000000000e+00 2.0000000000000001e-04
0.0000000000000000e+00 2.0000000000000001e-04
ITEM: ATOMS id type diameter x y z vx vy vz fx fy fz 
1 1 7.8e-07 0.0001 1e-05 3.9e-07 0 0 0 0 0 0 
2 2 7.8e-07 0.0001 3e-05 3.9e-07 0 0 0 0 0 0 
3 1 7.8e-07 0.0001 5e-05 3.9e-07 0 0 0 0 0 0 
4 2 7.8e-07 0.0001 7e-05 3.9e-07 0 0 0 0 0 0 
5 1 7.8e-07 0.0001 9e-05 3.9e-07 0 0 0 0 0 0 
6 2 7.8e-07 0.0001 0.00011 3.9e-07 0 0 0 0 0 0 
7 1 7.8e-07 0.0001 0.00013 3.9e-07 0 0 0 0 0 0 
8 2 7.8e-07 0.0001 0.00015 3.9e-07 0 0 0 0 0 0 
9 1 7.8e-07 0.0001 0.00017 3.9e-07 0 0 0 0 0 0 
10 2 7.8e-07 0.0001 0.00019 3.9e-07 0 0 0 0 0 0 
ITEM: TIMESTEP
1
ITEM: NUMBER OF ATOMS
10
ITEM: BOX BOUNDS ff ff ff
0.0000000000000000e+00 2.0000000000000001e-04
0.0000000000000000e+00 2.0000000000000001e-04
0.0000000000000000e+00 2.0000000000000001e-04
ITEM: ATOMS id type diameter x y z vx vy vz fx fy fz 
1 1 7.96079e-07 0.0001 1e-05 3.9e-07 0 0 2.77778e-12 0 0 1.60794e-05 
2 2 8.05787e-07 0.0001 3e-05 3.9e-07 0 0 2.77778e-12 0 0 2.57874e-05 
3 1 7.96079e-07 0.0001 5e-05 3.9e-07 0 0 2.77778e-12 0 0 1.60794e-05 
4 2 8.05787e-07 0.0001 7e-05 3.9e-07 0 0 2.77778e-12 0 0 2.57874e-05 
5 1 7.96079e-07 0.0001 9e-05 3.9e-07 0 0 2.77778e-12 0 0 1.60794e-05 
6 2 8.05787e-07 0.0001 0.00011 3.9e-07 0 0 2.77778e-12 0 0 2.57874e-05 
7 1 7.96079e-07 0.0001 0.00013 3.9e-07 0 0 2.77778e-12 0 0 1.60794e-05 
8 2 8.05787e-07 0.0001 0.00015 3.9e-07 0 0 2.77778e-12 0 0 2.57874e-05 
9 1 7.96079e-07 0.0001 0.00017 3.9e-07 0 0 2.77778e-12 0 0 1.60794e-05 
10 2 8.05787e-07 0.0001 0.00019 3.9e-07 0 0 2.77778e-12 0 0 2.57874e-05 
ITEM: TIMESTEP
2
ITEM: NUMBER OF ATOMS
20
ITEM: BOX BOUNDS ff ff ff
0.0000000000000000e+00 2.0000000000000001e-04
0.0000000000000000e+00 2.0000000000000001e-04
0.0000000000000000e+00 2.0000000000000001e-04
ITEM: ATOMS id type diameter x y z vx vy vz fx fy fz 
1 1 6.01075e-07 0.000100064 9.76749e-06 3.45145e-07 5.94668e-13 -2.17308e-12 -1.62486e-12 1.14148e-12 -4.17129e-12 -3.11897e-12 
2 2 6.48521e-07 0.00010011 2.98055e-05 3.94865e-07 1.08149e-12 -1.90766e-12 -1.70507e-12 7.00797e-12 -1.23615e-11 -1.10487e-11 
3 1 6.79157e-07 0.00010032 5.02158e-05 4.70202e-07 0 0 -2.77778e-12 0 0 -2.77778e-13 
4 2 6.17991e-07 9.993e-05 6.98582e-05 7.43505e-07 -8.98585e-13 -1.8194e-12 1.89694e-12 -1.25441e-11 -2.53985e-11 2.64809e-11 
5 1 6.08923e-07 0.000100042 8.99915e-05 3.49651e-07 5.5264e-13 -1.10103e-13 -2.72002e-12 7.83108e-12 -1.5602e-12 -3.85436e-11 
6 2 6.38241e-07 0.000100051 0.00011 7.87244e-07 7.56911e-13 -2.25201e-15 2.67266e-12 1.48225e-11 -4.41009e-14 5.23385e-11 
7 1 6.36781e-07 9.99978e-05 0.000129792 3.65647e-07 -2.26389e-14 -2.12912e-12 -1.78393e-12 -1.65413e-13 -1.55566e-11 -1.30344e-11 
8 2 6.8541e-07 9.97936e-05 0.000150209 4.17324e-07 -1.74632e-12 1.76717e-12 -1.24239e-12 -4.81697e-12 4.87448e-12 -3.42697e-12 
9 1 6.51612e-07 9.98151e-05 0.000169868 6.99745e-07 -1.8341e-12 -1.30758e-12 1.62554e-12 -1.11506e-11 -7.94956e-12 9.88261e-12 
10 2 6.3206e-07 0.000100105 0.000190181 3.84846e-07 1.0576e-12 1.81401e-12 -1.81849e-12 6.78702e-12 1.16411e-11 -1.16699e-11 
11 1 6.83413e-07 9.99277e-05 1.02644e-05 6.83582e-07 -6.30714e-13 2.3048e-12 1.41639e-12 -1.14148e-12 4.17129e-12 2.56341e-12 
12 2 6.72432e-07 9.98857e-05 3.02016e-05 7.39984e-07 -1.10203e-12 1.9439e-12 1.6501e-12 -7.00797e-12 1.23615e-11 1.04932e-11 
13 1 6.06492e-07 9.97146e-05 4.98073e-05 3.48255e-07 0 0 -2.77778e-12 0 0 -2.77778e-13 
14 2 6.98491e-07 0.000100079 7.01603e-05 4.25289e-07 8.8983e-13 1.80168e-12 -1.91787e-12 1.25441e-11 2.53985e-11 -2.70364e-11 
15 1 6.77207e-07 9.99528e-05 9.00094e-05 7.87827e-07 -5.60382e-13 1.11646e-13 2.71837e-12 -7.83108e-12 1.5602e-12 3.7988e-11 
16 2 6.81714e-07 9.99459e-05 0.00011 4.15075e-07 -7.49543e-13 2.23009e-15 -2.67474e-12 -1.48225e-11 4.41009e-14 -5.28941e-11 
17 1 6.52764e-07 0.000100002 0.000130213 7.10692e-07 2.30387e-14 2.16672e-12 1.73806e-12 1.65413e-13 1.55566e-11 1.24789e-11 
18 2 6.3397e-07 0.000100191 0.000149807 6.77035e-07 1.80081e-12 -1.82231e-12 1.07347e-12 4.81697e-12 -4.87448e-12 2.87141e-12 
19 1 6.37989e-07 0.000100181 0.000170129 3.66341e-07 1.79884e-12 1.28244e-12 -1.68391e-12 1.11506e-11 7.94956e-12 -1.04382e-11 
20 2 6.87034e-07 9.98855e-05 0.000189804 7.53699e-07 -1.07932e-12 -1.85125e-12 1.76748e-12 -6.78702e-12 -1.16411e-11 1.11143e-11 
