  Granular Flow Simulation 

       20 atoms 
       5 atom types 
       5 nutrients

   0.000000      1.0E-04  xlo xhi
   0.000000      1.0E-04  ylo yhi
   0.000000      1.0E-05  zlo zhi

 Atoms

1	1	1.00E-006	150	5.00E-005	5.00E-005	5.00E-006	1.00E-006
2	2	1.00E-006	150	5.20E-005	5.00E-005	5.00E-006 	1.00E-006
3	3	1.00E-006	150	5.40E-005	5.00E-005	5.00E-006 	1.00E-006
4	4	1.00E-006	150	5.60E-005	5.00E-005	5.00E-006 	1.00E-006
5	5	1.00E-006	150	5.80E-005	5.00E-005	5.00E-006 	1.00E-006
6	1	1.00E-006	150	6.00E-005	5.00E-005	5.00E-006	1.00E-006
7	2	1.00E-006	150	6.20E-005	5.00E-005	5.00E-006 	1.00E-006
8	3	1.00E-006	150	6.40E-005	5.00E-005	5.00E-006 	1.00E-006
9	4	1.00E-006	150	6.60E-005	5.00E-005	5.00E-006	1.00E-006
10	5	1.00E-006	150	6.80E-005	5.00E-005	5.00E-006	1.00E-006
11	1	1.00E-006	150	7.00E-005	5.00E-005	5.00E-006 	1.00E-006
12	2	1.00E-006	150	7.20E-005	5.00E-005	5.00E-006	1.00E-006
13	3	1.00E-006	150	7.40E-005	5.00E-005	5.00E-006 	1.00E-006
14	4	1.00E-006	150	7.60E-005	5.00E-005	5.00E-006	1.00E-006
15	5	1.00E-006	150	7.80E-005	5.00E-005	5.00E-006 	1.00E-006
16	1	1.00E-006	150	8.00E-005	5.00E-005	5.00E-006 	1.00E-006
17	2	1.00E-006	150	8.20E-005	5.00E-005	5.00E-006 	1.00E-006
18	3	1.00E-006	150	8.40E-005	5.00E-005	5.00E-006	1.00E-006
19	4	1.00E-006	150	8.60E-005	5.00E-005	5.00E-006	1.00E-006
20	5	1.00E-006	150	8.80E-005	5.00E-005	5.00E-006	1.00E-006

 Nutrients

     1 sub l 1e-4 1e-4 1e-4 1e-4 1e-4 1e-4 1e-4
     2 o2 l 1e-4 1e-4 1e-4 1e-4 1e-4 1e-4 1e-4
     3 no2 l 1e-4 1e-4 1e-4 1e-4 1e-4 1e-4 1e-4
     4 no3 l 1e-4 1e-4 1e-4 1e-4 1e-4 1e-4 1e-4
     5 nh4 l 1e-4 1e-4 1e-4 1e-4 1e-4 1e-4 1e-4

 Diffusion Coeffs
    
     sub 1.6e-9
     o2 0
     no2 0
     no3 0
     nh4 0

 Type Name

     1 het
     2 aob
     3 nob
     4 eps
     5 dead

 Ks
     
     het 3.5e-5 0 0 0 0
     aob 0 0 0 0 0
     nob 0 0 0 0 0
     eps 0 0 0 0 0
     dead 0 0 0 0 0

Growth Rate

     het 0.000277778
     aob 0
     nob 0
     eps 0
     dead 0

 Yield
    
     het 0.61
     aob 0.33
     nob 0.083
     eps 0.18
     dead 0

 Maintenance
 
     het 0
     aob 0
     nob 0
     eps 0
     dead 0

 Decay

     het 0.000003694
     aob 0.00000127314
     nob 0.00000127314
     eps 0.00000196759
     dead 0


