ITEM: TIMESTEP
0
ITEM: NUMBER OF ATOMS
20
ITEM: BOX BOUNDS ff ff ff
0.0000000000000000e+00 1.0000000000000000e-04
0.0000000000000000e+00 1.0000000000000000e-04
0.0000000000000000e+00 1.0000000000000001e-05
ITEM: ATOMS id type diameter x y z 
1 1 1e-06 5e-05 5e-05 5e-06 
2 2 1e-06 5.2e-05 5e-05 5e-06 
3 3 1e-06 5.4e-05 5e-05 5e-06 
4 4 1e-06 5.6e-05 5e-05 5e-06 
5 5 1e-06 5.8e-05 5e-05 5e-06 
6 1 1e-06 6e-05 5e-05 5e-06 
7 2 1e-06 6.2e-05 5e-05 5e-06 
8 3 1e-06 6.4e-05 5e-05 5e-06 
9 4 1e-06 6.6e-05 5e-05 5e-06 
10 5 1e-06 6.8e-05 5e-05 5e-06 
11 1 1e-06 7e-05 5e-05 5e-06 
12 2 1e-06 7.2e-05 5e-05 5e-06 
13 3 1e-06 7.4e-05 5e-05 5e-06 
14 4 1e-06 7.6e-05 5e-05 5e-06 
15 5 1e-06 7.8e-05 5e-05 5e-06 
16 1 1e-06 8e-05 5e-05 5e-06 
17 2 1e-06 8.2e-05 5e-05 5e-06 
18 3 1e-06 8.4e-05 5e-05 5e-06 
19 4 1e-06 8.6e-05 5e-05 5e-06 
20 5 1e-06 8.8e-05 5e-05 5e-06 
