ITEM: TIMESTEP
0
ITEM: NUMBER OF ATOMS
122
ITEM: BOX BOUNDS ff ff ff
0.0000000000000000e+00 1.0000000000000000e-04
0.0000000000000000e+00 4.0000000000000003e-05
0.0000000000000000e+00 1.0000000000000000e-04
ITEM: ATOMS id type diameter x y z 
1 1 1e-06 5e-06 5e-06 1e-06 
41 2 1e-06 6e-06 5e-06 1e-06 
2 1 1e-06 1.5e-05 5e-06 1e-06 
42 2 1e-06 1.6e-05 5e-06 1e-06 
3 1 1e-06 2.5e-05 5e-06 1e-06 
43 2 1e-06 2.6e-05 5e-06 1e-06 
4 1 1e-06 3.5e-05 5e-06 1e-06 
44 2 1e-06 3.6e-05 5e-06 1e-06 
5 1 1e-06 4.5e-05 5e-06 1e-06 
45 2 1e-06 4.6e-05 5e-06 1e-06 
81 3 1e-06 6e-06 6e-06 1e-06 
82 3 1e-06 1.6e-05 6e-06 1e-06 
83 3 1e-06 2.6e-05 6e-06 1e-06 
84 3 1e-06 3.6e-05 6e-06 1e-06 
85 3 1e-06 4.6e-05 6e-06 1e-06 
11 1 1e-06 5e-06 1.5e-05 1e-06 
51 2 1e-06 6e-06 1.5e-05 1e-06 
12 1 1e-06 1.5e-05 1.5e-05 1e-06 
52 2 1e-06 1.6e-05 1.5e-05 1e-06 
13 1 1e-06 2.5e-05 1.5e-05 1e-06 
53 2 1e-06 2.6e-05 1.5e-05 1e-06 
14 1 1e-06 3.5e-05 1.5e-05 1e-06 
54 2 1e-06 3.6e-05 1.5e-05 1e-06 
15 1 1e-06 4.5e-05 1.5e-05 1e-06 
55 2 1e-06 4.6e-05 1.5e-05 1e-06 
91 3 1e-06 6e-06 1.6e-05 1e-06 
92 3 1e-06 1.6e-05 1.6e-05 1e-06 
93 3 1e-06 2.6e-05 1.6e-05 1e-06 
94 3 1e-06 3.6e-05 1.6e-05 1e-06 
95 3 1e-06 4.6e-05 1.6e-05 1e-06 
21 1 1e-06 5e-06 2.5e-05 1e-06 
61 2 1e-06 6e-06 2.5e-05 1e-06 
22 1 1e-06 1.5e-05 2.5e-05 1e-06 
62 2 1e-06 1.6e-05 2.5e-05 1e-06 
23 1 1e-06 2.5e-05 2.5e-05 1e-06 
63 2 1e-06 2.6e-05 2.5e-05 1e-06 
24 1 1e-06 3.5e-05 2.5e-05 1e-06 
64 2 1e-06 3.6e-05 2.5e-05 1e-06 
25 1 1e-06 4.5e-05 2.5e-05 1e-06 
65 2 1e-06 4.6e-05 2.5e-05 1e-06 
101 3 1e-06 6e-06 2.6e-05 1e-06 
102 3 1e-06 1.6e-05 2.6e-05 1e-06 
103 3 1e-06 2.6e-05 2.6e-05 1e-06 
104 3 1e-06 3.6e-05 2.6e-05 1e-06 
105 3 1e-06 4.6e-05 2.6e-05 1e-06 
31 1 1e-06 5e-06 3.5e-05 1e-06 
71 2 1e-06 6e-06 3.5e-05 1e-06 
32 1 1e-06 1.5e-05 3.5e-05 1e-06 
72 2 1e-06 1.6e-05 3.5e-05 1e-06 
33 1 1e-06 2.5e-05 3.5e-05 1e-06 
73 2 1e-06 2.6e-05 3.5e-05 1e-06 
34 1 1e-06 3.5e-05 3.5e-05 1e-06 
74 2 1e-06 3.6e-05 3.5e-05 1e-06 
35 1 1e-06 4.5e-05 3.5e-05 1e-06 
75 2 1e-06 4.6e-05 3.5e-05 1e-06 
111 3 1e-06 6e-06 3.6e-05 1e-06 
112 3 1e-06 1.6e-05 3.6e-05 1e-06 
113 3 1e-06 2.6e-05 3.6e-05 1e-06 
114 3 1e-06 3.6e-05 3.6e-05 1e-06 
115 3 1e-06 4.6e-05 3.6e-05 1e-06 
6 1 1e-06 5.5e-05 5e-06 1e-06 
46 2 1e-06 5.6e-05 5e-06 1e-06 
7 1 1e-06 6.5e-05 5e-06 1e-06 
47 2 1e-06 6.6e-05 5e-06 1e-06 
8 1 1e-06 7.5e-05 5e-06 1e-06 
48 2 1e-06 7.6e-05 5e-06 1e-06 
9 1 1e-06 8.5e-05 5e-06 1e-06 
49 2 1e-06 8.6e-05 5e-06 1e-06 
10 1 1e-06 9.5e-05 5e-06 1e-06 
50 2 1e-06 9.6e-05 5e-06 1e-06 
86 3 1e-06 5.6e-05 6e-06 1e-06 
87 3 1e-06 6.6e-05 6e-06 1e-06 
88 3 1e-06 7.6e-05 6e-06 1e-06 
89 3 1e-06 8.6e-05 6e-06 1e-06 
90 3 1e-06 9.6e-05 6e-06 1e-06 
16 1 1e-06 5.5e-05 1.5e-05 1e-06 
56 2 1e-06 5.6e-05 1.5e-05 1e-06 
17 1 1e-06 6.5e-05 1.5e-05 1e-06 
57 2 1e-06 6.6e-05 1.5e-05 1e-06 
18 1 1e-06 7.5e-05 1.5e-05 1e-06 
58 2 1e-06 7.6e-05 1.5e-05 1e-06 
19 1 1e-06 8.5e-05 1.5e-05 1e-06 
59 2 1e-06 8.6e-05 1.5e-05 1e-06 
20 1 1e-06 9.5e-05 1.5e-05 1e-06 
60 2 1e-06 9.6e-05 1.5e-05 1e-06 
96 3 1e-06 5.6e-05 1.6e-05 1e-06 
97 3 1e-06 6.6e-05 1.6e-05 1e-06 
98 3 1e-06 7.6e-05 1.6e-05 1e-06 
99 3 1e-06 8.6e-05 1.6e-05 1e-06 
100 3 1e-06 9.6e-05 1.6e-05 1e-06 
26 1 1e-06 5.5e-05 2.5e-05 1e-06 
66 2 1e-06 5.6e-05 2.5e-05 1e-06 
27 1 1e-06 6.5e-05 2.5e-05 1e-06 
67 2 1e-06 6.6e-05 2.5e-05 1e-06 
28 1 1e-06 7.5e-05 2.5e-05 1e-06 
68 2 1e-06 7.6e-05 2.5e-05 1e-06 
29 1 1e-06 8.5e-05 2.5e-05 1e-06 
69 2 1e-06 8.6e-05 2.5e-05 1e-06 
30 1 1e-06 9.5e-05 2.5e-05 1e-06 
70 2 1e-06 9.6e-05 2.5e-05 1e-06 
106 3 1e-06 5.6e-05 2.6e-05 1e-06 
107 3 1e-06 6.6e-05 2.6e-05 1e-06 
108 3 1e-06 7.6e-05 2.6e-05 1e-06 
109 3 1e-06 8.6e-05 2.6e-05 1e-06 
110 3 1e-06 9.6e-05 2.6e-05 1e-06 
36 1 1e-06 5.5e-05 3.5e-05 1e-06 
76 2 1e-06 5.6e-05 3.5e-05 1e-06 
37 1 1e-06 6.5e-05 3.5e-05 1e-06 
77 2 1e-06 6.6e-05 3.5e-05 1e-06 
38 1 1e-06 7.5e-05 3.5e-05 1e-06 
78 2 1e-06 7.6e-05 3.5e-05 1e-06 
39 1 1e-06 8.5e-05 3.5e-05 1e-06 
79 2 1e-06 8.6e-05 3.5e-05 1e-06 
122 5 1e-08 8.8e-05 3.5e-05 1e-06 
40 1 1e-06 9.5e-05 3.5e-05 1e-06 
80 2 1e-06 9.6e-05 3.5e-05 1e-06 
121 4 1e-08 9.8e-05 3.5e-05 1e-06 
116 3 1e-06 5.6e-05 3.6e-05 1e-06 
117 3 1e-06 6.6e-05 3.6e-05 1e-06 
118 3 1e-06 7.6e-05 3.6e-05 1e-06 
119 3 1e-06 8.6e-05 3.6e-05 1e-06 
120 3 1e-06 9.6e-05 3.6e-05 1e-06 
ITEM: TIMESTEP
10000
ITEM: NUMBER OF ATOMS
773
ITEM: BOX BOUNDS ff ff ff
0.0000000000000000e+00 1.0000000000000000e-04
0.0000000000000000e+00 4.0000000000000003e-05
0.0000000000000000e+00 1.0000000000000000e-04
ITEM: ATOMS id type diameter x y z 
251 4 8.37985e-07 3.51054e-05 3.61794e-06 4.23752e-07 
275 4 9.251e-07 4.98384e-06 4.84987e-06 4.6959e-07 
420 4 8.09687e-07 2.57519e-05 4.84099e-06 4.47727e-07 
231 4 8.71335e-07 4.58348e-05 4.64723e-06 4.39614e-07 
683 4 8.98473e-07 4.27809e-05 5.36982e-06 4.52533e-07 
549 4 8.70275e-07 1.43557e-05 5.76996e-06 4.63842e-07 
747 4 8.62127e-07 5.33529e-06 7.82572e-06 4.35872e-07 
685 4 9.50155e-07 1.32077e-05 1.41258e-05 4.82744e-07 
385 4 8.381e-07 3.51822e-05 1.44597e-05 4.24603e-07 
552 4 7.79072e-07 3.17018e-06 1.46811e-05 3.94907e-07 
252 4 8.29799e-07 5.88663e-06 1.45035e-05 4.17131e-07 
204 4 8.3286e-07 3.41152e-05 1.47149e-05 4.25221e-07 
319 4 8.94819e-07 4.37751e-05 1.47664e-05 4.57316e-07 
437 4 8.594e-07 3.04741e-06 1.54947e-05 4.44279e-07 
551 4 8.64473e-07 5.39891e-06 1.54125e-05 4.36541e-07 
593 4 9.62863e-07 2.26926e-05 1.58611e-05 4.93676e-07 
132 4 9.43188e-07 4.38421e-05 1.57786e-05 4.69732e-07 
128 4 9.88378e-07 4.71468e-06 1.61752e-05 4.9857e-07 
229 4 9.7847e-07 1.48727e-05 1.63903e-05 4.9728e-07 
163 1 1.34224e-06 4.83231e-06 3.737e-06 6.63296e-07 
167 1 1.16471e-06 4.40271e-05 3.76793e-06 7.46941e-07 
166 1 1.0914e-06 3.50899e-05 4.46003e-06 9.61331e-07 
611 1 1.18147e-06 4.27815e-05 4.32563e-06 5.90548e-07 
164 1 1.26786e-06 1.49626e-05 4.89114e-06 6.27754e-07 
42 2 9.80838e-07 1.61948e-05 4.70338e-06 5.74347e-07 
377 1 1.18209e-06 2.40374e-05 5.02047e-06 7.33495e-07 
691 4 8.13599e-07 2.61683e-05 5.49462e-06 9.44938e-07 
499 4 8.86153e-07 3.62404e-05 5.09399e-06 7.78536e-07 
481 4 9.67675e-07 6.23922e-06 5.87892e-06 5.9346e-07 
670 1 1.12403e-06 2.52009e-05 5.68029e-06 6.1125e-07 
754 1 1.15116e-06 3.45328e-05 5.64156e-06 5.81556e-07 
127 4 9.71043e-07 4.3968e-05 5.86525e-06 5.41078e-07 
582 1 1.172e-06 4.53676e-05 5.61197e-06 5.84344e-07 
1 1 1.19811e-06 4.34186e-06 6.23368e-06 6.52633e-07 
2 1 1.17304e-06 1.50896e-05 6.46312e-06 5.86987e-07 
254 4 8.86855e-07 3.54426e-05 6.42759e-06 6.97619e-07 
84 3 9.73138e-07 3.6277e-05 6.02714e-06 6.09652e-07 
85 3 9.73138e-07 4.63054e-05 6.34232e-06 7.82292e-07 
581 1 1.16957e-06 5.48621e-06 6.9383e-06 9.58032e-07 
440 4 9.69575e-07 2.54072e-05 6.84913e-06 8.70647e-07 
594 4 7.92863e-07 4.51889e-05 6.703e-06 6.71876e-07 
336 4 8.00159e-07 1.4275e-05 7.39312e-06 5.11597e-07 
493 4 1.04336e-06 1.5426e-05 7.63373e-06 5.29941e-07 
15 1 1.14467e-06 4.60786e-05 1.39908e-05 5.70826e-07 
232 4 8.76543e-07 1.51238e-05 1.44266e-05 8.93267e-07 
287 1 1.12162e-06 4.4699e-05 1.40246e-05 5.47943e-07 
51 2 9.8084e-07 6.68274e-06 1.4592e-05 8.79689e-07 
541 1 1.23792e-06 1.41137e-05 1.47368e-05 7.72752e-07 
129 4 9.6156e-07 1.596e-05 1.45209e-05 5.19253e-07 
13 1 1.36395e-06 2.33557e-05 1.49441e-05 6.74089e-07 
53 2 9.80843e-07 2.69331e-05 1.47801e-05 7.30052e-07 
12 1 1.13664e-06 1.53191e-05 1.53898e-05 6.33987e-07 
632 4 1.02922e-06 3.56277e-05 1.53937e-05 5.40216e-07 
439 4 1.02949e-06 4.47098e-05 1.52938e-05 5.22339e-07 
621 1 1.17806e-06 4.57673e-05 1.53596e-05 8.17746e-07 
366 4 1.06539e-06 2.48204e-05 1.55342e-05 5.3824e-07 
722 1 1.13299e-06 2.6391e-05 1.58076e-05 5.60232e-07 
406 1 1.29243e-06 3.45038e-05 1.57275e-05 6.45525e-07 
91 3 9.73139e-07 6.17771e-06 1.64565e-05 9.33796e-07 
311 1 1.33975e-06 1.33324e-05 1.61837e-05 6.64792e-07 
92 3 9.73138e-07 1.60858e-05 1.62202e-05 9.02199e-07 
93 3 9.7314e-07 2.65291e-05 1.68936e-05 9.43021e-07 
473 4 8.23066e-07 5.7711e-06 3.84751e-06 1.22007e-06 
509 4 1.00194e-06 3.42358e-05 3.95852e-06 1.3153e-06 
335 4 1.0492e-06 1.40951e-05 4.17675e-06 1.29459e-06 
267 4 8.75072e-07 2.50808e-05 4.07028e-06 1.38831e-06 
44 2 9.80838e-07 3.61791e-05 4.31237e-06 1.28593e-06 
361 1 1.29372e-06 4.52337e-05 4.36533e-06 1.33666e-06 
474 4 8.23686e-07 4.71909e-06 4.81423e-06 1.306e-06 
682 4 9.69982e-07 5.68622e-06 4.76342e-06 1.19197e-06 
346 4 7.7487e-07 3.68086e-05 4.9185e-06 1.37132e-06 
688 4 1.02408e-06 3.92294e-06 5.28291e-06 1.38655e-06 
81 3 9.73138e-07 6.29306e-06 5.46519e-06 1.46953e-06 
337 4 8.2894e-07 1.41732e-05 5.30261e-06 1.20321e-06 
684 4 8.9626e-07 2.30974e-05 5.33385e-06 1.15116e-06 
45 2 9.80838e-07 4.62507e-05 5.05892e-06 1.16834e-06 
482 4 8.28904e-07 5.40273e-06 5.76877e-06 1.02357e-06 
82 3 9.73138e-07 1.58864e-05 5.64738e-06 1.00003e-06 
228 4 9.25083e-07 4.41223e-05 5.78887e-06 1.47733e-06 
738 1 1.18766e-06 1.38065e-05 6.3363e-06 1.18836e-06 
438 4 8.27985e-07 2.41523e-05 6.06346e-06 1.3601e-06 
461 4 9.25634e-07 1.45391e-05 1.37657e-05 1.15751e-06 
130 4 9.25958e-07 2.49852e-05 1.36559e-05 1.31202e-06 
388 4 9.74519e-07 3.49266e-05 1.37795e-05 1.37689e-06 
283 1 1.11946e-06 3.63125e-06 1.46336e-05 1.29002e-06 
54 2 9.80837e-07 3.66107e-05 1.47474e-05 1.43642e-06 
462 4 7.927e-07 1.29092e-05 1.53443e-05 1.16446e-06 
52 2 9.80838e-07 1.62013e-05 1.50428e-05 1.30223e-06 
405 1 1.07412e-06 2.49702e-05 1.51686e-05 1.1227e-06 
511 4 8.53801e-07 3.42671e-05 1.50893e-05 1.4755e-06 
55 2 9.80843e-07 4.69486e-05 1.54297e-05 1.03912e-06 
630 4 1.00845e-06 2.73581e-05 1.59193e-05 1.16629e-06 
441 4 8.99481e-07 3.89967e-06 1.61073e-05 1.1685e-06 
554 4 8.64473e-07 4.76844e-06 1.62378e-05 1.42783e-06 
206 4 9.50035e-07 2.41333e-05 1.6125e-05 1.08574e-06 
637 4 9.88696e-07 2.51486e-05 1.6133e-05 1.47921e-06 
94 3 9.73138e-07 3.55188e-05 1.60914e-05 1.24229e-06 
635 4 9.95357e-07 4.32754e-05 1.60638e-05 1.21166e-06 
95 3 9.73138e-07 4.57709e-05 1.64973e-05 1.17271e-06 
321 4 1.01701e-06 3.54617e-05 1.7101e-05 1.30543e-06 
687 4 8.19122e-07 4.42472e-05 3.61271e-06 1.85272e-06 
766 1 1.03367e-06 4.05282e-06 4.28678e-06 1.70411e-06 
41 2 9.80838e-07 5.17167e-06 4.19453e-06 1.81504e-06 
734 1 1.18873e-06 1.59094e-05 4.70675e-06 1.73116e-06 
418 4 9.27723e-07 2.41963e-05 4.76685e-06 1.78758e-06 
417 4 9.29023e-07 4.41367e-05 4.65058e-06 1.5036e-06 
165 1 1.28443e-06 2.56935e-05 5.31105e-06 1.92128e-06 
348 4 8.7029e-07 3.37186e-05 5.3935e-06 1.75478e-06 
124 4 9.58787e-07 1.57087e-05 5.73665e-06 1.9427e-06 
365 4 9.58558e-07 3.46039e-05 5.66196e-06 1.697e-06 
288 1 1.36048e-06 3.60269e-05 5.51132e-06 1.80988e-06 
598 4 7.99711e-07 4.49708e-05 5.60074e-06 1.63316e-06 
276 4 9.82998e-07 5.90739e-06 6.31821e-06 1.7411e-06 
83 3 9.73139e-07 2.49974e-05 6.29076e-06 1.57241e-06 
268 4 9.30764e-07 2.58872e-05 6.40787e-06 1.9317e-06 
746 4 8.38257e-07 4.1228e-06 6.85311e-06 1.52088e-06 
672 1 1.13983e-06 1.60657e-05 6.65346e-06 1.59114e-06 
5 1 1.18445e-06 4.55069e-05 6.53252e-06 1.67869e-06 
727 4 8.76322e-07 2.62622e-05 7.7769e-06 1.95816e-06 
671 1 1.17813e-06 4.45099e-05 1.39725e-05 1.9349e-06 
253 4 9.77627e-07 4.41251e-06 1.40016e-05 1.87181e-06 
387 4 9.86322e-07 5.83906e-06 1.42207e-05 1.52367e-06 
755 1 1.12205e-06 1.55246e-05 1.4302e-05 1.87393e-06 
203 4 8.87175e-07 2.2961e-05 1.43995e-05 1.5844e-06 
770 1 1.10419e-06 2.41969e-05 1.42956e-05 1.71758e-06 
550 4 9.86985e-07 4.3432e-05 1.40134e-05 1.94046e-06 
542 1 1.24878e-06 2.24656e-06 1.48791e-05 1.57107e-06 
170 1 1.16449e-06 2.6093e-05 1.49139e-05 1.568e-06 
14 1 1.33884e-06 3.53438e-05 1.48832e-05 1.56732e-06 
219 4 8.73141e-07 4.64491e-05 1.48397e-05 1.69385e-06 
489 1 1.29684e-06 5.89552e-06 1.53697e-05 1.52501e-06 
686 4 8.61382e-07 1.43689e-05 1.54235e-05 1.53331e-06 
595 4 9.81796e-07 2.42381e-05 1.57135e-05 1.96803e-06 
320 4 8.80833e-07 4.63682e-05 1.59166e-05 1.57994e-06 
739 1 1.06849e-06 3.39408e-05 1.60242e-05 1.93129e-06 
615 4 9.23397e-07 1.35739e-05 1.69115e-05 1.50402e-06 
386 4 9.0871e-07 2.5885e-05 1.67375e-05 1.6097e-06 
220 4 9.08092e-07 4.37137e-05 1.66992e-05 1.84556e-06 
596 4 8.88522e-07 1.54861e-05 1.71031e-05 1.96142e-06 
457 1 1.25921e-06 3.54572e-05 4.12262e-06 2.29346e-06 
555 4 9.29405e-07 4.56179e-05 4.17022e-06 2.36615e-06 
553 4 1.07595e-06 1.44739e-05 4.88463e-06 2.01593e-06 
433 1 1.07855e-06 1.71398e-05 4.70587e-06 2.24537e-06 
125 4 1.01031e-06 2.48891e-05 4.58053e-06 2.48201e-06 
629 4 9.53892e-07 4.46223e-05 4.81403e-06 2.30133e-06 
299 1 1.35613e-06 5.17769e-06 5.45283e-06 2.08167e-06 
512 4 8.68758e-07 3.42406e-05 5.03438e-06 2.36166e-06 
419 4 8.06067e-07 4.39224e-05 5.40353e-06 2.33039e-06 
312 1 1.33845e-06 2.43583e-05 5.66323e-06 2.47879e-06 
347 4 8.00324e-07 4.47872e-05 5.65255e-06 2.4435e-06 
345 4 9.22702e-07 4.59194e-05 5.71859e-06 2.22701e-06 
583 1 1.11257e-06 2.4751e-05 7.024e-06 2.38587e-06 
597 4 1.06396e-06 1.59918e-05 1.32748e-05 2.28423e-06 
389 4 8.78979e-07 2.51844e-05 1.43957e-05 2.30715e-06 
689 4 9.20466e-07 3.75461e-05 1.47679e-05 2.32435e-06 
510 4 9.9471e-07 4.55533e-05 1.4712e-05 2.01188e-06 
168 1 1.31587e-06 4.57424e-06 1.5039e-05 2.33709e-06 
131 4 9.20413e-07 3.46272e-05 1.52414e-05 2.35913e-06 
469 1 1.36869e-06 4.3446e-05 1.51775e-05 2.08511e-06 
638 4 8.23907e-07 3.93863e-06 1.59047e-05 2.29178e-06 
378 1 1.33727e-06 1.55007e-05 1.58861e-05 2.02542e-06 
301 1 1.03996e-06 2.52808e-05 1.55724e-05 2.36703e-06 
205 4 9.50911e-07 3.5791e-05 1.58232e-05 2.11991e-06 
633 4 9.97254e-07 4.43097e-05 1.59961e-05 2.13925e-06 
172 1 1.29812e-06 4.54441e-05 1.58381e-05 2.16532e-06 
622 1 1.14969e-06 3.64438e-06 1.6913e-05 2.35619e-06 
171 1 1.18776e-06 3.5111e-05 1.66333e-05 2.24483e-06 
407 1 1.16867e-06 4.61581e-06 3.92239e-06 2.81023e-06 
123 4 1.02304e-06 5.60683e-06 3.58389e-06 2.50211e-06 
126 4 9.97673e-07 3.40725e-05 4.11672e-06 2.50669e-06 
227 4 8.1915e-07 1.53252e-05 4.97364e-06 2.56328e-06 
631 4 8.84677e-07 2.54585e-05 5.30991e-06 2.97991e-06 
230 4 8.82445e-07 1.48047e-05 5.65788e-06 2.70235e-06 
295 1 1.0596e-06 1.39227e-05 6.19411e-06 2.54336e-06 
43 2 9.80839e-07 2.5458e-05 6.21882e-06 2.78174e-06 
4 1 1.18937e-06 3.50049e-05 6.34148e-06 2.51554e-06 
726 4 8.63226e-07 2.38835e-05 6.62026e-06 2.73575e-06 
3 1 1.25342e-06 2.57346e-05 7.83485e-06 2.95117e-06 
556 4 9.01804e-07 2.26765e-06 1.49382e-05 2.78207e-06 
535 1 1.26656e-06 3.64459e-05 1.50517e-05 2.63199e-06 
11 1 1.17092e-06 2.75436e-06 1.5874e-05 2.51805e-06 
616 4 1.024e-06 4.19664e-06 3.01248e-06 3.29341e-06 
331 1 1.31355e-06 4.55216e-05 5.05676e-06 3.03484e-06 
505 1 1.24069e-06 3.41173e-05 5.53116e-06 3.37511e-06 
513 4 1.0118e-06 1.47695e-05 6.65488e-06 3.09405e-06 
690 4 7.77428e-07 3.56058e-05 1.34415e-05 3.03067e-06 
300 1 1.13073e-06 3.65307e-05 1.37801e-05 3.25151e-06 
169 1 1.10762e-06 1.60764e-05 1.44436e-05 3.04331e-06 
367 4 1.05391e-06 1.51693e-05 1.51205e-05 3.32173e-06 
514 4 1.00085e-06 3.46737e-05 1.64424e-05 3.37006e-06 
634 4 1.0023e-06 2.43943e-05 5.68094e-06 3.6596e-06 
636 4 7.9529e-07 2.58958e-06 1.56812e-05 3.50483e-06 
756 1 1.18247e-06 2.54382e-05 1.58119e-05 3.66835e-06 
500 4 1.10319e-06 3.41457e-05 6.49011e-06 4.05271e-06 
255 4 8.37985e-07 3.51088e-05 2.36191e-05 4.19472e-07 
695 4 9.05607e-07 2.29318e-05 2.40703e-05 4.5742e-07 
277 4 9.251e-07 5.06581e-06 2.49229e-05 4.67396e-07 
237 4 8.71335e-07 4.58154e-05 2.45701e-05 4.33229e-07 
424 4 8.09687e-07 2.5488e-05 2.50483e-05 4.09537e-07 
557 4 8.70275e-07 1.4612e-05 2.55504e-05 4.38963e-07 
339 4 8.00159e-07 1.41662e-05 2.74724e-05 4.23183e-07 
749 4 8.62127e-07 5.38494e-06 2.77328e-05 4.36886e-07 
560 4 7.79072e-07 3.23805e-06 3.47531e-05 3.94916e-07 
256 4 8.29799e-07 5.87416e-06 3.45493e-05 4.21494e-07 
208 4 8.3286e-07 3.39047e-05 3.45287e-05 4.28497e-07 
390 4 8.381e-07 3.5118e-05 3.47277e-05 4.26514e-07 
322 4 8.94822e-07 4.37955e-05 3.46916e-05 4.52042e-07 
559 4 8.64474e-07 5.4627e-06 3.54638e-05 4.38862e-07 
442 4 8.594e-07 3.05397e-06 3.55653e-05 4.47659e-07 
599 4 9.62733e-07 2.2943e-05 3.57809e-05 4.85124e-07 
142 4 9.43188e-07 4.38499e-05 3.56328e-05 4.80237e-07 
138 4 9.88378e-07 4.71356e-06 3.61521e-05 4.99097e-07 
235 4 9.7847e-07 1.48736e-05 3.63563e-05 4.92747e-07 
173 1 1.34224e-06 5.04346e-06 2.38129e-05 6.77227e-07 
176 1 1.09139e-06 3.50757e-05 2.44552e-05 9.78262e-07 
612 1 1.18147e-06 4.2742e-05 2.43939e-05 5.87538e-07 
174 1 1.26785e-06 1.53335e-05 2.48132e-05 6.28033e-07 
501 4 8.86152e-07 3.60839e-05 2.48651e-05 7.28428e-07 
694 4 8.97375e-07 4.16739e-05 2.47285e-05 7.99338e-07 
673 1 1.12399e-06 2.43352e-05 2.51967e-05 5.55584e-07 
693 4 8.85775e-07 4.39571e-05 2.50008e-05 5.08606e-07 
483 4 9.67674e-07 6.2301e-06 2.57653e-05 6.89186e-07 
102 3 9.73138e-07 1.56778e-05 2.59832e-05 9.00214e-07 
443 4 8.27985e-07 2.33553e-05 2.57253e-05 6.603e-07 
757 1 1.15115e-06 3.44823e-05 2.56134e-05 5.74297e-07 
137 4 9.71043e-07 4.39412e-05 2.5932e-05 5.58505e-07 
585 1 1.172e-06 4.59284e-05 2.56393e-05 5.78506e-07 
21 1 1.19811e-06 4.39367e-06 2.61377e-05 6.63794e-07 
642 4 1.02509e-06 2.40164e-05 2.63813e-05 5.10137e-07 
258 4 8.86855e-07 3.54443e-05 2.6428e-05 6.97163e-07 
104 3 9.73138e-07 3.6332e-05 2.61548e-05 7.52313e-07 
584 1 1.16957e-06 5.55757e-06 2.68259e-05 9.61879e-07 
22 1 1.17303e-06 1.46358e-05 2.65501e-05 6.65901e-07 
600 4 7.92863e-07 4.52563e-05 2.66503e-05 6.44563e-07 
105 3 9.73138e-07 4.64315e-05 2.66933e-05 8.35563e-07 
494 4 1.04336e-06 1.52554e-05 2.75384e-05 5.25537e-07 
289 1 1.12162e-06 4.48731e-05 3.39766e-05 5.63204e-07 
35 1 1.14467e-06 4.62491e-05 3.39783e-05 6.03247e-07 
238 4 8.76543e-07 1.5114e-05 3.43108e-05 9.27638e-07 
139 4 9.6156e-07 1.59573e-05 3.44349e-05 5.02198e-07 
71 2 9.80839e-07 6.59118e-06 3.46964e-05 9.87207e-07 
543 1 1.23792e-06 1.3856e-05 3.46157e-05 7.68849e-07 
33 1 1.36381e-06 2.36446e-05 3.48197e-05 6.74335e-07 
73 2 9.80841e-07 2.67785e-05 3.45179e-05 8.77994e-07 
75 2 9.80844e-07 4.68616e-05 3.49539e-05 8.44345e-07 
32 1 1.13664e-06 1.50541e-05 3.53347e-05 7.5059e-07 
369 4 1.06539e-06 2.50546e-05 3.54969e-05 5.32632e-07 
34 1 1.33888e-06 3.60319e-05 3.51126e-05 8.71853e-07 
409 1 1.29247e-06 3.40929e-05 3.55564e-05 6.38659e-07 
444 4 1.02949e-06 4.48371e-05 3.55019e-05 5.14262e-07 
111 3 9.73139e-07 6.31929e-06 3.63901e-05 8.93213e-07 
313 1 1.33971e-06 1.33404e-05 3.61366e-05 6.64695e-07 
112 3 9.73138e-07 1.59859e-05 3.60325e-05 8.84041e-07 
114 3 9.73138e-07 3.52049e-05 3.60977e-05 9.54418e-07 
115 3 9.73138e-07 4.58742e-05 3.63403e-05 9.11404e-07 
475 4 8.23066e-07 6.05747e-06 2.37224e-05 1.04619e-06 
735 1 1.18873e-06 1.51912e-05 2.35511e-05 1.39402e-06 
269 4 8.75072e-07 2.50368e-05 2.38875e-05 1.334e-06 
515 4 1.00194e-06 3.42296e-05 2.38455e-05 1.3079e-06 
177 1 1.16472e-06 4.39129e-05 2.37939e-05 1.02646e-06 
476 4 8.23686e-07 4.27731e-06 2.44849e-05 1.2888e-06 
338 4 1.0492e-06 1.41183e-05 2.42737e-05 1.14898e-06 
64 2 9.80837e-07 3.61127e-05 2.41112e-05 1.28092e-06 
692 4 9.69982e-07 5.01494e-06 2.49894e-05 1.43635e-06 
62 2 9.80838e-07 1.65087e-05 2.46274e-05 1.0533e-06 
379 1 1.18207e-06 2.32772e-05 2.46933e-05 1.22211e-06 
701 4 8.1355e-07 2.51496e-05 2.47983e-05 1.10558e-06 
350 4 7.7487e-07 3.67432e-05 2.47201e-05 1.23874e-06 
362 1 1.29372e-06 4.50955e-05 2.45915e-05 1.24624e-06 
65 2 9.80838e-07 4.64291e-05 2.46035e-05 1.13957e-06 
340 4 8.2894e-07 1.43515e-05 2.52022e-05 1.38632e-06 
484 4 8.28904e-07 5.43095e-06 2.57341e-05 1.12426e-06 
103 3 9.73138e-07 2.51105e-05 2.56868e-05 1.15556e-06 
270 4 9.30764e-07 2.61697e-05 2.60015e-05 1.42307e-06 
445 4 9.69575e-07 2.54566e-05 2.66124e-05 1.09643e-06 
140 4 9.25958e-07 2.51154e-05 3.33955e-05 1.23569e-06 
463 4 9.25634e-07 1.44871e-05 3.37725e-05 1.30392e-06 
393 4 9.7452e-07 3.47809e-05 3.37298e-05 1.34902e-06 
284 1 1.11945e-06 3.67638e-06 3.45988e-05 1.30977e-06 
408 1 1.07409e-06 2.48718e-05 3.4634e-05 1.49368e-06 
464 4 7.927e-07 1.28915e-05 3.52967e-05 1.16683e-06 
72 2 9.80838e-07 1.60339e-05 3.5008e-05 1.29306e-06 
623 1 1.17806e-06 4.57105e-05 3.51655e-05 1.13345e-06 
723 1 1.13301e-06 2.67718e-05 3.56379e-05 1.10793e-06 
323 4 8.80835e-07 4.6575e-05 3.57942e-05 1.17998e-06 
446 4 8.99481e-07 3.97398e-06 3.6144e-05 1.22099e-06 
562 4 8.64474e-07 4.83856e-06 3.6214e-05 1.42191e-06 
210 4 9.50035e-07 2.38876e-05 3.62071e-05 1.20705e-06 
645 4 9.95358e-07 4.33603e-05 3.60448e-05 1.22076e-06 
113 3 9.73139e-07 2.64263e-05 3.67401e-05 1.0357e-06 
324 4 1.01701e-06 3.54262e-05 3.69612e-05 1.38481e-06 
767 1 1.03367e-06 4.07077e-06 2.35647e-05 1.68419e-06 
434 1 1.07849e-06 1.63975e-05 2.38977e-05 1.90705e-06 
61 2 9.80838e-07 5.71694e-06 2.43428e-05 1.63561e-06 
233 4 8.1915e-07 1.51901e-05 2.49925e-05 1.87221e-06 
422 4 9.27723e-07 2.40683e-05 2.45764e-05 1.92972e-06 
175 1 1.28438e-06 2.58869e-05 2.49925e-05 1.82248e-06 
421 4 9.29023e-07 4.40478e-05 2.45836e-05 1.87855e-06 
698 4 1.02408e-06 3.88299e-06 2.53122e-05 1.51333e-06 
101 3 9.73138e-07 6.13504e-06 2.53721e-05 1.59009e-06 
639 4 9.46478e-07 2.47651e-05 2.52306e-05 1.92233e-06 
352 4 8.7029e-07 3.38601e-05 2.52781e-05 1.85195e-06 
290 1 1.36046e-06 3.59957e-05 2.53385e-05 1.7463e-06 
640 4 8.99383e-07 4.59024e-05 2.52756e-05 1.55474e-06 
741 1 1.06475e-06 1.33103e-05 2.55778e-05 1.71748e-06 
134 4 9.58787e-07 1.57845e-05 2.56535e-05 1.80205e-06 
368 4 9.58558e-07 3.47123e-05 2.56634e-05 1.71008e-06 
234 4 9.25083e-07 4.41838e-05 2.58333e-05 1.50483e-06 
604 4 7.99711e-07 4.50036e-05 2.55779e-05 1.64168e-06 
278 4 9.82998e-07 5.73737e-06 2.62437e-05 1.84915e-06 
314 1 1.33839e-06 2.39838e-05 2.6054e-05 1.65906e-06 
25 1 1.18445e-06 4.55954e-05 2.64845e-05 1.68147e-06 
748 4 8.38257e-07 4.17164e-06 2.67592e-05 1.53401e-06 
675 1 1.13981e-06 1.54443e-05 2.66796e-05 1.8219e-06 
257 4 9.77627e-07 4.41822e-06 3.39878e-05 1.95071e-06 
674 1 1.17813e-06 4.44269e-05 3.36922e-05 1.84382e-06 
392 4 9.86322e-07 5.82818e-06 3.4207e-05 1.52897e-06 
758 1 1.12204e-06 1.56715e-05 3.40586e-05 1.84822e-06 
207 4 8.87175e-07 2.30559e-05 3.43829e-05 1.53782e-06 
74 2 9.8084e-07 3.64087e-05 3.44071e-05 1.89532e-06 
558 4 9.86986e-07 4.34363e-05 3.41219e-05 1.66315e-06 
544 1 1.24878e-06 2.32219e-06 3.49422e-05 1.54346e-06 
696 4 9.3814e-07 1.30676e-05 3.45206e-05 1.63023e-06 
697 4 7.99378e-07 1.52011e-05 3.49935e-05 1.65797e-06 
180 1 1.16446e-06 2.59259e-05 3.47477e-05 1.62914e-06 
517 4 8.53816e-07 3.41217e-05 3.49054e-05 1.50868e-06 
643 4 1.10998e-06 2.45544e-05 3.54765e-05 1.51272e-06 
221 4 8.73141e-07 4.63752e-05 3.52144e-05 1.9223e-06 
490 1 1.29683e-06 6.18072e-06 3.55449e-05 1.84811e-06 
209 4 9.50911e-07 3.55587e-05 3.60975e-05 1.84645e-06 
182 1 1.29812e-06 4.51529e-05 3.62903e-05 1.94236e-06 
617 4 9.234e-07 1.35789e-05 3.68602e-05 1.50262e-06 
391 4 9.0871e-07 2.57264e-05 3.66877e-05 1.65949e-06 
740 1 1.19193e-06 3.43575e-05 3.67481e-05 1.53184e-06 
602 4 8.88526e-07 1.55125e-05 3.70087e-05 1.95289e-06 
133 4 1.02304e-06 5.75936e-06 2.35935e-05 2.32625e-06 
458 1 1.2592e-06 3.53618e-05 2.39847e-05 2.27569e-06 
561 4 1.07595e-06 1.45746e-05 2.42057e-05 2.18799e-06 
518 4 8.68758e-07 3.39513e-05 2.43865e-05 2.03791e-06 
563 4 9.29405e-07 4.55497e-05 2.42533e-05 2.19772e-06 
423 4 8.06067e-07 4.40035e-05 2.5384e-05 2.24006e-06 
63 2 9.80838e-07 2.63994e-05 2.59886e-05 2.35103e-06 
351 4 8.00324e-07 4.4779e-05 2.5536e-05 2.41793e-06 
349 4 9.22702e-07 4.60256e-05 2.57469e-05 2.32463e-06 
296 1 1.18355e-06 1.41267e-05 2.64768e-05 2.31131e-06 
586 1 1.11239e-06 2.53157e-05 2.62248e-05 2.11172e-06 
24 1 1.18935e-06 3.52354e-05 2.64095e-05 2.47563e-06 
729 4 8.76183e-07 2.63031e-05 2.69799e-05 2.08088e-06 
603 4 1.06397e-06 1.60292e-05 3.31329e-05 2.25801e-06 
771 1 1.10416e-06 2.40985e-05 3.3761e-05 2.08854e-06 
516 4 9.94711e-07 4.56002e-05 3.46531e-05 2.2026e-06 
178 1 1.31586e-06 4.72958e-06 3.50611e-05 2.25697e-06 
141 4 9.20413e-07 3.45374e-05 3.52611e-05 2.33135e-06 
641 4 9.26615e-07 3.59058e-05 3.52291e-05 2.02558e-06 
470 1 1.36869e-06 4.38038e-05 3.53084e-05 2.06441e-06 
648 4 8.23897e-07 4.1079e-06 3.59188e-05 2.3698e-06 
380 1 1.33726e-06 1.55313e-05 3.59072e-05 2.10399e-06 
601 4 9.81755e-07 2.45684e-05 3.59963e-05 2.44886e-06 
647 4 9.8865e-07 2.56512e-05 3.58043e-05 2.0059e-06 
222 4 9.08092e-07 4.36906e-05 3.64565e-05 2.01357e-06 
624 1 1.14968e-06 3.72523e-06 3.68844e-05 2.39247e-06 
410 1 1.16867e-06 4.76297e-06 2.36296e-05 2.77344e-06 
135 4 1.01031e-06 2.49011e-05 2.45306e-05 2.62774e-06 
136 4 9.97673e-07 3.44351e-05 2.45979e-05 2.82476e-06 
302 1 1.35613e-06 5.32189e-06 2.51481e-05 2.54496e-06 
236 4 8.82445e-07 1.49808e-05 2.58128e-05 2.7185e-06 
728 4 8.63052e-07 2.43995e-05 2.55604e-05 2.72788e-06 
394 4 8.78979e-07 2.52463e-05 3.40567e-05 2.63052e-06 
699 4 9.20485e-07 3.67477e-05 3.42964e-05 2.78135e-06 
564 4 9.01804e-07 2.31634e-06 3.49712e-05 2.75816e-06 
536 1 1.2666e-06 3.55943e-05 3.45377e-05 2.82374e-06 
304 1 1.03994e-06 2.51779e-05 3.51411e-05 2.63261e-06 
31 1 1.17091e-06 2.75107e-06 3.59216e-05 2.54343e-06 
181 1 1.06339e-06 3.43607e-05 3.6247e-05 2.79014e-06 
519 4 1.01584e-06 3.53073e-05 3.6666e-05 2.98932e-06 
618 4 1.024e-06 4.10246e-06 2.28337e-05 3.30368e-06 
332 1 1.31355e-06 4.55014e-05 2.50489e-05 3.02887e-06 
506 1 1.24058e-06 3.43396e-05 2.56227e-05 3.32003e-06 
520 4 9.96885e-07 1.388e-05 2.63036e-05 3.41066e-06 
23 1 1.25331e-06 2.60188e-05 2.68894e-05 3.121e-06 
700 4 7.77444e-07 3.51839e-05 3.30589e-05 3.14346e-06 
303 1 1.13086e-06 3.61417e-05 3.33404e-05 3.38864e-06 
179 1 1.10762e-06 1.61034e-05 3.43806e-05 3.0383e-06 
370 4 1.05391e-06 1.52412e-05 3.50031e-05 3.27066e-06 
644 4 9.75338e-07 4.51979e-05 3.58406e-05 3.04065e-06 
759 1 1.18244e-06 2.54217e-05 3.5413e-05 3.89923e-06 
646 4 7.9528e-07 2.64111e-06 3.57303e-05 3.55185e-06 
502 4 1.10319e-06 3.42873e-05 2.65405e-05 4.07216e-06 
259 4 8.37985e-07 8.50601e-05 3.5954e-06 4.22189e-07 
495 4 8.74864e-07 6.64105e-05 4.42471e-06 4.99055e-07 
371 4 9.69016e-07 8.39759e-05 4.1602e-06 4.9637e-07 
342 4 9.46268e-07 6.466e-05 4.62585e-06 4.77521e-07 
243 4 8.71335e-07 9.58052e-05 4.7813e-06 4.51935e-07 
703 4 8.46214e-07 6.5897e-05 5.44282e-06 4.93438e-07 
702 4 8.50704e-07 6.42491e-05 6.14888e-06 4.31603e-07 
485 4 8.70102e-07 5.48971e-05 7.23933e-06 4.46809e-07 
566 4 9.71732e-07 9.43436e-05 1.39973e-05 4.90969e-07 
260 4 8.29799e-07 5.58937e-05 1.4453e-05 4.27082e-07 
465 4 9.28885e-07 6.47074e-05 1.47497e-05 4.71018e-07 
212 4 8.3286e-07 8.39722e-05 1.45391e-05 4.23775e-07 
325 4 8.94819e-07 9.37168e-05 1.47414e-05 4.53718e-07 
447 4 9.51292e-07 5.33204e-05 1.53754e-05 4.81828e-07 
396 4 9.04261e-07 7.53591e-05 1.55017e-05 4.56838e-07 
448 4 9.64348e-07 9.45077e-05 1.56194e-05 4.95064e-07 
241 4 9.7847e-07 6.50259e-05 1.63954e-05 4.86597e-07 
707 4 1.09719e-06 5.51712e-05 2.73975e-06 5.53499e-07 
183 1 1.34226e-06 6.54804e-05 3.85199e-06 6.71793e-07 
425 4 9.21037e-07 7.46364e-05 3.59336e-06 5.34315e-07 
184 1 1.26787e-06 5.5112e-05 4.20971e-06 6.26809e-07 
186 1 1.09142e-06 8.55542e-05 4.46797e-06 7.45219e-07 
613 1 1.18139e-06 9.3396e-05 4.34606e-06 5.8661e-07 
381 1 1.18209e-06 7.4308e-05 4.57406e-06 6.88082e-07 
676 1 1.12403e-06 7.54163e-05 5.35804e-06 5.54632e-07 
760 1 1.15118e-06 8.46857e-05 5.49431e-06 5.73957e-07 
567 4 8.99168e-07 9.48071e-05 5.06901e-06 7.19084e-07 
279 4 9.16189e-07 5.54625e-05 5.50756e-06 5.37757e-07 
449 4 8.27985e-07 7.41055e-05 5.58389e-06 9.73758e-07 
147 4 9.71043e-07 9.40097e-05 5.82235e-06 6.82881e-07 
6 1 1.12757e-06 5.46498e-05 6.14043e-06 5.56563e-07 
587 1 1.16949e-06 6.52225e-05 6.25418e-06 7.14619e-07 
262 4 8.86855e-07 8.54485e-05 6.45198e-06 6.57869e-07 
89 3 9.73138e-07 8.63487e-05 6.23502e-06 5.75634e-07 
588 1 1.172e-06 9.53264e-05 6.17152e-06 9.30777e-07 
90 3 9.73138e-07 9.65116e-05 6.30335e-06 7.40873e-07 
450 4 9.15645e-07 7.53288e-05 6.53493e-06 6.55615e-07 
654 4 8.54935e-07 7.46073e-05 7.12959e-06 6.66433e-07 
20 1 1.14467e-06 9.57287e-05 1.3935e-05 5.7306e-07 
149 4 9.6156e-07 6.58318e-05 1.43784e-05 5.07485e-07 
772 1 1.10413e-06 7.45312e-05 1.40376e-05 9.84453e-07 
466 4 8.27448e-07 6.31785e-05 1.48824e-05 7.63192e-07 
18 1 1.36377e-06 7.34805e-05 1.49071e-05 6.74586e-07 
411 1 1.07406e-06 7.53137e-05 1.49209e-05 6.49971e-07 
19 1 1.33885e-06 8.55248e-05 1.4817e-05 6.68502e-07 
59 2 9.80839e-07 8.68146e-05 1.48466e-05 7.70479e-07 
491 1 1.29684e-06 5.55715e-05 1.54485e-05 6.47317e-07 
625 1 1.17806e-06 9.56429e-05 1.53359e-05 8.40308e-07 
60 2 9.80843e-07 9.68583e-05 1.52844e-05 8.59668e-07 
652 4 9.04146e-07 5.65435e-05 1.59631e-05 5.13107e-07 
525 4 8.92413e-07 8.32346e-05 1.5972e-05 9.80767e-07 
412 1 1.29244e-06 8.42244e-05 1.56252e-05 6.46671e-07 
152 4 9.43188e-07 9.3524e-05 1.56788e-05 5.89481e-07 
705 4 8.47509e-07 5.25549e-05 1.60084e-05 8.65427e-07 
148 4 9.88378e-07 5.46397e-05 1.61865e-05 5.04642e-07 
315 1 1.33968e-06 6.3354e-05 1.60324e-05 7.09588e-07 
98 3 9.73139e-07 7.67918e-05 1.63994e-05 9.18833e-07 
477 4 7.57237e-07 5.43385e-05 3.51064e-06 1.03932e-06 
46 2 9.80838e-07 5.60395e-05 3.97615e-06 1.42407e-06 
271 4 8.75072e-07 7.52198e-05 3.96456e-06 1.30298e-06 
187 1 1.16472e-06 9.45968e-05 3.77408e-06 1.11613e-06 
353 4 8.74678e-07 9.63073e-05 4.41892e-06 1.08213e-06 
751 4 7.5941e-07 5.38462e-05 4.89014e-06 1.23419e-06 
649 4 8.81662e-07 5.56129e-05 4.81853e-06 1.36161e-06 
47 2 9.80839e-07 6.6692e-05 4.96117e-06 1.22637e-06 
7 1 1.19813e-06 6.42205e-05 5.34178e-06 1.1254e-06 
50 2 9.80838e-07 9.61997e-05 5.35602e-06 1.08237e-06 
86 3 9.73138e-07 5.54297e-05 5.97214e-06 1.38715e-06 
87 3 9.73138e-07 6.63343e-05 6.03623e-06 1.03877e-06 
657 4 9.70128e-07 7.37616e-05 6.41833e-06 1.13741e-06 
88 3 9.73139e-07 7.48242e-05 6.02389e-06 1.29242e-06 
522 4 9.73803e-07 7.42229e-05 1.35928e-05 1.18181e-06 
150 4 9.25958e-07 7.51734e-05 1.36304e-05 1.40813e-06 
244 4 8.76543e-07 6.51037e-05 1.41288e-05 1.07384e-06 
211 4 8.87175e-07 7.29687e-05 1.424e-05 1.42247e-06 
56 2 9.80839e-07 5.64579e-05 1.4681e-05 1.09763e-06 
285 1 1.11949e-06 5.25614e-05 1.50538e-05 1.23409e-06 
188 1 1.31587e-06 5.42485e-05 1.50971e-05 1.29522e-06 
58 2 9.80838e-07 7.5955e-05 1.5191e-05 1.11262e-06 