LAMMPS (5 Nov 2016)
# NUFEB simulation

units si
atom_style	bio
atom_modify	map array sort 1000 5.0e-7
boundary	pp pp ff
newton		off
processors 2 2 1

comm_modify	vel yes
read_data_bio atom.in
  orthogonal box = (0 0 0) to (0.0003 0.0003 0.0003)
  2 by 2 by 1 MPI processor grid
  reading atoms ...
  0 atoms
  4 nutrients

##############Define initial particle distribution##############

lattice sc 5e-6 origin 0 0 0
Lattice spacing in x,y,z = 5e-06 5e-06 5e-06
region reg block 0 60 0 60 0 1

create_atoms 1 random 10 3124 reg
Created 10 atoms
create_atoms 2 random 10 1321 reg
Created 10 atoms
create_atoms 3 random 10 52342 reg
Created 10 atoms
create_atoms 4 random 1 13212 reg
Created 1 atoms

set type 1 density 32
  10 settings made for density
set type 1 diameter 4.5e-6
  10 settings made for diameter
set type 1 mass 7.18e-16
  10 settings made for mass
bio/set type 1 biomass 1.52e-15
  10 settings made for biomass

set type 2 density 32
  10 settings made for density
set type 2 diameter 4.5e-6
  10 settings made for diameter
set type 2 mass 7.18e-16
  10 settings made for mass
bio/set type 2 biomass 1.52e-15
  10 settings made for biomass

set type 3 density 32
  10 settings made for density
set type 3 diameter 4.5e-6
  10 settings made for diameter
set type 3 mass 7.18e-16
  10 settings made for mass
bio/set type 3 biomass 1.52e-15
  10 settings made for biomass

set type 4 density 32
  1 settings made for density
set type 4 diameter 4.5e-6
  1 settings made for diameter
set type 4 mass 7.18e-16
  1 settings made for mass
bio/set type 4 biomass 1.52e-15
  1 settings made for biomass

group ANA type 1
10 atoms in group ANA
group AOB type 2
10 atoms in group AOB
group NOB type 3
10 atoms in group NOB
group DEAD type 4
1 atoms in group DEAD

neighbor        5e-7 bin
neigh_modify    delay 0 one 5000

##############Define DEM Variables&Commands##############

pair_style  gran/hooke/history 1e-4 NULL 1e-4 NULL 0 1
pair_coeff  * *

timestep 1e-3

fix 1 all nve/limit 1e-8
fix fv all viscous 1e-8

fix zw all wall/gran hooke/history 1e-4 NULL 1e-4 NULL 0 1 zplane 0 3e-04

variable kanc equal 5e+8

fix zwa all walladh v_kanc zplane  0.0 3e-04

##############Define IBm Variables##############

#variables used in fix eps_extract
variable EPSdens equal 30

#variables used in fix division
variable divDia equal 5e-6

#variables used in fix kinetics
variable diffT equal 1e-4
variable tol equal 1e-6
variable etaHET equal 0
variable layer equal 5e-5

#variables used in fix death
variable deadDia equal 1e-6

##############Define IBm Commands##############

fix k1 all kinetics 1 30 30 30 v_diffT v_layer niter 2000
fix kgm all kinetics/growth/monod v_EPSdens v_etaHET
fix g1 all kinetics/diffusion v_tol pp pp nd kg bulk 2.31e-7 1.25e-3 0.1
#fix g1 all kinetics/diffusion v_tol pp pp nd kg
fix d1 all divide 1 v_EPSdens v_divDia 41341 demflag 0
fix d2 all death 1 v_deadDia demflag 0

##############Define IBm Computes##############

compute myNtypes all ntypes
compute myMass all biomass

##############Simulation Output##############

thermo_style    custom step cpu atoms c_myNtypes[2] c_myNtypes[3] c_myNtypes[4] c_myNtypes[5] c_myMass[2] c_myMass[3] c_myMass[4]
dump du0 all bio 18006 biomass ntypes bulk
dump du2 all grid 90030 grid_%_*.vti con
dump du3 all custom/vtk 90030 snapshot_*.vtu id type diameter x y z
thermo 3001
thermo_modify   lost ignore

##############Define Bio-loop and DEM-subloop##############

run 43200 pre no post no every 1 "fix_modify k1 demflag 1" "fix_modify d2 demflag 1" "fix_modify d1 demflag 1" "timestep 1e-3" "run 3000 pre no post no" "timestep 3600" "fix_modify k1 demflag 0" "fix_modify d2 demflag 0" "fix_modify d1 demflag 0"
WARNING: EPS is not defined in fix_kinetics/kinetics/monod (../fix_bio_kinetics_monod.cpp:247)
Neighbor list info ...
  2 neighbor list requests
  update every 1 steps, delay 0 steps, check yes
  max neighbors/atom: 5000, page size: 100000
  master list distance cutoff = 5e-06
  ghost atom cutoff = 5e-06
  binsize = 2.5e-06 -> bins = 120 120 120
Memory usage per processor = 9.78997 Mbytes
Step CPU Atoms c_myNtypes[2] c_myNtypes[3] c_myNtypes[4] c_myNtypes[5] c_myMass[2] c_myMass[3] c_myMass[4] 
       0            0       31           10           10           10            1     1.52e-14     1.52e-14     1.52e-14 
number of iterations: 2000 
       1    0.5971961       31           10           10           10            1     1.52e-14     1.52e-14     1.52e-14 
Loop time of 0.597215 on 4 procs for 1 steps with 31 atoms

99.6% CPU use with 4 MPI tasks x no OpenMP threads
fix_modify k1 demflag 1
fix_modify d2 demflag 1
fix_modify d1 demflag 1
timestep 1e-3
run 3000 pre no post no
Step CPU Atoms c_myNtypes[2] c_myNtypes[3] c_myNtypes[4] c_myNtypes[5] c_myMass[2] c_myMass[3] c_myMass[4] 
       1            0       31           10           10           10            1     1.52e-14     1.52e-14     1.52e-14 
    3001  0.014084101       31           10           10           10            1     1.52e-14     1.52e-14     1.52e-14 
Loop time of 0.0141056 on 4 procs for 3000 steps with 31 atoms

100.0% CPU use with 4 MPI tasks x no OpenMP threads
timestep 3600
fix_modify k1 demflag 0
fix_modify d2 demflag 0
fix_modify d1 demflag 0
Step CPU Atoms c_myNtypes[2] c_myNtypes[3] c_myNtypes[4] c_myNtypes[5] c_myMass[2] c_myMass[3] c_myMass[4] 
    3001            0       31           10           10           10            1     1.52e-14     1.52e-14     1.52e-14 
number of iterations: 2000 
    3002   0.72258401       31           10           10           10            1 1.5196775e-14 1.5262417e-14 1.517385e-14 
Loop time of 0.722602 on 4 procs for 1 steps with 31 atoms

100.0% CPU use with 4 MPI tasks x no OpenMP threads
fix_modify k1 demflag 1
fix_modify d2 demflag 1
fix_modify d1 demflag 1
timestep 1e-3
run 3000 pre no post no
Step CPU Atoms c_myNtypes[2] c_myNtypes[3] c_myNtypes[4] c_myNtypes[5] c_myMass[2] c_myMass[3] c_myMass[4] 
    3002            0       31           10           10           10            1 1.5196775e-14 1.5262417e-14 1.517385e-14 
    6002 0.0092630386       31           10           10           10            1 1.5196775e-14 1.5262417e-14 1.517385e-14 
Loop time of 0.0092743 on 4 procs for 3000 steps with 31 atoms

100.0% CPU use with 4 MPI tasks x no OpenMP threads
timestep 3600
fix_modify k1 demflag 0
fix_modify d2 demflag 0
fix_modify d1 demflag 0
Step CPU Atoms c_myNtypes[2] c_myNtypes[3] c_myNtypes[4] c_myNtypes[5] c_myMass[2] c_myMass[3] c_myMass[4] 
    6002            0       31           10           10           10            1 1.5196775e-14 1.5262417e-14 1.517385e-14 
number of iterations: 2000 
    6003   0.72139478       31           10           10           10            1 1.519355e-14 1.5325087e-14 1.5147748e-14 
Loop time of 0.721412 on 4 procs for 1 steps with 31 atoms

100.0% CPU use with 4 MPI tasks x no OpenMP threads
fix_modify k1 demflag 1
fix_modify d2 demflag 1
fix_modify d1 demflag 1
timestep 1e-3
run 3000 pre no post no
Step CPU Atoms c_myNtypes[2] c_myNtypes[3] c_myNtypes[4] c_myNtypes[5] c_myMass[2] c_myMass[3] c_myMass[4] 
    6003            0       31           10           10           10            1 1.519355e-14 1.5325087e-14 1.5147748e-14 
    9003 0.0092430115       31           10           10           10            1 1.519355e-14 1.5325087e-14 1.5147748e-14 
Loop time of 0.00925422 on 4 procs for 3000 steps with 31 atoms

100.0% CPU use with 4 MPI tasks x no OpenMP threads
timestep 3600
fix_modify k1 demflag 0
fix_modify d2 demflag 0
fix_modify d1 demflag 0
Step CPU Atoms c_myNtypes[2] c_myNtypes[3] c_myNtypes[4] c_myNtypes[5] c_myMass[2] c_myMass[3] c_myMass[4] 
    9003            0       31           10           10           10            1 1.519355e-14 1.5325087e-14 1.5147748e-14 
number of iterations: 2000 
    9004   0.72113299       31           10           10           10            1 1.5190327e-14 1.5388009e-14 1.5121699e-14 
Loop time of 0.721157 on 4 procs for 1 steps with 31 atoms

100.0% CPU use with 4 MPI tasks x no OpenMP threads
fix_modify k1 demflag 1
fix_modify d2 demflag 1
fix_modify d1 demflag 1
timestep 1e-3
run 3000 pre no post no
Step CPU Atoms c_myNtypes[2] c_myNtypes[3] c_myNtypes[4] c_myNtypes[5] c_myMass[2] c_myMass[3] c_myMass[4] 
    9004            0       31           10           10           10            1 1.5190327e-14 1.5388009e-14 1.5121699e-14 
   12004  0.014607906       31           10           10           10            1 1.5190327e-14 1.5388009e-14 1.5121699e-14 
Loop time of 0.0146244 on 4 procs for 3000 steps with 31 atoms

100.0% CPU use with 4 MPI tasks x no OpenMP threads
timestep 3600
fix_modify k1 demflag 0
fix_modify d2 demflag 0
fix_modify d1 demflag 0
Step CPU Atoms c_myNtypes[2] c_myNtypes[3] c_myNtypes[4] c_myNtypes[5] c_myMass[2] c_myMass[3] c_myMass[4] 
   12004            0       31           10           10           10            1 1.5190327e-14 1.5388009e-14 1.5121699e-14 
number of iterations: 2000 
   12005   0.73145008       31           10           10           10            1 1.5187103e-14 1.5451183e-14 1.5095704e-14 
Loop time of 0.73147 on 4 procs for 1 steps with 31 atoms

100.0% CPU use with 4 MPI tasks x no OpenMP threads
fix_modify k1 demflag 1
fix_modify d2 demflag 1
fix_modify d1 demflag 1
timestep 1e-3
run 3000 pre no post no
Step CPU Atoms c_myNtypes[2] c_myNtypes[3] c_myNtypes[4] c_myNtypes[5] c_myMass[2] c_myMass[3] c_myMass[4] 
   12005            0       31           10           10           10            1 1.5187103e-14 1.5451183e-14 1.5095704e-14 
   15005 0.0097169876       31           10           10           10            1 1.5187103e-14 1.5451183e-14 1.5095704e-14 
Loop time of 0.0097301 on 4 procs for 3000 steps with 31 atoms

100.0% CPU use with 4 MPI tasks x no OpenMP threads
timestep 3600
fix_modify k1 demflag 0
fix_modify d2 demflag 0
fix_modify d1 demflag 0
Step CPU Atoms c_myNtypes[2] c_myNtypes[3] c_myNtypes[4] c_myNtypes[5] c_myMass[2] c_myMass[3] c_myMass[4] 
   15005            0       31           10           10           10            1 1.5187103e-14 1.5451183e-14 1.5095704e-14 
number of iterations: 2000 
   15006   0.72157598       31           10           10           10            1 1.5183881e-14 1.5514609e-14 1.5069762e-14 
Loop time of 0.721594 on 4 procs for 1 steps with 31 atoms

100.0% CPU use with 4 MPI tasks x no OpenMP threads
fix_modify k1 demflag 1
fix_modify d2 demflag 1
fix_modify d1 demflag 1
timestep 1e-3
run 3000 pre no post no
Step CPU Atoms c_myNtypes[2] c_myNtypes[3] c_myNtypes[4] c_myNtypes[5] c_myMass[2] c_myMass[3] c_myMass[4] 
   15006            0       31           10           10           10            1 1.5183881e-14 1.5514609e-14 1.5069762e-14 
   18006  0.012702942       31           10           10           10            1 1.5183881e-14 1.5514609e-14 1.5069762e-14 
Loop time of 0.0127156 on 4 procs for 3000 steps with 31 atoms

100.0% CPU use with 4 MPI tasks x no OpenMP threads
timestep 3600
fix_modify k1 demflag 0
fix_modify d2 demflag 0
fix_modify d1 demflag 0
Step CPU Atoms c_myNtypes[2] c_myNtypes[3] c_myNtypes[4] c_myNtypes[5] c_myMass[2] c_myMass[3] c_myMass[4] 
   18006            0       31           10           10           10            1 1.5183881e-14 1.5514609e-14 1.5069762e-14 
number of iterations: 2000 
   18007   0.72125196       31           10           10           10            1 1.518066e-14 1.5578289e-14 1.5043872e-14 
Loop time of 0.72127 on 4 procs for 1 steps with 31 atoms

100.0% CPU use with 4 MPI tasks x no OpenMP threads
fix_modify k1 demflag 1
fix_modify d2 demflag 1
fix_modify d1 demflag 1
timestep 1e-3
run 3000 pre no post no
Step CPU Atoms c_myNtypes[2] c_myNtypes[3] c_myNtypes[4] c_myNtypes[5] c_myMass[2] c_myMass[3] c_myMass[4] 
   18007            0       31           10           10           10            1 1.518066e-14 1.5578289e-14 1.5043872e-14 
   21007 0.0091338158       31           10           10           10            1 1.518066e-14 1.5578289e-14 1.5043872e-14 
Loop time of 0.00914502 on 4 procs for 3000 steps with 31 atoms

100.0% CPU use with 4 MPI tasks x no OpenMP threads
timestep 3600
fix_modify k1 demflag 0
fix_modify d2 demflag 0
fix_modify d1 demflag 0
Step CPU Atoms c_myNtypes[2] c_myNtypes[3] c_myNtypes[4] c_myNtypes[5] c_myMass[2] c_myMass[3] c_myMass[4] 
   21007            0       31           10           10           10            1 1.518066e-14 1.5578289e-14 1.5043872e-14 
number of iterations: 2000 
   21008   0.72047091       31           10           10           10            1 1.5177439e-14 1.5642225e-14 1.5018033e-14 
Loop time of 0.720491 on 4 procs for 1 steps with 31 atoms

100.0% CPU use with 4 MPI tasks x no OpenMP threads
fix_modify k1 demflag 1
fix_modify d2 demflag 1
fix_modify d1 demflag 1
timestep 1e-3
run 3000 pre no post no
Step CPU Atoms c_myNtypes[2] c_myNtypes[3] c_myNtypes[4] c_myNtypes[5] c_myMass[2] c_myMass[3] c_myMass[4] 
   21008            0       31           10           10           10            1 1.5177439e-14 1.5642225e-14 1.5018033e-14 
   24008 0.0091748238       31           10           10           10            1 1.5177439e-14 1.5642225e-14 1.5018033e-14 
Loop time of 0.00918651 on 4 procs for 3000 steps with 31 atoms

100.0% CPU use with 4 MPI tasks x no OpenMP threads
timestep 3600
fix_modify k1 demflag 0
fix_modify d2 demflag 0
fix_modify d1 demflag 0
Step CPU Atoms c_myNtypes[2] c_myNtypes[3] c_myNtypes[4] c_myNtypes[5] c_myMass[2] c_myMass[3] c_myMass[4] 
   24008            0       31           10           10           10            1 1.5177439e-14 1.5642225e-14 1.5018033e-14 
number of iterations: 2000 
   24009   0.72544289       31           10           10           10            1 1.5174219e-14 1.5706419e-14 1.4992242e-14 
Loop time of 0.725461 on 4 procs for 1 steps with 31 atoms

100.0% CPU use with 4 MPI tasks x no OpenMP threads
fix_modify k1 demflag 1
fix_modify d2 demflag 1
fix_modify d1 demflag 1
timestep 1e-3
run 3000 pre no post no
Step CPU Atoms c_myNtypes[2] c_myNtypes[3] c_myNtypes[4] c_myNtypes[5] c_myMass[2] c_myMass[3] c_myMass[4] 
   24009            0       31           10           10           10            1 1.5174219e-14 1.5706419e-14 1.4992242e-14 
   27009 0.0091061592       31           10           10           10            1 1.5174219e-14 1.5706419e-14 1.4992242e-14 
Loop time of 0.0091188 on 4 procs for 3000 steps with 31 atoms

100.0% CPU use with 4 MPI tasks x no OpenMP threads
timestep 3600
fix_modify k1 demflag 0
fix_modify d2 demflag 0
fix_modify d1 demflag 0
Step CPU Atoms c_myNtypes[2] c_myNtypes[3] c_myNtypes[4] c_myNtypes[5] c_myMass[2] c_myMass[3] c_myMass[4] 
   27009            0       31           10           10           10            1 1.5174219e-14 1.5706419e-14 1.4992242e-14 
number of iterations: 2000 
   27010   0.72131515       31           10           10           10            1 1.5170999e-14 1.5770872e-14  1.49665e-14 
Loop time of 0.721334 on 4 procs for 1 steps with 31 atoms

100.0% CPU use with 4 MPI tasks x no OpenMP threads
fix_modify k1 demflag 1
fix_modify d2 demflag 1
fix_modify d1 demflag 1
timestep 1e-3
run 3000 pre no post no
Step CPU Atoms c_myNtypes[2] c_myNtypes[3] c_myNtypes[4] c_myNtypes[5] c_myMass[2] c_myMass[3] c_myMass[4] 
   27010            0       31           10           10           10            1 1.5170999e-14 1.5770872e-14  1.49665e-14 
   30010  0.009098053       31           10           10           10            1 1.5170999e-14 1.5770872e-14  1.49665e-14 
Loop time of 0.00911021 on 4 procs for 3000 steps with 31 atoms

100.0% CPU use with 4 MPI tasks x no OpenMP threads
timestep 3600
fix_modify k1 demflag 0
fix_modify d2 demflag 0
fix_modify d1 demflag 0
Step CPU Atoms c_myNtypes[2] c_myNtypes[3] c_myNtypes[4] c_myNtypes[5] c_myMass[2] c_myMass[3] c_myMass[4] 
   30010            0       31           10           10           10            1 1.5170999e-14 1.5770872e-14  1.49665e-14 
number of iterations: 2000 
   30011   0.72065997       31           10           10           10            1 1.516778e-14 1.5835585e-14 1.4940806e-14 
Loop time of 0.720678 on 4 procs for 1 steps with 31 atoms

100.0% CPU use with 4 MPI tasks x no OpenMP threads
fix_modify k1 demflag 1
fix_modify d2 demflag 1
fix_modify d1 demflag 1
timestep 1e-3
run 3000 pre no post no
Step CPU Atoms c_myNtypes[2] c_myNtypes[3] c_myNtypes[4] c_myNtypes[5] c_myMass[2] c_myMass[3] c_myMass[4] 
   30011            0       31           10           10           10            1 1.516778e-14 1.5835585e-14 1.4940806e-14 
   33011 0.0091600418       31           10           10           10            1 1.516778e-14 1.5835585e-14 1.4940806e-14 
Loop time of 0.00917411 on 4 procs for 3000 steps with 31 atoms

100.0% CPU use with 4 MPI tasks x no OpenMP threads
timestep 3600
fix_modify k1 demflag 0
fix_modify d2 demflag 0
fix_modify d1 demflag 0
Step CPU Atoms c_myNtypes[2] c_myNtypes[3] c_myNtypes[4] c_myNtypes[5] c_myMass[2] c_myMass[3] c_myMass[4] 
   33011            0       31           10           10           10            1 1.516778e-14 1.5835585e-14 1.4940806e-14 
number of iterations: 2000 
   33012   0.72199202       31           10           10           10            1 1.5164562e-14 1.5900561e-14 1.4915158e-14 
Loop time of 0.722011 on 4 procs for 1 steps with 31 atoms

100.0% CPU use with 4 MPI tasks x no OpenMP threads
fix_modify k1 demflag 1
fix_modify d2 demflag 1
fix_modify d1 demflag 1
timestep 1e-3
run 3000 pre no post no
Step CPU Atoms c_myNtypes[2] c_myNtypes[3] c_myNtypes[4] c_myNtypes[5] c_myMass[2] c_myMass[3] c_myMass[4] 
   33012            0       31           10           10           10            1 1.5164562e-14 1.5900561e-14 1.4915158e-14 
   36012 0.0091409683       31           10           10           10            1 1.5164562e-14 1.5900561e-14 1.4915158e-14 
Loop time of 0.00915241 on 4 procs for 3000 steps with 31 atoms

100.0% CPU use with 4 MPI tasks x no OpenMP threads
timestep 3600
fix_modify k1 demflag 0
fix_modify d2 demflag 0
fix_modify d1 demflag 0
Step CPU Atoms c_myNtypes[2] c_myNtypes[3] c_myNtypes[4] c_myNtypes[5] c_myMass[2] c_myMass[3] c_myMass[4] 
   36012            0       31           10           10           10            1 1.5164562e-14 1.5900561e-14 1.4915158e-14 
number of iterations: 2000 
   36013   0.72218704       31           10           10           10            1 1.5161345e-14  1.59658e-14 1.4889556e-14 
Loop time of 0.722204 on 4 procs for 1 steps with 31 atoms

99.9% CPU use with 4 MPI tasks x no OpenMP threads
fix_modify k1 demflag 1
fix_modify d2 demflag 1
fix_modify d1 demflag 1
timestep 1e-3
run 3000 pre no post no
Step CPU Atoms c_myNtypes[2] c_myNtypes[3] c_myNtypes[4] c_myNtypes[5] c_myMass[2] c_myMass[3] c_myMass[4] 
   36013            0       31           10           10           10            1 1.5161345e-14  1.59658e-14 1.4889556e-14 
   39013 0.0091559887       31           10           10           10            1 1.5161345e-14  1.59658e-14 1.4889556e-14 
Loop time of 0.00916839 on 4 procs for 3000 steps with 31 atoms

100.0% CPU use with 4 MPI tasks x no OpenMP threads
timestep 3600
fix_modify k1 demflag 0
fix_modify d2 demflag 0
fix_modify d1 demflag 0
Step CPU Atoms c_myNtypes[2] c_myNtypes[3] c_myNtypes[4] c_myNtypes[5] c_myMass[2] c_myMass[3] c_myMass[4] 
   39013            0       31           10           10           10            1 1.5161345e-14  1.59658e-14 1.4889556e-14 
number of iterations: 2000 
   39014   0.72126508       31           10           10           10            1 1.5158128e-14 1.6031304e-14 1.4864001e-14 
Loop time of 0.721282 on 4 procs for 1 steps with 31 atoms

100.0% CPU use with 4 MPI tasks x no OpenMP threads
fix_modify k1 demflag 1
fix_modify d2 demflag 1
fix_modify d1 demflag 1
timestep 1e-3
run 3000 pre no post no
Step CPU Atoms c_myNtypes[2] c_myNtypes[3] c_myNtypes[4] c_myNtypes[5] c_myMass[2] c_myMass[3] c_myMass[4] 
   39014            0       31           10           10           10            1 1.5158128e-14 1.6031304e-14 1.4864001e-14 
   42014 0.0089459419       31           10           10           10            1 1.5158128e-14 1.6031304e-14 1.4864001e-14 
Loop time of 0.00895739 on 4 procs for 3000 steps with 31 atoms

100.0% CPU use with 4 MPI tasks x no OpenMP threads
timestep 3600
fix_modify k1 demflag 0
fix_modify d2 demflag 0
fix_modify d1 demflag 0
Step CPU Atoms c_myNtypes[2] c_myNtypes[3] c_myNtypes[4] c_myNtypes[5] c_myMass[2] c_myMass[3] c_myMass[4] 
   42014            0       31           10           10           10            1 1.5158128e-14 1.6031304e-14 1.4864001e-14 
number of iterations: 2000 
   42015    0.7215848       31           10           10           10            1 1.5154912e-14 1.6097075e-14 1.4838491e-14 
Loop time of 0.721603 on 4 procs for 1 steps with 31 atoms

100.0% CPU use with 4 MPI tasks x no OpenMP threads
fix_modify k1 demflag 1
fix_modify d2 demflag 1
fix_modify d1 demflag 1
timestep 1e-3
run 3000 pre no post no
Step CPU Atoms c_myNtypes[2] c_myNtypes[3] c_myNtypes[4] c_myNtypes[5] c_myMass[2] c_myMass[3] c_myMass[4] 
   42015            0       31           10           10           10            1 1.5154912e-14 1.6097075e-14 1.4838491e-14 
   45015 0.0089569092       31           10           10           10            1 1.5154912e-14 1.6097075e-14 1.4838491e-14 
Loop time of 0.00896931 on 4 procs for 3000 steps with 31 atoms

100.0% CPU use with 4 MPI tasks x no OpenMP threads
timestep 3600
fix_modify k1 demflag 0
fix_modify d2 demflag 0
fix_modify d1 demflag 0
Step CPU Atoms c_myNtypes[2] c_myNtypes[3] c_myNtypes[4] c_myNtypes[5] c_myMass[2] c_myMass[3] c_myMass[4] 
   45015            0       31           10           10           10            1 1.5154912e-14 1.6097075e-14 1.4838491e-14 
number of iterations: 2000 
   45016   0.71762991       31           10           10           10            1 1.5151697e-14 1.6163114e-14 1.4813026e-14 
Loop time of 0.717649 on 4 procs for 1 steps with 31 atoms

100.0% CPU use with 4 MPI tasks x no OpenMP threads
fix_modify k1 demflag 1
fix_modify d2 demflag 1
fix_modify d1 demflag 1
timestep 1e-3
run 3000 pre no post no
Step CPU Atoms c_myNtypes[2] c_myNtypes[3] c_myNtypes[4] c_myNtypes[5] c_myMass[2] c_myMass[3] c_myMass[4] 
   45016            0       31           10           10           10            1 1.5151697e-14 1.6163114e-14 1.4813026e-14 
   48016 0.0091049671       31           10           10           10            1 1.5151697e-14 1.6163114e-14 1.4813026e-14 
Loop time of 0.00911629 on 4 procs for 3000 steps with 31 atoms

100.0% CPU use with 4 MPI tasks x no OpenMP threads
timestep 3600
fix_modify k1 demflag 0
fix_modify d2 demflag 0
fix_modify d1 demflag 0
Step CPU Atoms c_myNtypes[2] c_myNtypes[3] c_myNtypes[4] c_myNtypes[5] c_myMass[2] c_myMass[3] c_myMass[4] 
   48016            0       31           10           10           10            1 1.5151697e-14 1.6163114e-14 1.4813026e-14 
number of iterations: 2000 
   48017   0.71871519       31           10           10           10            1 1.5148482e-14 1.6229422e-14 1.4787606e-14 
Loop time of 0.718732 on 4 procs for 1 steps with 31 atoms

100.0% CPU use with 4 MPI tasks x no OpenMP threads
fix_modify k1 demflag 1
fix_modify d2 demflag 1
fix_modify d1 demflag 1
timestep 1e-3
run 3000 pre no post no
Step CPU Atoms c_myNtypes[2] c_myNtypes[3] c_myNtypes[4] c_myNtypes[5] c_myMass[2] c_myMass[3] c_myMass[4] 
   48017            0       31           10           10           10            1 1.5148482e-14 1.6229422e-14 1.4787606e-14 
   51017 0.0090038776       31           10           10           10            1 1.5148482e-14 1.6229422e-14 1.4787606e-14 
Loop time of 0.00901484 on 4 procs for 3000 steps with 31 atoms

100.0% CPU use with 4 MPI tasks x no OpenMP threads
timestep 3600
fix_modify k1 demflag 0
fix_modify d2 demflag 0
fix_modify d1 demflag 0
Step CPU Atoms c_myNtypes[2] c_myNtypes[3] c_myNtypes[4] c_myNtypes[5] c_myMass[2] c_myMass[3] c_myMass[4] 
   51017            0       31           10           10           10            1 1.5148482e-14 1.6229422e-14 1.4787606e-14 
number of iterations: 2000 
   51018   0.72288513       31           10           10           10            1 1.5145269e-14   1.6296e-14 1.476223e-14 
Loop time of 0.722903 on 4 procs for 1 steps with 31 atoms

100.0% CPU use with 4 MPI tasks x no OpenMP threads
fix_modify k1 demflag 1
fix_modify d2 demflag 1
fix_modify d1 demflag 1
timestep 1e-3
run 3000 pre no post no
Step CPU Atoms c_myNtypes[2] c_myNtypes[3] c_myNtypes[4] c_myNtypes[5] c_myMass[2] c_myMass[3] c_myMass[4] 
   51018            0       31           10           10           10            1 1.5145269e-14   1.6296e-14 1.476223e-14 
   54018 0.0090329647       31           10           10           10            1 1.5145269e-14   1.6296e-14 1.476223e-14 
Loop time of 0.00904489 on 4 procs for 3000 steps with 31 atoms

100.0% CPU use with 4 MPI tasks x no OpenMP threads
timestep 3600
fix_modify k1 demflag 0
fix_modify d2 demflag 0
fix_modify d1 demflag 0
Step CPU Atoms c_myNtypes[2] c_myNtypes[3] c_myNtypes[4] c_myNtypes[5] c_myMass[2] c_myMass[3] c_myMass[4] 
   54018            0       31           10           10           10            1 1.5145269e-14   1.6296e-14 1.476223e-14 
number of iterations: 2000 
   54019   0.72245622       31           10           10           10            1 1.5142055e-14 1.636285e-14  1.47369e-14 
Loop time of 0.722473 on 4 procs for 1 steps with 31 atoms

100.0% CPU use with 4 MPI tasks x no OpenMP threads
fix_modify k1 demflag 1
fix_modify d2 demflag 1
fix_modify d1 demflag 1
timestep 1e-3
run 3000 pre no post no
Step CPU Atoms c_myNtypes[2] c_myNtypes[3] c_myNtypes[4] c_myNtypes[5] c_myMass[2] c_myMass[3] c_myMass[4] 
   54019            0       31           10           10           10            1 1.5142055e-14 1.636285e-14  1.47369e-14 
   57019  0.009196043       31           10           10           10            1 1.5142055e-14 1.636285e-14  1.47369e-14 
Loop time of 0.00920701 on 4 procs for 3000 steps with 31 atoms

100.0% CPU use with 4 MPI tasks x no OpenMP threads
timestep 3600
fix_modify k1 demflag 0
fix_modify d2 demflag 0
fix_modify d1 demflag 0
Step CPU Atoms c_myNtypes[2] c_myNtypes[3] c_myNtypes[4] c_myNtypes[5] c_myMass[2] c_myMass[3] c_myMass[4] 
   57019            0       31           10           10           10            1 1.5142055e-14 1.636285e-14  1.47369e-14 
number of iterations: 2000 
   57020   0.72286296       31           10           10           10            1 1.5138843e-14 1.6429973e-14 1.4711613e-14 
Loop time of 0.722882 on 4 procs for 1 steps with 31 atoms

100.0% CPU use with 4 MPI tasks x no OpenMP threads
fix_modify k1 demflag 1
fix_modify d2 demflag 1
fix_modify d1 demflag 1
timestep 1e-3
run 3000 pre no post no
Step CPU Atoms c_myNtypes[2] c_myNtypes[3] c_myNtypes[4] c_myNtypes[5] c_myMass[2] c_myMass[3] c_myMass[4] 
   57020            0       31           10           10           10            1 1.5138843e-14 1.6429973e-14 1.4711613e-14 
   60020 0.0092668533       31           10           10           10            1 1.5138843e-14 1.6429973e-14 1.4711613e-14 
Loop time of 0.00927949 on 4 procs for 3000 steps with 31 atoms

100.0% CPU use with 4 MPI tasks x no OpenMP threads
timestep 3600
fix_modify k1 demflag 0
fix_modify d2 demflag 0
fix_modify d1 demflag 0
Step CPU Atoms c_myNtypes[2] c_myNtypes[3] c_myNtypes[4] c_myNtypes[5] c_myMass[2] c_myMass[3] c_myMass[4] 
   60020            0       31           10           10           10            1 1.5138843e-14 1.6429973e-14 1.4711613e-14 
number of iterations: 1098 
   60021   0.46012592       31           10           10           10            1 1.5135631e-14 1.6497371e-14 1.4686371e-14 
Loop time of 0.460144 on 4 procs for 1 steps with 31 atoms

100.0% CPU use with 4 MPI tasks x no OpenMP threads
fix_modify k1 demflag 1
fix_modify d2 demflag 1
fix_modify d1 demflag 1
timestep 1e-3
run 3000 pre no post no
Step CPU Atoms c_myNtypes[2] c_myNtypes[3] c_myNtypes[4] c_myNtypes[5] c_myMass[2] c_myMass[3] c_myMass[4] 
   60021            0       31           10           10           10            1 1.5135631e-14 1.6497371e-14 1.4686371e-14 
   63021 0.0089449883       31           10           10           10            1 1.5135631e-14 1.6497371e-14 1.4686371e-14 
Loop time of 0.00895476 on 4 procs for 3000 steps with 31 atoms

100.0% CPU use with 4 MPI tasks x no OpenMP threads
timestep 3600
fix_modify k1 demflag 0
fix_modify d2 demflag 0
fix_modify d1 demflag 0
Step CPU Atoms c_myNtypes[2] c_myNtypes[3] c_myNtypes[4] c_myNtypes[5] c_myMass[2] c_myMass[3] c_myMass[4] 
   63021            0       31           10           10           10            1 1.5135631e-14 1.6497371e-14 1.4686371e-14 
number of iterations: 384 
   63022   0.25543618       31           10           10           10            1 1.513242e-14 1.6565044e-14 1.4661173e-14 
Loop time of 0.255453 on 4 procs for 1 steps with 31 atoms

100.0% CPU use with 4 MPI tasks x no OpenMP threads
fix_modify k1 demflag 1
fix_modify d2 demflag 1
fix_modify d1 demflag 1
timestep 1e-3
run 3000 pre no post no
Step CPU Atoms c_myNtypes[2] c_myNtypes[3] c_myNtypes[4] c_myNtypes[5] c_myMass[2] c_myMass[3] c_myMass[4] 
   63022            0       31           10           10           10            1 1.513242e-14 1.6565044e-14 1.4661173e-14 
   66022 0.0092520714       31           10           10           10            1 1.513242e-14 1.6565044e-14 1.4661173e-14 
Loop time of 0.00926369 on 4 procs for 3000 steps with 31 atoms

100.0% CPU use with 4 MPI tasks x no OpenMP threads
timestep 3600
fix_modify k1 demflag 0
fix_modify d2 demflag 0
fix_modify d1 demflag 0
Step CPU Atoms c_myNtypes[2] c_myNtypes[3] c_myNtypes[4] c_myNtypes[5] c_myMass[2] c_myMass[3] c_myMass[4] 
   66022            0       31           10           10           10            1 1.513242e-14 1.6565044e-14 1.4661173e-14 
number of iterations: 572 
   66023   0.31009388       31           10           10           10            1 1.5129209e-14 1.6632995e-14 1.4636017e-14 
Loop time of 0.310111 on 4 procs for 1 steps with 31 atoms

100.0% CPU use with 4 MPI tasks x no OpenMP threads
fix_modify k1 demflag 1
fix_modify d2 demflag 1
fix_modify d1 demflag 1
timestep 1e-3
run 3000 pre no post no
Step CPU Atoms c_myNtypes[2] c_myNtypes[3] c_myNtypes[4] c_myNtypes[5] c_myMass[2] c_myMass[3] c_myMass[4] 
   66023            0       31           10           10           10            1 1.5129209e-14 1.6632995e-14 1.4636017e-14 
   69023 0.0089969635       31           10           10           10            1 1.5129209e-14 1.6632995e-14 1.4636017e-14 
Loop time of 0.00900793 on 4 procs for 3000 steps with 31 atoms

100.0% CPU use with 4 MPI tasks x no OpenMP threads
timestep 3600
fix_modify k1 demflag 0
fix_modify d2 demflag 0
fix_modify d1 demflag 0
Step CPU Atoms c_myNtypes[2] c_myNtypes[3] c_myNtypes[4] c_myNtypes[5] c_myMass[2] c_myMass[3] c_myMass[4] 
   69023            0       31           10           10           10            1 1.5129209e-14 1.6632995e-14 1.4636017e-14 
number of iterations: 667 
   69024   0.33740711       31           10           10           10            1   1.5126e-14 1.6701224e-14 1.4610906e-14 
Loop time of 0.337426 on 4 procs for 1 steps with 31 atoms

100.0% CPU use with 4 MPI tasks x no OpenMP threads
fix_modify k1 demflag 1
fix_modify d2 demflag 1
fix_modify d1 demflag 1
timestep 1e-3
run 3000 pre no post no
Step CPU Atoms c_myNtypes[2] c_myNtypes[3] c_myNtypes[4] c_myNtypes[5] c_myMass[2] c_myMass[3] c_myMass[4] 
   69024            0       31           10           10           10            1   1.5126e-14 1.6701224e-14 1.4610906e-14 
   72024 0.0093698502       31           10           10           10            1   1.5126e-14 1.6701224e-14 1.4610906e-14 
Loop time of 0.00938088 on 4 procs for 3000 steps with 31 atoms

100.0% CPU use with 4 MPI tasks x no OpenMP threads
timestep 3600
fix_modify k1 demflag 0
fix_modify d2 demflag 0
fix_modify d1 demflag 0
Step CPU Atoms c_myNtypes[2] c_myNtypes[3] c_myNtypes[4] c_myNtypes[5] c_myMass[2] c_myMass[3] c_myMass[4] 
   72024            0       31           10           10           10            1   1.5126e-14 1.6701224e-14 1.4610906e-14 
number of iterations: 723 
   72025    0.3523581       31           10           10           10            1 1.512279e-14 1.6769732e-14 1.4585837e-14 
Loop time of 0.352376 on 4 procs for 1 steps with 31 atoms

100.0% CPU use with 4 MPI tasks x no OpenMP threads
fix_modify k1 demflag 1
fix_modify d2 demflag 1
fix_modify d1 demflag 1
timestep 1e-3
run 3000 pre no post no
Step CPU Atoms c_myNtypes[2] c_myNtypes[3] c_myNtypes[4] c_myNtypes[5] c_myMass[2] c_myMass[3] c_myMass[4] 
   72025            0       31           10           10           10            1 1.512279e-14 1.6769732e-14 1.4585837e-14 
   75025 0.0091130733       31           10           10           10            1 1.512279e-14 1.6769732e-14 1.4585837e-14 
Loop time of 0.00912577 on 4 procs for 3000 steps with 31 atoms

100.0% CPU use with 4 MPI tasks x no OpenMP threads
timestep 3600
fix_modify k1 demflag 0
fix_modify d2 demflag 0
fix_modify d1 demflag 0
Step CPU Atoms c_myNtypes[2] c_myNtypes[3] c_myNtypes[4] c_myNtypes[5] c_myMass[2] c_myMass[3] c_myMass[4] 
   75025            0       31           10           10           10            1 1.512279e-14 1.6769732e-14 1.4585837e-14 
number of iterations: 772 
   75026   0.36565089       31           10           10           10            1 1.5119582e-14 1.683852e-14 1.4560813e-14 
Loop time of 0.365668 on 4 procs for 1 steps with 31 atoms

99.9% CPU use with 4 MPI tasks x no OpenMP threads
fix_modify k1 demflag 1
fix_modify d2 demflag 1
fix_modify d1 demflag 1
timestep 1e-3
run 3000 pre no post no
Step CPU Atoms c_myNtypes[2] c_myNtypes[3] c_myNtypes[4] c_myNtypes[5] c_myMass[2] c_myMass[3] c_myMass[4] 
   75026            0       31           10           10           10            1 1.5119582e-14 1.683852e-14 1.4560813e-14 
   78026 0.0090200901       31           10           10           10            1 1.5119582e-14 1.683852e-14 1.4560813e-14 
Loop time of 0.00903153 on 4 procs for 3000 steps with 31 atoms

100.0% CPU use with 4 MPI tasks x no OpenMP threads
timestep 3600
fix_modify k1 demflag 0
fix_modify d2 demflag 0
fix_modify d1 demflag 0
Step CPU Atoms c_myNtypes[2] c_myNtypes[3] c_myNtypes[4] c_myNtypes[5] c_myMass[2] c_myMass[3] c_myMass[4] 
   78026            0       31           10           10           10            1 1.5119582e-14 1.683852e-14 1.4560813e-14 
number of iterations: 820 
   78027   0.38520288       31           10           10           10            1 1.5116374e-14 1.690759e-14 1.4535832e-14 
Loop time of 0.385221 on 4 procs for 1 steps with 31 atoms

100.0% CPU use with 4 MPI tasks x no OpenMP threads
fix_modify k1 demflag 1
fix_modify d2 demflag 1
fix_modify d1 demflag 1
timestep 1e-3
run 3000 pre no post no
Step CPU Atoms c_myNtypes[2] c_myNtypes[3] c_myNtypes[4] c_myNtypes[5] c_myMass[2] c_myMass[3] c_myMass[4] 
   78027            0       31           10           10           10            1 1.5116374e-14 1.690759e-14 1.4535832e-14 
   81027  0.010668039       31           10           10           10            1 1.5116374e-14 1.690759e-14 1.4535832e-14 
Loop time of 0.0106814 on 4 procs for 3000 steps with 31 atoms

100.0% CPU use with 4 MPI tasks x no OpenMP threads
timestep 3600
fix_modify k1 demflag 0
fix_modify d2 demflag 0
fix_modify d1 demflag 0
Step CPU Atoms c_myNtypes[2] c_myNtypes[3] c_myNtypes[4] c_myNtypes[5] c_myMass[2] c_myMass[3] c_myMass[4] 
   81027            0       31           10           10           10            1 1.5116374e-14 1.690759e-14 1.4535832e-14 
number of iterations: 962 
   81028   0.42308187       31           10           10           10            1 1.5113167e-14 1.6976943e-14 1.4510894e-14 
Loop time of 0.423099 on 4 procs for 1 steps with 31 atoms

100.0% CPU use with 4 MPI tasks x no OpenMP threads
fix_modify k1 demflag 1
fix_modify d2 demflag 1
fix_modify d1 demflag 1
timestep 1e-3
run 3000 pre no post no
Step CPU Atoms c_myNtypes[2] c_myNtypes[3] c_myNtypes[4] c_myNtypes[5] c_myMass[2] c_myMass[3] c_myMass[4] 
   81028            0       31           10           10           10            1 1.5113167e-14 1.6976943e-14 1.4510894e-14 
   84028 0.0090539455       31           10           10           10            1 1.5113167e-14 1.6976943e-14 1.4510894e-14 
Loop time of 0.00906563 on 4 procs for 3000 steps with 31 atoms

100.0% CPU use with 4 MPI tasks x no OpenMP threads
timestep 3600
fix_modify k1 demflag 0
fix_modify d2 demflag 0
fix_modify d1 demflag 0
Step CPU Atoms c_myNtypes[2] c_myNtypes[3] c_myNtypes[4] c_myNtypes[5] c_myMass[2] c_myMass[3] c_myMass[4] 
   84028            0       31           10           10           10            1 1.5113167e-14 1.6976943e-14 1.4510894e-14 
number of iterations: 1086 
   84029   0.45620108       31           10           10           10            1 1.5109961e-14 1.7046579e-14   1.4486e-14 
Loop time of 0.456217 on 4 procs for 1 steps with 31 atoms

100.0% CPU use with 4 MPI tasks x no OpenMP threads
fix_modify k1 demflag 1
fix_modify d2 demflag 1
fix_modify d1 demflag 1
timestep 1e-3
run 3000 pre no post no
Step CPU Atoms c_myNtypes[2] c_myNtypes[3] c_myNtypes[4] c_myNtypes[5] c_myMass[2] c_myMass[3] c_myMass[4] 
   84029            0       31           10           10           10            1 1.5109961e-14 1.7046579e-14   1.4486e-14 
   87029 0.0090210438       31           10           10           10            1 1.5109961e-14 1.7046579e-14   1.4486e-14 
Loop time of 0.00903201 on 4 procs for 3000 steps with 31 atoms

100.0% CPU use with 4 MPI tasks x no OpenMP threads
timestep 3600
fix_modify k1 demflag 0
fix_modify d2 demflag 0
fix_modify d1 demflag 0
Step CPU Atoms c_myNtypes[2] c_myNtypes[3] c_myNtypes[4] c_myNtypes[5] c_myMass[2] c_myMass[3] c_myMass[4] 
   87029            0       31           10           10           10            1 1.5109961e-14 1.7046579e-14   1.4486e-14 
number of iterations: 1183 
   87030   0.48793101       31           10           10           10            1 1.5106755e-14  1.71165e-14 1.4461149e-14 
Loop time of 0.487949 on 4 procs for 1 steps with 31 atoms

100.0% CPU use with 4 MPI tasks x no OpenMP threads
fix_modify k1 demflag 1
fix_modify d2 demflag 1
fix_modify d1 demflag 1
timestep 1e-3
run 3000 pre no post no
Step CPU Atoms c_myNtypes[2] c_myNtypes[3] c_myNtypes[4] c_myNtypes[5] c_myMass[2] c_myMass[3] c_myMass[4] 
   87030            0       31           10           10           10            1 1.5106755e-14  1.71165e-14 1.4461149e-14 
   90030  0.017652988       31           10           10           10            1 1.5106755e-14  1.71165e-14 1.4461149e-14 
Loop time of 0.0176716 on 4 procs for 3000 steps with 31 atoms

99.9% CPU use with 4 MPI tasks x no OpenMP threads
timestep 3600
fix_modify k1 demflag 0
fix_modify d2 demflag 0
fix_modify d1 demflag 0
Step CPU Atoms c_myNtypes[2] c_myNtypes[3] c_myNtypes[4] c_myNtypes[5] c_myMass[2] c_myMass[3] c_myMass[4] 
   90030            0       31           10           10           10            1 1.5106755e-14  1.71165e-14 1.4461149e-14 
number of iterations: 1591 
   90031    0.6177609       31           10           10           10            1 1.510355e-14 1.7186707e-14 1.4436343e-14 
Loop time of 0.61778 on 4 procs for 1 steps with 31 atoms

99.8% CPU use with 4 MPI tasks x no OpenMP threads
fix_modify k1 demflag 1
fix_modify d2 demflag 1
fix_modify d1 demflag 1
timestep 1e-3
run 3000 pre no post no
Step CPU Atoms c_myNtypes[2] c_myNtypes[3] c_myNtypes[4] c_myNtypes[5] c_myMass[2] c_myMass[3] c_myMass[4] 
   90031            0       31           10           10           10            1 1.510355e-14 1.7186707e-14 1.4436343e-14 
   93031  0.009734869       31           10           10           10            1 1.510355e-14 1.7186707e-14 1.4436343e-14 
Loop time of 0.00975394 on 4 procs for 3000 steps with 31 atoms

100.0% CPU use with 4 MPI tasks x no OpenMP threads
timestep 3600
fix_modify k1 demflag 0
fix_modify d2 demflag 0
fix_modify d1 demflag 0
Step CPU Atoms c_myNtypes[2] c_myNtypes[3] c_myNtypes[4] c_myNtypes[5] c_myMass[2] c_myMass[3] c_myMass[4] 
   93031            0       31           10           10           10            1 1.510355e-14 1.7186707e-14 1.4436343e-14 
number of iterations: 1873 
   93032   0.68615294       31           10           10           10            1 1.5100346e-14 1.7257201e-14 1.441158e-14 
Loop time of 0.686171 on 4 procs for 1 steps with 31 atoms

100.0% CPU use with 4 MPI tasks x no OpenMP threads
fix_modify k1 demflag 1
fix_modify d2 demflag 1
fix_modify d1 demflag 1
timestep 1e-3
run 3000 pre no post no
Step CPU Atoms c_myNtypes[2] c_myNtypes[3] c_myNtypes[4] c_myNtypes[5] c_myMass[2] c_myMass[3] c_myMass[4] 
   93032            0       31           10           10           10            1 1.5100346e-14 1.7257201e-14 1.441158e-14 
   96032 0.0089821815       31           10           10           10            1 1.5100346e-14 1.7257201e-14 1.441158e-14 
Loop time of 0.00899386 on 4 procs for 3000 steps with 31 atoms

100.0% CPU use with 4 MPI tasks x no OpenMP threads
timestep 3600
fix_modify k1 demflag 0
fix_modify d2 demflag 0
fix_modify d1 demflag 0
Step CPU Atoms c_myNtypes[2] c_myNtypes[3] c_myNtypes[4] c_myNtypes[5] c_myMass[2] c_myMass[3] c_myMass[4] 
   96032            0       31           10           10           10            1 1.5100346e-14 1.7257201e-14 1.441158e-14 
number of iterations: 1211 
   96033    0.4953661       31           10           10           10            1 1.5097142e-14 1.7327983e-14 1.438686e-14 
Loop time of 0.495384 on 4 procs for 1 steps with 31 atoms

100.0% CPU use with 4 MPI tasks x no OpenMP threads
fix_modify k1 demflag 1
fix_modify d2 demflag 1
fix_modify d1 demflag 1
timestep 1e-3
run 3000 pre no post no
Step CPU Atoms c_myNtypes[2] c_myNtypes[3] c_myNtypes[4] c_myNtypes[5] c_myMass[2] c_myMass[3] c_myMass[4] 
   96033            0       31           10           10           10            1 1.5097142e-14 1.7327983e-14 1.438686e-14 
   99033 0.0088829994       31           10           10           10            1 1.5097142e-14 1.7327983e-14 1.438686e-14 
Loop time of 0.00889397 on 4 procs for 3000 steps with 31 atoms

100.0% CPU use with 4 MPI tasks x no OpenMP threads
timestep 3600
fix_modify k1 demflag 0
fix_modify d2 demflag 0
fix_modify d1 demflag 0
Step CPU Atoms c_myNtypes[2] c_myNtypes[3] c_myNtypes[4] c_myNtypes[5] c_myMass[2] c_myMass[3] c_myMass[4] 
   99033            0       31           10           10           10            1 1.5097142e-14 1.7327983e-14 1.438686e-14 
number of iterations: 2000 
   99034   0.72175312       31           10           10           10            1 1.5093939e-14 1.7399054e-14 1.4362184e-14 
Loop time of 0.72177 on 4 procs for 1 steps with 31 atoms

100.0% CPU use with 4 MPI tasks x no OpenMP threads
fix_modify k1 demflag 1
fix_modify d2 demflag 1
fix_modify d1 demflag 1
timestep 1e-3
run 3000 pre no post no
Step CPU Atoms c_myNtypes[2] c_myNtypes[3] c_myNtypes[4] c_myNtypes[5] c_myMass[2] c_myMass[3] c_myMass[4] 
   99034            0       31           10           10           10            1 1.5093939e-14 1.7399054e-14 1.4362184e-14 
  102034   0.00978899       31           10           10           10            1 1.5093939e-14 1.7399054e-14 1.4362184e-14 
Loop time of 0.00979996 on 4 procs for 3000 steps with 31 atoms

100.0% CPU use with 4 MPI tasks x no OpenMP threads
timestep 3600
fix_modify k1 demflag 0
fix_modify d2 demflag 0
fix_modify d1 demflag 0
Step CPU Atoms c_myNtypes[2] c_myNtypes[3] c_myNtypes[4] c_myNtypes[5] c_myMass[2] c_myMass[3] c_myMass[4] 
  102034            0       31           10           10           10            1 1.5093939e-14 1.7399054e-14 1.4362184e-14 
number of iterations: 1458 
  102035   0.57226181       31           10           10           10            1 1.5090737e-14 1.7470416e-14 1.4337551e-14 
Loop time of 0.572281 on 4 procs for 1 steps with 31 atoms

100.0% CPU use with 4 MPI tasks x no OpenMP threads
fix_modify k1 demflag 1
fix_modify d2 demflag 1
fix_modify d1 demflag 1
timestep 1e-3
run 3000 pre no post no
Step CPU Atoms c_myNtypes[2] c_myNtypes[3] c_myNtypes[4] c_myNtypes[5] c_myMass[2] c_myMass[3] c_myMass[4] 
  102035            0       31           10           10           10            1 1.5090737e-14 1.7470416e-14 1.4337551e-14 
  105035 0.0090820789       31           10           10           10            1 1.5090737e-14 1.7470416e-14 1.4337551e-14 
Loop time of 0.00909448 on 4 procs for 3000 steps with 31 atoms

100.0% CPU use with 4 MPI tasks x no OpenMP threads
timestep 3600
fix_modify k1 demflag 0
fix_modify d2 demflag 0
fix_modify d1 demflag 0
Step CPU Atoms c_myNtypes[2] c_myNtypes[3] c_myNtypes[4] c_myNtypes[5] c_myMass[2] c_myMass[3] c_myMass[4] 
  105035            0       31           10           10           10            1 1.5090737e-14 1.7470416e-14 1.4337551e-14 
number of iterations: 2000 
  105036   0.72134995       31           10           10           10            1 1.5087535e-14 1.754207e-14 1.4312961e-14 
Loop time of 0.721368 on 4 procs for 1 steps with 31 atoms

100.0% CPU use with 4 MPI tasks x no OpenMP threads
fix_modify k1 demflag 1
fix_modify d2 demflag 1
fix_modify d1 demflag 1
timestep 1e-3
run 3000 pre no post no
Step CPU Atoms c_myNtypes[2] c_myNtypes[3] c_myNtypes[4] c_myNtypes[5] c_myMass[2] c_myMass[3] c_myMass[4] 
  105036            0       31           10           10           10            1 1.5087535e-14 1.754207e-14 1.4312961e-14 
  108036 0.0088381767       31           10           10           10            1 1.5087535e-14 1.754207e-14 1.4312961e-14 
Loop time of 0.00885057 on 4 procs for 3000 steps with 31 atoms

100.0% CPU use with 4 MPI tasks x no OpenMP threads
timestep 3600
fix_modify k1 demflag 0
fix_modify d2 demflag 0
fix_modify d1 demflag 0
Step CPU Atoms c_myNtypes[2] c_myNtypes[3] c_myNtypes[4] c_myNtypes[5] c_myMass[2] c_myMass[3] c_myMass[4] 
  108036            0       31           10           10           10            1 1.5087535e-14 1.754207e-14 1.4312961e-14 
number of iterations: 1104 
  108037   0.46219397       31           10           10           10            1 1.5084334e-14 1.7614017e-14 1.4288415e-14 
Loop time of 0.462211 on 4 procs for 1 steps with 31 atoms

100.0% CPU use with 4 MPI tasks x no OpenMP threads
fix_modify k1 demflag 1
fix_modify d2 demflag 1
fix_modify d1 demflag 1
timestep 1e-3
run 3000 pre no post no
Step CPU Atoms c_myNtypes[2] c_myNtypes[3] c_myNtypes[4] c_myNtypes[5] c_myMass[2] c_myMass[3] c_myMass[4] 
  108037            0       31           10           10           10            1 1.5084334e-14 1.7614017e-14 1.4288415e-14 
  111037 0.0088570118       31           10           10           10            1 1.5084334e-14 1.7614017e-14 1.4288415e-14 
Loop time of 0.00886822 on 4 procs for 3000 steps with 31 atoms

100.0% CPU use with 4 MPI tasks x no OpenMP threads
timestep 3600
fix_modify k1 demflag 0
fix_modify d2 demflag 0
fix_modify d1 demflag 0
Step CPU Atoms c_myNtypes[2] c_myNtypes[3] c_myNtypes[4] c_myNtypes[5] c_myMass[2] c_myMass[3] c_myMass[4] 
  111037            0       31           10           10           10            1 1.5084334e-14 1.7614017e-14 1.4288415e-14 
number of iterations: 2000 
  111038   0.78502798       31           10           10           10            1 1.5081134e-14 1.7686258e-14 1.4263911e-14 
Loop time of 0.785049 on 4 procs for 1 steps with 31 atoms

100.0% CPU use with 4 MPI tasks x no OpenMP threads
fix_modify k1 demflag 1
fix_modify d2 demflag 1
fix_modify d1 demflag 1
timestep 1e-3
run 3000 pre no post no
Step CPU Atoms c_myNtypes[2] c_myNtypes[3] c_myNtypes[4] c_myNtypes[5] c_myMass[2] c_myMass[3] c_myMass[4] 
  111038            0       31           10           10           10            1 1.5081134e-14 1.7686258e-14 1.4263911e-14 
  114038 0.0089409351       31           10           10           10            1 1.5081134e-14 1.7686258e-14 1.4263911e-14 
Loop time of 0.00895429 on 4 procs for 3000 steps with 31 atoms

100.0% CPU use with 4 MPI tasks x no OpenMP threads
timestep 3600
fix_modify k1 demflag 0
fix_modify d2 demflag 0
fix_modify d1 demflag 0
Step CPU Atoms c_myNtypes[2] c_myNtypes[3] c_myNtypes[4] c_myNtypes[5] c_myMass[2] c_myMass[3] c_myMass[4] 
  114038            0       31           10           10           10            1 1.5081134e-14 1.7686258e-14 1.4263911e-14 
number of iterations: 1877 
  114039   0.76789594       31           10           10           10            1 1.5077935e-14 1.7758795e-14 1.423945e-14 
Loop time of 0.767915 on 4 procs for 1 steps with 31 atoms

100.0% CPU use with 4 MPI tasks x no OpenMP threads
fix_modify k1 demflag 1
fix_modify d2 demflag 1
fix_modify d1 demflag 1
timestep 1e-3
run 3000 pre no post no
Step CPU Atoms c_myNtypes[2] c_myNtypes[3] c_myNtypes[4] c_myNtypes[5] c_myMass[2] c_myMass[3] c_myMass[4] 
  114039            0       31           10           10           10            1 1.5077935e-14 1.7758795e-14 1.423945e-14 
  117039  0.010930061       31           10           10           10            1 1.5077935e-14 1.7758795e-14 1.423945e-14 
Loop time of 0.0109456 on 4 procs for 3000 steps with 31 atoms

100.0% CPU use with 4 MPI tasks x no OpenMP threads
timestep 3600
fix_modify k1 demflag 0
fix_modify d2 demflag 0
fix_modify d1 demflag 0
Step CPU Atoms c_myNtypes[2] c_myNtypes[3] c_myNtypes[4] c_myNtypes[5] c_myMass[2] c_myMass[3] c_myMass[4] 
  117039            0       31           10           10           10            1 1.5077935e-14 1.7758795e-14 1.423945e-14 
number of iterations: 1130 
  117040   0.50721502       31           10           10           10            1 1.5074736e-14 1.7831629e-14 1.4215032e-14 
Loop time of 0.507235 on 4 procs for 1 steps with 31 atoms

100.0% CPU use with 4 MPI tasks x no OpenMP threads
fix_modify k1 demflag 1
fix_modify d2 demflag 1
fix_modify d1 demflag 1
timestep 1e-3
run 3000 pre no post no
Step CPU Atoms c_myNtypes[2] c_myNtypes[3] c_myNtypes[4] c_myNtypes[5] c_myMass[2] c_myMass[3] c_myMass[4] 
  117040            0       31           10           10           10            1 1.5074736e-14 1.7831629e-14 1.4215032e-14 
  120040 0.0091049671       31           10           10           10            1 1.5074736e-14 1.7831629e-14 1.4215032e-14 
Loop time of 0.00911796 on 4 procs for 3000 steps with 31 atoms

100.0% CPU use with 4 MPI tasks x no OpenMP threads
timestep 3600
fix_modify k1 demflag 0
fix_modify d2 demflag 0
fix_modify d1 demflag 0
Step CPU Atoms c_myNtypes[2] c_myNtypes[3] c_myNtypes[4] c_myNtypes[5] c_myMass[2] c_myMass[3] c_myMass[4] 
  120040            0       31           10           10           10            1 1.5074736e-14 1.7831629e-14 1.4215032e-14 
number of iterations: 2000 
  120041   0.76870704       31           10           10           10            1 1.5071538e-14 1.790476e-14 1.4190657e-14 
Loop time of 0.768723 on 4 procs for 1 steps with 31 atoms

100.0% CPU use with 4 MPI tasks x no OpenMP threads
fix_modify k1 demflag 1
fix_modify d2 demflag 1
fix_modify d1 demflag 1
timestep 1e-3
run 3000 pre no post no
Step CPU Atoms c_myNtypes[2] c_myNtypes[3] c_myNtypes[4] c_myNtypes[5] c_myMass[2] c_myMass[3] c_myMass[4] 
  120041            0       31           10           10           10            1 1.5071538e-14 1.790476e-14 1.4190657e-14 
  123041 0.0088338852       31           10           10           10            1 1.5071538e-14 1.790476e-14 1.4190657e-14 
Loop time of 0.00884491 on 4 procs for 3000 steps with 31 atoms

100.0% CPU use with 4 MPI tasks x no OpenMP threads
timestep 3600
fix_modify k1 demflag 0
fix_modify d2 demflag 0
fix_modify d1 demflag 0
Step CPU Atoms c_myNtypes[2] c_myNtypes[3] c_myNtypes[4] c_myNtypes[5] c_myMass[2] c_myMass[3] c_myMass[4] 
  123041            0       31           10           10           10            1 1.5071538e-14 1.790476e-14 1.4190657e-14 
number of iterations: 1878 
  123042   0.76766205       41           10           20           10            1 1.506834e-14 1.7978198e-14 1.4166325e-14 
Loop time of 0.767682 on 4 procs for 1 steps with 41 atoms

100.0% CPU use with 4 MPI tasks x no OpenMP threads
fix_modify k1 demflag 1
fix_modify d2 demflag 1
fix_modify d1 demflag 1
timestep 1e-3
run 3000 pre no post no
Step CPU Atoms c_myNtypes[2] c_myNtypes[3] c_myNtypes[4] c_myNtypes[5] c_myMass[2] c_myMass[3] c_myMass[4] 
  123042            0       41           10           20           10            1 1.506834e-14 1.7978198e-14 1.4166325e-14 
  126042  0.014441013       41           10           20           10            1 1.506834e-14 1.7978198e-14 1.4166325e-14 
Loop time of 0.0144572 on 4 procs for 3000 steps with 41 atoms

100.0% CPU use with 4 MPI tasks x no OpenMP threads
timestep 3600
fix_modify k1 demflag 0
fix_modify d2 demflag 0
fix_modify d1 demflag 0
Step CPU Atoms c_myNtypes[2] c_myNtypes[3] c_myNtypes[4] c_myNtypes[5] c_myMass[2] c_myMass[3] c_myMass[4] 
  126042            0       41           10           20           10            1 1.506834e-14 1.7978198e-14 1.4166325e-14 
number of iterations: 1111 
  126043   0.49012494       41           10           20           10            1 1.5065143e-14 1.8051936e-14 1.4142035e-14 
Loop time of 0.490145 on 4 procs for 1 steps with 41 atoms

100.0% CPU use with 4 MPI tasks x no OpenMP threads
fix_modify k1 demflag 1
fix_modify d2 demflag 1
fix_modify d1 demflag 1
timestep 1e-3
run 3000 pre no post no
Step CPU Atoms c_myNtypes[2] c_myNtypes[3] c_myNtypes[4] c_myNtypes[5] c_myMass[2] c_myMass[3] c_myMass[4] 
  126043            0       41           10           20           10            1 1.5065143e-14 1.8051936e-14 1.4142035e-14 
  129043  0.010241985       41           10           20           10            1 1.5065143e-14 1.8051936e-14 1.4142035e-14 
Loop time of 0.0102532 on 4 procs for 3000 steps with 41 atoms

100.0% CPU use with 4 MPI tasks x no OpenMP threads
timestep 3600
fix_modify k1 demflag 0
fix_modify d2 demflag 0
fix_modify d1 demflag 0
Step CPU Atoms c_myNtypes[2] c_myNtypes[3] c_myNtypes[4] c_myNtypes[5] c_myMass[2] c_myMass[3] c_myMass[4] 
  129043            0       41           10           20           10            1 1.5065143e-14 1.8051936e-14 1.4142035e-14 
number of iterations: 2000 
  129044   0.79646182       41           10           20           10            1 1.5061947e-14 1.8125975e-14 1.4117788e-14 
Loop time of 0.796482 on 4 procs for 1 steps with 41 atoms

99.9% CPU use with 4 MPI tasks x no OpenMP threads
fix_modify k1 demflag 1
fix_modify d2 demflag 1
fix_modify d1 demflag 1
timestep 1e-3
run 3000 pre no post no
Step CPU Atoms c_myNtypes[2] c_myNtypes[3] c_myNtypes[4] c_myNtypes[5] c_myMass[2] c_myMass[3] c_myMass[4] 
  129044            0       41           10           20           10            1 1.5061947e-14 1.8125975e-14 1.4117788e-14 
  132044  0.013851881       41           10           20           10            1 1.5061947e-14 1.8125975e-14 1.4117788e-14 
Loop time of 0.0138676 on 4 procs for 3000 steps with 41 atoms

100.0% CPU use with 4 MPI tasks x no OpenMP threads
timestep 3600
fix_modify k1 demflag 0
fix_modify d2 demflag 0
fix_modify d1 demflag 0
Step CPU Atoms c_myNtypes[2] c_myNtypes[3] c_myNtypes[4] c_myNtypes[5] c_myMass[2] c_myMass[3] c_myMass[4] 
  132044            0       41           10           20           10            1 1.5061947e-14 1.8125975e-14 1.4117788e-14 
number of iterations: 1889 
  132045   0.78338599       41           10           20           10            1 1.5058752e-14 1.8200318e-14 1.4093583e-14 
Loop time of 0.783406 on 4 procs for 1 steps with 41 atoms

100.0% CPU use with 4 MPI tasks x no OpenMP threads
fix_modify k1 demflag 1
fix_modify d2 demflag 1
fix_modify d1 demflag 1
timestep 1e-3
run 3000 pre no post no
Step CPU Atoms c_myNtypes[2] c_myNtypes[3] c_myNtypes[4] c_myNtypes[5] c_myMass[2] c_myMass[3] c_myMass[4] 
  132045            0       41           10           20           10            1 1.5058752e-14 1.8200318e-14 1.4093583e-14 
  135045 0.0099790096       41           10           20           10            1 1.5058752e-14 1.8200318e-14 1.4093583e-14 
Loop time of 0.00999141 on 4 procs for 3000 steps with 41 atoms

100.0% CPU use with 4 MPI tasks x no OpenMP threads
timestep 3600
fix_modify k1 demflag 0
fix_modify d2 demflag 0
fix_modify d1 demflag 0
Step CPU Atoms c_myNtypes[2] c_myNtypes[3] c_myNtypes[4] c_myNtypes[5] c_myMass[2] c_myMass[3] c_myMass[4] 
  135045            0       41           10           20           10            1 1.5058752e-14 1.8200318e-14 1.4093583e-14 
number of iterations: 1120 
  135046   0.47318888       41           10           20           10            1 1.5055557e-14 1.8274965e-14 1.406942e-14 
Loop time of 0.473208 on 4 procs for 1 steps with 41 atoms

100.0% CPU use with 4 MPI tasks x no OpenMP threads
fix_modify k1 demflag 1
fix_modify d2 demflag 1
fix_modify d1 demflag 1
timestep 1e-3
run 3000 pre no post no
Step CPU Atoms c_myNtypes[2] c_myNtypes[3] c_myNtypes[4] c_myNtypes[5] c_myMass[2] c_myMass[3] c_myMass[4] 
  135046            0       41           10           20           10            1 1.5055557e-14 1.8274965e-14 1.406942e-14 
  138046  0.011566877       41           10           20           10            1 1.5055557e-14 1.8274965e-14 1.406942e-14 
Loop time of 0.0115798 on 4 procs for 3000 steps with 41 atoms

100.0% CPU use with 4 MPI tasks x no OpenMP threads
timestep 3600
fix_modify k1 demflag 0
fix_modify d2 demflag 0
fix_modify d1 demflag 0
Step CPU Atoms c_myNtypes[2] c_myNtypes[3] c_myNtypes[4] c_myNtypes[5] c_myMass[2] c_myMass[3] c_myMass[4] 
  138046            0       41           10           20           10            1 1.5055557e-14 1.8274965e-14 1.406942e-14 
number of iterations: 2000 
  138047   0.79011011       41           10           20           10            1 1.5052363e-14 1.8349917e-14  1.40453e-14 
Loop time of 0.790131 on 4 procs for 1 steps with 41 atoms

100.0% CPU use with 4 MPI tasks x no OpenMP threads
fix_modify k1 demflag 1
fix_modify d2 demflag 1
fix_modify d1 demflag 1
timestep 1e-3
run 3000 pre no post no
Step CPU Atoms c_myNtypes[2] c_myNtypes[3] c_myNtypes[4] c_myNtypes[5] c_myMass[2] c_myMass[3] c_myMass[4] 
  138047            0       41           10           20           10            1 1.5052363e-14 1.8349917e-14  1.40453e-14 
  141047  0.011406183       41           10           20           10            1 1.5052363e-14 1.8349917e-14  1.40453e-14 
Loop time of 0.0114228 on 4 procs for 3000 steps with 41 atoms

100.0% CPU use with 4 MPI tasks x no OpenMP threads
timestep 3600
fix_modify k1 demflag 0
fix_modify d2 demflag 0
fix_modify d1 demflag 0
Step CPU Atoms c_myNtypes[2] c_myNtypes[3] c_myNtypes[4] c_myNtypes[5] c_myMass[2] c_myMass[3] c_myMass[4] 
  141047            0       41           10           20           10            1 1.5052363e-14 1.8349917e-14  1.40453e-14 
number of iterations: 1901 
  141048    0.8113029       41           10           20           10            1 1.504917e-14 1.8425176e-14 1.4021222e-14 
Loop time of 0.811324 on 4 procs for 1 steps with 41 atoms

100.0% CPU use with 4 MPI tasks x no OpenMP threads
fix_modify k1 demflag 1
fix_modify d2 demflag 1
fix_modify d1 demflag 1
timestep 1e-3
run 3000 pre no post no
Step CPU Atoms c_myNtypes[2] c_myNtypes[3] c_myNtypes[4] c_myNtypes[5] c_myMass[2] c_myMass[3] c_myMass[4] 
  141048            0       41           10           20           10            1 1.504917e-14 1.8425176e-14 1.4021222e-14 
  144048  0.012310028       41           10           20           10            1 1.504917e-14 1.8425176e-14 1.4021222e-14 
Loop time of 0.0123312 on 4 procs for 3000 steps with 41 atoms

100.0% CPU use with 4 MPI tasks x no OpenMP threads
timestep 3600
fix_modify k1 demflag 0
fix_modify d2 demflag 0
fix_modify d1 demflag 0
Step CPU Atoms c_myNtypes[2] c_myNtypes[3] c_myNtypes[4] c_myNtypes[5] c_myMass[2] c_myMass[3] c_myMass[4] 
  144048            0       41           10           20           10            1 1.504917e-14 1.8425176e-14 1.4021222e-14 
number of iterations: 1108 
  144049   0.55790806       41           10           20           10            1 1.5045977e-14 1.8500743e-14 1.3997186e-14 
Loop time of 0.557932 on 4 procs for 1 steps with 41 atoms

100.0% CPU use with 4 MPI tasks x no OpenMP threads
fix_modify k1 demflag 1
fix_modify d2 demflag 1
fix_modify d1 demflag 1
timestep 1e-3
run 3000 pre no post no
Step CPU Atoms c_myNtypes[2] c_myNtypes[3] c_myNtypes[4] c_myNtypes[5] c_myMass[2] c_myMass[3] c_myMass[4] 
  144049            0       41           10           20           10            1 1.5045977e-14 1.8500743e-14 1.3997186e-14 
  147049  0.016525984       41           10           20           10            1 1.5045977e-14 1.8500743e-14 1.3997186e-14 
Loop time of 0.0165482 on 4 procs for 3000 steps with 41 atoms

100.0% CPU use with 4 MPI tasks x no OpenMP threads
timestep 3600
fix_modify k1 demflag 0
fix_modify d2 demflag 0
fix_modify d1 demflag 0
Step CPU Atoms c_myNtypes[2] c_myNtypes[3] c_myNtypes[4] c_myNtypes[5] c_myMass[2] c_myMass[3] c_myMass[4] 
  147049            0       41           10           20           10            1 1.5045977e-14 1.8500743e-14 1.3997186e-14 
number of iterations: 2000 
  147050   0.95003486       41           10           20           10            1 1.5042785e-14 1.8576619e-14 1.3973191e-14 
Loop time of 0.950054 on 4 procs for 1 steps with 41 atoms

99.4% CPU use with 4 MPI tasks x no OpenMP threads
fix_modify k1 demflag 1
fix_modify d2 demflag 1
fix_modify d1 demflag 1
timestep 1e-3
run 3000 pre no post no
Step CPU Atoms c_myNtypes[2] c_myNtypes[3] c_myNtypes[4] c_myNtypes[5] c_myMass[2] c_myMass[3] c_myMass[4] 
  147050            0       41           10           20           10            1 1.5042785e-14 1.8576619e-14 1.3973191e-14 
  150050  0.010203838       41           10           20           10            1 1.5042785e-14 1.8576619e-14 1.3973191e-14 
Loop time of 0.0102205 on 4 procs for 3000 steps with 41 atoms

100.0% CPU use with 4 MPI tasks x no OpenMP threads
timestep 3600
fix_modify k1 demflag 0
fix_modify d2 demflag 0
fix_modify d1 demflag 0
Step CPU Atoms c_myNtypes[2] c_myNtypes[3] c_myNtypes[4] c_myNtypes[5] c_myMass[2] c_myMass[3] c_myMass[4] 
  150050            0       41           10           20           10            1 1.5042785e-14 1.8576619e-14 1.3973191e-14 
number of iterations: 1914 
  150051   0.79954791       41           10           20           10            1 1.5039593e-14 1.8652806e-14 1.3949239e-14 
Loop time of 0.799571 on 4 procs for 1 steps with 41 atoms

100.0% CPU use with 4 MPI tasks x no OpenMP threads
fix_modify k1 demflag 1
fix_modify d2 demflag 1
fix_modify d1 demflag 1
timestep 1e-3
run 3000 pre no post no
Step CPU Atoms c_myNtypes[2] c_myNtypes[3] c_myNtypes[4] c_myNtypes[5] c_myMass[2] c_myMass[3] c_myMass[4] 
  150051            0       41           10           20           10            1 1.5039593e-14 1.8652806e-14 1.3949239e-14 
  153051  0.018542051       41           10           20           10            1 1.5039593e-14 1.8652806e-14 1.3949239e-14 
Loop time of 0.0185704 on 4 procs for 3000 steps with 41 atoms

100.0% CPU use with 4 MPI tasks x no OpenMP threads
timestep 3600
fix_modify k1 demflag 0
fix_modify d2 demflag 0
fix_modify d1 demflag 0
Step CPU Atoms c_myNtypes[2] c_myNtypes[3] c_myNtypes[4] c_myNtypes[5] c_myMass[2] c_myMass[3] c_myMass[4] 
  153051            0       41           10           20           10            1 1.5039593e-14 1.8652806e-14 1.3949239e-14 
number of iterations: 1093 
  153052    0.5197401       41           10           20           10            1 1.5036403e-14 1.8729304e-14 1.3925329e-14 
Loop time of 0.519759 on 4 procs for 1 steps with 41 atoms

99.8% CPU use with 4 MPI tasks x no OpenMP threads
fix_modify k1 demflag 1
fix_modify d2 demflag 1
fix_modify d1 demflag 1
timestep 1e-3
run 3000 pre no post no
Step CPU Atoms c_myNtypes[2] c_myNtypes[3] c_myNtypes[4] c_myNtypes[5] c_myMass[2] c_myMass[3] c_myMass[4] 
  153052            0       41           10           20           10            1 1.5036403e-14 1.8729304e-14 1.3925329e-14 
  156052  0.010721207       41           10           20           10            1 1.5036403e-14 1.8729304e-14 1.3925329e-14 
Loop time of 0.0107352 on 4 procs for 3000 steps with 41 atoms

100.0% CPU use with 4 MPI tasks x no OpenMP threads
timestep 3600
fix_modify k1 demflag 0
fix_modify d2 demflag 0
fix_modify d1 demflag 0
Step CPU Atoms c_myNtypes[2] c_myNtypes[3] c_myNtypes[4] c_myNtypes[5] c_myMass[2] c_myMass[3] c_myMass[4] 
  156052            0       41           10           20           10            1 1.5036403e-14 1.8729304e-14 1.3925329e-14 
number of iterations: 2000 
  156053   0.72760606       41           10           20           10            1 1.5033213e-14 1.8806116e-14 1.390146e-14 
Loop time of 0.727626 on 4 procs for 1 steps with 41 atoms

100.0% CPU use with 4 MPI tasks x no OpenMP threads
fix_modify k1 demflag 1
fix_modify d2 demflag 1
fix_modify d1 demflag 1
timestep 1e-3
run 3000 pre no post no
Step CPU Atoms c_myNtypes[2] c_myNtypes[3] c_myNtypes[4] c_myNtypes[5] c_myMass[2] c_myMass[3] c_myMass[4] 
  156053            0       41           10           20           10            1 1.5033213e-14 1.8806116e-14 1.390146e-14 
  159053  0.011009932       41           10           20           10            1 1.5033213e-14 1.8806116e-14 1.390146e-14 
Loop time of 0.011024 on 4 procs for 3000 steps with 41 atoms

100.0% CPU use with 4 MPI tasks x no OpenMP threads
timestep 3600
fix_modify k1 demflag 0
fix_modify d2 demflag 0
fix_modify d1 demflag 0
Step CPU Atoms c_myNtypes[2] c_myNtypes[3] c_myNtypes[4] c_myNtypes[5] c_myMass[2] c_myMass[3] c_myMass[4] 
  159053            0       41           10           20           10            1 1.5033213e-14 1.8806116e-14 1.390146e-14 
number of iterations: 1930 
  159054   0.70562506       41           10           20           10            1 1.5030024e-14 1.8883241e-14 1.3877633e-14 
Loop time of 0.705643 on 4 procs for 1 steps with 41 atoms

99.9% CPU use with 4 MPI tasks x no OpenMP threads
fix_modify k1 demflag 1
fix_modify d2 demflag 1
fix_modify d1 demflag 1
timestep 1e-3
run 3000 pre no post no
Step CPU Atoms c_myNtypes[2] c_myNtypes[3] c_myNtypes[4] c_myNtypes[5] c_myMass[2] c_myMass[3] c_myMass[4] 
  159054            0       41           10           20           10            1 1.5030024e-14 1.8883241e-14 1.3877633e-14 
  162054  0.010627985       41           10           20           10            1 1.5030024e-14 1.8883241e-14 1.3877633e-14 
Loop time of 0.0106449 on 4 procs for 3000 steps with 41 atoms

100.0% CPU use with 4 MPI tasks x no OpenMP threads
timestep 3600
fix_modify k1 demflag 0
fix_modify d2 demflag 0
fix_modify d1 demflag 0
Step CPU Atoms c_myNtypes[2] c_myNtypes[3] c_myNtypes[4] c_myNtypes[5] c_myMass[2] c_myMass[3] c_myMass[4] 
  162054            0       41           10           20           10            1 1.5030024e-14 1.8883241e-14 1.3877633e-14 
number of iterations: 1074 
  162055   0.45758295       41           10           20           10            1 1.5026835e-14 1.8960683e-14 1.3853847e-14 
Loop time of 0.4576 on 4 procs for 1 steps with 41 atoms

100.0% CPU use with 4 MPI tasks x no OpenMP threads
fix_modify k1 demflag 1
fix_modify d2 demflag 1
fix_modify d1 demflag 1
timestep 1e-3
run 3000 pre no post no
Step CPU Atoms c_myNtypes[2] c_myNtypes[3] c_myNtypes[4] c_myNtypes[5] c_myMass[2] c_myMass[3] c_myMass[4] 
  162055            0       41           10           20           10            1 1.5026835e-14 1.8960683e-14 1.3853847e-14 
  165055  0.011416197       41           10           20           10            1 1.5026835e-14 1.8960683e-14 1.3853847e-14 
Loop time of 0.0114279 on 4 procs for 3000 steps with 41 atoms

100.0% CPU use with 4 MPI tasks x no OpenMP threads
timestep 3600
fix_modify k1 demflag 0
fix_modify d2 demflag 0
fix_modify d1 demflag 0
Step CPU Atoms c_myNtypes[2] c_myNtypes[3] c_myNtypes[4] c_myNtypes[5] c_myMass[2] c_myMass[3] c_myMass[4] 
  165055            0       41           10           20           10            1 1.5026835e-14 1.8960683e-14 1.3853847e-14 
number of iterations: 2000 
  165056   0.72409606       41           10           20           10            1 1.5023647e-14 1.9038441e-14 1.3830104e-14 
Loop time of 0.724112 on 4 procs for 1 steps with 41 atoms

99.9% CPU use with 4 MPI tasks x no OpenMP threads
fix_modify k1 demflag 1
fix_modify d2 demflag 1
fix_modify d1 demflag 1
timestep 1e-3
run 3000 pre no post no
Step CPU Atoms c_myNtypes[2] c_myNtypes[3] c_myNtypes[4] c_myNtypes[5] c_myMass[2] c_myMass[3] c_myMass[4] 
  165056            0       41           10           20           10            1 1.5023647e-14 1.9038441e-14 1.3830104e-14 
  168056  0.010981083       41           10           20           10            1 1.5023647e-14 1.9038441e-14 1.3830104e-14 
Loop time of 0.0109923 on 4 procs for 3000 steps with 41 atoms

99.9% CPU use with 4 MPI tasks x no OpenMP threads
timestep 3600
fix_modify k1 demflag 0
fix_modify d2 demflag 0
fix_modify d1 demflag 0
Step CPU Atoms c_myNtypes[2] c_myNtypes[3] c_myNtypes[4] c_myNtypes[5] c_myMass[2] c_myMass[3] c_myMass[4] 
  168056            0       41           10           20           10            1 1.5023647e-14 1.9038441e-14 1.3830104e-14 
number of iterations: 1950 
  168057   0.71147108       41           10           20           10            1 1.502046e-14 1.9116518e-14 1.3806401e-14 
Loop time of 0.711488 on 4 procs for 1 steps with 41 atoms

99.8% CPU use with 4 MPI tasks x no OpenMP threads
fix_modify k1 demflag 1
fix_modify d2 demflag 1
fix_modify d1 demflag 1
timestep 1e-3
run 3000 pre no post no
Step CPU Atoms c_myNtypes[2] c_myNtypes[3] c_myNtypes[4] c_myNtypes[5] c_myMass[2] c_myMass[3] c_myMass[4] 
  168057            0       41           10           20           10            1 1.502046e-14 1.9116518e-14 1.3806401e-14 
  171057  0.010090828       41           10           20           10            1 1.502046e-14 1.9116518e-14 1.3806401e-14 
Loop time of 0.0101018 on 4 procs for 3000 steps with 41 atoms

99.9% CPU use with 4 MPI tasks x no OpenMP threads
timestep 3600
fix_modify k1 demflag 0
fix_modify d2 demflag 0
fix_modify d1 demflag 0
Step CPU Atoms c_myNtypes[2] c_myNtypes[3] c_myNtypes[4] c_myNtypes[5] c_myMass[2] c_myMass[3] c_myMass[4] 
  171057            0       41           10           20           10            1 1.502046e-14 1.9116518e-14 1.3806401e-14 
number of iterations: 1048 
  171058   0.45613098       41           10           20           10            1 1.5017273e-14 1.9194914e-14 1.378274e-14 
Loop time of 0.45615 on 4 procs for 1 steps with 41 atoms

99.8% CPU use with 4 MPI tasks x no OpenMP threads
fix_modify k1 demflag 1
fix_modify d2 demflag 1
fix_modify d1 demflag 1
timestep 1e-3
run 3000 pre no post no
Step CPU Atoms c_myNtypes[2] c_myNtypes[3] c_myNtypes[4] c_myNtypes[5] c_myMass[2] c_myMass[3] c_myMass[4] 
  171058            0       41           10           20           10            1 1.5017273e-14 1.9194914e-14 1.378274e-14 
  174058  0.010539055       41           10           20           10            1 1.5017273e-14 1.9194914e-14 1.378274e-14 
Loop time of 0.0105498 on 4 procs for 3000 steps with 41 atoms

99.9% CPU use with 4 MPI tasks x no OpenMP threads
timestep 3600
fix_modify k1 demflag 0
fix_modify d2 demflag 0
fix_modify d1 demflag 0
Step CPU Atoms c_myNtypes[2] c_myNtypes[3] c_myNtypes[4] c_myNtypes[5] c_myMass[2] c_myMass[3] c_myMass[4] 
  174058            0       41           10           20           10            1 1.5017273e-14 1.9194914e-14 1.378274e-14 
number of iterations: 2000 
  174059   0.72605681       41           10           20           10            1 1.5014087e-14 1.927363e-14 1.3759121e-14 
Loop time of 0.726076 on 4 procs for 1 steps with 41 atoms

99.8% CPU use with 4 MPI tasks x no OpenMP threads
fix_modify k1 demflag 1
fix_modify d2 demflag 1
fix_modify d1 demflag 1
timestep 1e-3
run 3000 pre no post no
Step CPU Atoms c_myNtypes[2] c_myNtypes[3] c_myNtypes[4] c_myNtypes[5] c_myMass[2] c_myMass[3] c_myMass[4] 
  174059            0       41           10           20           10            1 1.5014087e-14 1.927363e-14 1.3759121e-14 
  177059   0.01097393       41           10           20           10            1 1.5014087e-14 1.927363e-14 1.3759121e-14 
Loop time of 0.0109856 on 4 procs for 3000 steps with 41 atoms

99.9% CPU use with 4 MPI tasks x no OpenMP threads
timestep 3600
fix_modify k1 demflag 0
fix_modify d2 demflag 0
fix_modify d1 demflag 0
Step CPU Atoms c_myNtypes[2] c_myNtypes[3] c_myNtypes[4] c_myNtypes[5] c_myMass[2] c_myMass[3] c_myMass[4] 
  177059            0       41           10           20           10            1 1.5014087e-14 1.927363e-14 1.3759121e-14 
number of iterations: 1979 
  177060   0.71932817       41           10           20           10            1 1.5010902e-14 1.9352669e-14 1.3735542e-14 
Loop time of 0.719347 on 4 procs for 1 steps with 41 atoms

99.8% CPU use with 4 MPI tasks x no OpenMP threads
fix_modify k1 demflag 1
fix_modify d2 demflag 1
fix_modify d1 demflag 1
timestep 1e-3
run 3000 pre no post no
Step CPU Atoms c_myNtypes[2] c_myNtypes[3] c_myNtypes[4] c_myNtypes[5] c_myMass[2] c_myMass[3] c_myMass[4] 
  177060            0       41           10           20           10            1 1.5010902e-14 1.9352669e-14 1.3735542e-14 
  180060  0.018913031       41           10           20           10            1 1.5010902e-14 1.9352669e-14 1.3735542e-14 
Loop time of 0.0189314 on 4 procs for 3000 steps with 41 atoms

99.7% CPU use with 4 MPI tasks x no OpenMP threads
timestep 3600
fix_modify k1 demflag 0
fix_modify d2 demflag 0
fix_modify d1 demflag 0
Step CPU Atoms c_myNtypes[2] c_myNtypes[3] c_myNtypes[4] c_myNtypes[5] c_myMass[2] c_myMass[3] c_myMass[4] 
  180060            0       41           10           20           10            1 1.5010902e-14 1.9352669e-14 1.3735542e-14 
number of iterations: 1009 
  180061   0.45712209       41           10           20           10            1 1.5007717e-14 1.9432031e-14 1.3712005e-14 
Loop time of 0.457142 on 4 procs for 1 steps with 41 atoms

99.8% CPU use with 4 MPI tasks x no OpenMP threads
fix_modify k1 demflag 1
fix_modify d2 demflag 1
fix_modify d1 demflag 1
timestep 1e-3
run 3000 pre no post no
Step CPU Atoms c_myNtypes[2] c_myNtypes[3] c_myNtypes[4] c_myNtypes[5] c_myMass[2] c_myMass[3] c_myMass[4] 
  180061            0       41           10           20           10            1 1.5007717e-14 1.9432031e-14 1.3712005e-14 
  183061  0.010247946       41           10           20           10            1 1.5007717e-14 1.9432031e-14 1.3712005e-14 
Loop time of 0.0102606 on 4 procs for 3000 steps with 41 atoms

99.9% CPU use with 4 MPI tasks x no OpenMP threads
timestep 3600
fix_modify k1 demflag 0
fix_modify d2 demflag 0
fix_modify d1 demflag 0
Step CPU Atoms c_myNtypes[2] c_myNtypes[3] c_myNtypes[4] c_myNtypes[5] c_myMass[2] c_myMass[3] c_myMass[4] 
  183061            0       41           10           20           10            1 1.5007717e-14 1.9432031e-14 1.3712005e-14 
number of iterations: 2000 
  183062   0.85025692       41           10           20           10            1 1.5004534e-14 1.9511718e-14 1.3688509e-14 
Loop time of 0.850277 on 4 procs for 1 steps with 41 atoms

99.7% CPU use with 4 MPI tasks x no OpenMP threads
fix_modify k1 demflag 1
fix_modify d2 demflag 1
fix_modify d1 demflag 1
timestep 1e-3
run 3000 pre no post no
Step CPU Atoms c_myNtypes[2] c_myNtypes[3] c_myNtypes[4] c_myNtypes[5] c_myMass[2] c_myMass[3] c_myMass[4] 
  183062            0       41           10           20           10            1 1.5004534e-14 1.9511718e-14 1.3688509e-14 
  186062  0.014293909       41           10           20           10            1 1.5004534e-14 1.9511718e-14 1.3688509e-14 
Loop time of 0.0143169 on 4 procs for 3000 steps with 41 atoms

99.9% CPU use with 4 MPI tasks x no OpenMP threads
timestep 3600
fix_modify k1 demflag 0
fix_modify d2 demflag 0
fix_modify d1 demflag 0
Step CPU Atoms c_myNtypes[2] c_myNtypes[3] c_myNtypes[4] c_myNtypes[5] c_myMass[2] c_myMass[3] c_myMass[4] 
  186062            0       41           10           20           10            1 1.5004534e-14 1.9511718e-14 1.3688509e-14 
number of iterations: 2000 
  186063   0.80252886       41           10           20           10            1 1.500135e-14 1.9591731e-14 1.3665054e-14 
Loop time of 0.802547 on 4 procs for 1 steps with 41 atoms

99.6% CPU use with 4 MPI tasks x no OpenMP threads
fix_modify k1 demflag 1
fix_modify d2 demflag 1
fix_modify d1 demflag 1
timestep 1e-3
run 3000 pre no post no
Step CPU Atoms c_myNtypes[2] c_myNtypes[3] c_myNtypes[4] c_myNtypes[5] c_myMass[2] c_myMass[3] c_myMass[4] 
  186063            0       41           10           20           10            1 1.500135e-14 1.9591731e-14 1.3665054e-14 
  189063  0.010011911       41           10           20           10            1 1.500135e-14 1.9591731e-14 1.3665054e-14 
Loop time of 0.0100241 on 4 procs for 3000 steps with 41 atoms

99.9% CPU use with 4 MPI tasks x no OpenMP threads
timestep 3600
fix_modify k1 demflag 0
fix_modify d2 demflag 0
fix_modify d1 demflag 0
Step CPU Atoms c_myNtypes[2] c_myNtypes[3] c_myNtypes[4] c_myNtypes[5] c_myMass[2] c_myMass[3] c_myMass[4] 
  189063            0       41           10           20           10            1 1.500135e-14 1.9591731e-14 1.3665054e-14 
number of iterations: 990 
  189064   0.43505692       41           10           20           10            1 1.4998168e-14 1.9672071e-14 1.364164e-14 
Loop time of 0.435075 on 4 procs for 1 steps with 41 atoms

99.8% CPU use with 4 MPI tasks x no OpenMP threads
fix_modify k1 demflag 1
fix_modify d2 demflag 1
fix_modify d1 demflag 1
timestep 1e-3
run 3000 pre no post no
Step CPU Atoms c_myNtypes[2] c_myNtypes[3] c_myNtypes[4] c_myNtypes[5] c_myMass[2] c_myMass[3] c_myMass[4] 
  189064            0       41           10           20           10            1 1.4998168e-14 1.9672071e-14 1.364164e-14 
  192064  0.010203123       41           10           20           10            1 1.4998168e-14 1.9672071e-14 1.364164e-14 
Loop time of 0.0102169 on 4 procs for 3000 steps with 41 atoms

99.9% CPU use with 4 MPI tasks x no OpenMP threads
timestep 3600
fix_modify k1 demflag 0
fix_modify d2 demflag 0
fix_modify d1 demflag 0
Step CPU Atoms c_myNtypes[2] c_myNtypes[3] c_myNtypes[4] c_myNtypes[5] c_myMass[2] c_myMass[3] c_myMass[4] 
  192064            0       41           10           20           10            1 1.4998168e-14 1.9672071e-14 1.364164e-14 
number of iterations: 2000 
  192065   0.73328495       41           10           20           10            1 1.4994986e-14 1.975274e-14 1.3618267e-14 
Loop time of 0.733307 on 4 procs for 1 steps with 41 atoms

99.8% CPU use with 4 MPI tasks x no OpenMP threads
fix_modify k1 demflag 1
fix_modify d2 demflag 1
fix_modify d1 demflag 1
timestep 1e-3
run 3000 pre no post no
Step CPU Atoms c_myNtypes[2] c_myNtypes[3] c_myNtypes[4] c_myNtypes[5] c_myMass[2] c_myMass[3] c_myMass[4] 
  192065            0       41           10           20           10            1 1.4994986e-14 1.975274e-14 1.3618267e-14 
  195065  0.013576031       41           10           20           10            1 1.4994986e-14 1.975274e-14 1.3618267e-14 
Loop time of 0.0135887 on 4 procs for 3000 steps with 41 atoms

[...]
Loop time of 0.0158885 on 4 procs for 3000 steps with 67 atoms

99.9% CPU use with 4 MPI tasks x no OpenMP threads
timestep 3600
fix_modify k1 demflag 0
fix_modify d2 demflag 0
fix_modify d1 demflag 0
Step CPU Atoms c_myNtypes[2] c_myNtypes[3] c_myNtypes[4] c_myNtypes[5] c_myMass[2] c_myMass[3] c_myMass[4] 
  711237            0       67           10           46           10            1 1.4457715e-14 3.9907254e-14 1.0150211e-14 
number of iterations: 2000 
  711238   0.80752087       67           10           46           10            1 1.4454649e-14 4.007057e-14 1.0132956e-14 
Loop time of 0.807539 on 4 procs for 1 steps with 67 atoms

99.8% CPU use with 4 MPI tasks x no OpenMP threads
fix_modify k1 demflag 1
fix_modify d2 demflag 1
fix_modify d1 demflag 1
timestep 1e-3
run 3000 pre no post no
Step CPU Atoms c_myNtypes[2] c_myNtypes[3] c_myNtypes[4] c_myNtypes[5] c_myMass[2] c_myMass[3] c_myMass[4] 
  711238            0       67           10           46           10            1 1.4454649e-14 4.007057e-14 1.0132956e-14 
  714238  0.017692089       67           10           46           10            1 1.4454649e-14 4.007057e-14 1.0132956e-14 
Loop time of 0.0177075 on 4 procs for 3000 steps with 67 atoms

99.9% CPU use with 4 MPI tasks x no OpenMP threads
timestep 3600
fix_modify k1 demflag 0
fix_modify d2 demflag 0
fix_modify d1 demflag 0
Step CPU Atoms c_myNtypes[2] c_myNtypes[3] c_myNtypes[4] c_myNtypes[5] c_myMass[2] c_myMass[3] c_myMass[4] 
  714238            0       67           10           46           10            1 1.4454649e-14 4.007057e-14 1.0132956e-14 
number of iterations: 899 
  714239   0.44693208       67           10           46           10            1 1.4451583e-14 4.0234552e-14 1.0115731e-14 
Loop time of 0.44695 on 4 procs for 1 steps with 67 atoms

99.8% CPU use with 4 MPI tasks x no OpenMP threads
fix_modify k1 demflag 1
fix_modify d2 demflag 1
fix_modify d1 demflag 1
timestep 1e-3
run 3000 pre no post no
Step CPU Atoms c_myNtypes[2] c_myNtypes[3] c_myNtypes[4] c_myNtypes[5] c_myMass[2] c_myMass[3] c_myMass[4] 
  714239            0       67           10           46           10            1 1.4451583e-14 4.0234552e-14 1.0115731e-14 
  717239  0.015479803       67           10           46           10            1 1.4451583e-14 4.0234552e-14 1.0115731e-14 
Loop time of 0.0154943 on 4 procs for 3000 steps with 67 atoms

99.9% CPU use with 4 MPI tasks x no OpenMP threads
timestep 3600
fix_modify k1 demflag 0
fix_modify d2 demflag 0
fix_modify d1 demflag 0
Step CPU Atoms c_myNtypes[2] c_myNtypes[3] c_myNtypes[4] c_myNtypes[5] c_myMass[2] c_myMass[3] c_myMass[4] 
  717239            0       67           10           46           10            1 1.4451583e-14 4.0234552e-14 1.0115731e-14 
number of iterations: 2000 
  717240   0.81129718       69           10           48           10            1 1.4448519e-14 4.0399202e-14 1.0098536e-14 
Loop time of 0.811316 on 4 procs for 1 steps with 69 atoms

99.8% CPU use with 4 MPI tasks x no OpenMP threads
fix_modify k1 demflag 1
fix_modify d2 demflag 1
fix_modify d1 demflag 1
timestep 1e-3
run 3000 pre no post no
Step CPU Atoms c_myNtypes[2] c_myNtypes[3] c_myNtypes[4] c_myNtypes[5] c_myMass[2] c_myMass[3] c_myMass[4] 
  717240            0       69           10           48           10            1 1.4448519e-14 4.0399202e-14 1.0098536e-14 
  720240  0.027575016       69           10           48           10            1 1.4448519e-14 4.0399202e-14 1.0098536e-14 
Loop time of 0.0275929 on 4 procs for 3000 steps with 69 atoms

99.8% CPU use with 4 MPI tasks x no OpenMP threads
timestep 3600
fix_modify k1 demflag 0
fix_modify d2 demflag 0
fix_modify d1 demflag 0
Step CPU Atoms c_myNtypes[2] c_myNtypes[3] c_myNtypes[4] c_myNtypes[5] c_myMass[2] c_myMass[3] c_myMass[4] 
  720240            0       69           10           48           10            1 1.4448519e-14 4.0399202e-14 1.0098536e-14 
number of iterations: 2000 
  720241   0.83467102       69           10           48           10            1 1.4445455e-14 4.0564522e-14 1.0081372e-14 
Loop time of 0.834691 on 4 procs for 1 steps with 69 atoms

99.8% CPU use with 4 MPI tasks x no OpenMP threads
fix_modify k1 demflag 1
fix_modify d2 demflag 1
fix_modify d1 demflag 1
timestep 1e-3
run 3000 pre no post no
Step CPU Atoms c_myNtypes[2] c_myNtypes[3] c_myNtypes[4] c_myNtypes[5] c_myMass[2] c_myMass[3] c_myMass[4] 
  720241            0       69           10           48           10            1 1.4445455e-14 4.0564522e-14 1.0081372e-14 
  723241  0.016134024       69           10           48           10            1 1.4445455e-14 4.0564522e-14 1.0081372e-14 
Loop time of 0.0161514 on 4 procs for 3000 steps with 69 atoms

99.9% CPU use with 4 MPI tasks x no OpenMP threads
timestep 3600
fix_modify k1 demflag 0
fix_modify d2 demflag 0
fix_modify d1 demflag 0
Step CPU Atoms c_myNtypes[2] c_myNtypes[3] c_myNtypes[4] c_myNtypes[5] c_myMass[2] c_myMass[3] c_myMass[4] 
  723241            0       69           10           48           10            1 1.4445455e-14 4.0564522e-14 1.0081372e-14 
number of iterations: 900 
  723242   0.44959998       69           10           48           10            1 1.4442391e-14 4.0730517e-14 1.0064238e-14 
Loop time of 0.449617 on 4 procs for 1 steps with 69 atoms

99.8% CPU use with 4 MPI tasks x no OpenMP threads
fix_modify k1 demflag 1
fix_modify d2 demflag 1
fix_modify d1 demflag 1
timestep 1e-3
run 3000 pre no post no
Step CPU Atoms c_myNtypes[2] c_myNtypes[3] c_myNtypes[4] c_myNtypes[5] c_myMass[2] c_myMass[3] c_myMass[4] 
  723242            0       69           10           48           10            1 1.4442391e-14 4.0730517e-14 1.0064238e-14 
  726242  0.016396999       69           10           48           10            1 1.4442391e-14 4.0730517e-14 1.0064238e-14 
Loop time of 0.0164123 on 4 procs for 3000 steps with 69 atoms

99.9% CPU use with 4 MPI tasks x no OpenMP threads
timestep 3600
fix_modify k1 demflag 0
fix_modify d2 demflag 0
fix_modify d1 demflag 0
Step CPU Atoms c_myNtypes[2] c_myNtypes[3] c_myNtypes[4] c_myNtypes[5] c_myMass[2] c_myMass[3] c_myMass[4] 
  726242            0       69           10           48           10            1 1.4442391e-14 4.0730517e-14 1.0064238e-14 
number of iterations: 2000 
  726243   0.80961895       69           10           48           10            1 1.4439328e-14 4.0897187e-14 1.0047134e-14 
Loop time of 0.809638 on 4 procs for 1 steps with 69 atoms

99.8% CPU use with 4 MPI tasks x no OpenMP threads
fix_modify k1 demflag 1
fix_modify d2 demflag 1
fix_modify d1 demflag 1
timestep 1e-3
run 3000 pre no post no
Step CPU Atoms c_myNtypes[2] c_myNtypes[3] c_myNtypes[4] c_myNtypes[5] c_myMass[2] c_myMass[3] c_myMass[4] 
  726243            0       69           10           48           10            1 1.4439328e-14 4.0897187e-14 1.0047134e-14 
  729243  0.016051054       69           10           48           10            1 1.4439328e-14 4.0897187e-14 1.0047134e-14 
Loop time of 0.0160704 on 4 procs for 3000 steps with 69 atoms

99.9% CPU use with 4 MPI tasks x no OpenMP threads
timestep 3600
fix_modify k1 demflag 0
fix_modify d2 demflag 0
fix_modify d1 demflag 0
Step CPU Atoms c_myNtypes[2] c_myNtypes[3] c_myNtypes[4] c_myNtypes[5] c_myMass[2] c_myMass[3] c_myMass[4] 
  729243            0       69           10           48           10            1 1.4439328e-14 4.0897187e-14 1.0047134e-14 
number of iterations: 2000 
  729244   0.80763292       70           10           49           10            1 1.4436266e-14 4.1064535e-14 1.003006e-14 
Loop time of 0.807651 on 4 procs for 1 steps with 70 atoms

99.8% CPU use with 4 MPI tasks x no OpenMP threads
fix_modify k1 demflag 1
fix_modify d2 demflag 1
fix_modify d1 demflag 1
timestep 1e-3
run 3000 pre no post no
Step CPU Atoms c_myNtypes[2] c_myNtypes[3] c_myNtypes[4] c_myNtypes[5] c_myMass[2] c_myMass[3] c_myMass[4] 
  729244            0       70           10           49           10            1 1.4436266e-14 4.1064535e-14 1.003006e-14 
  732244  0.016369104       70           10           49           10            1 1.4436266e-14 4.1064535e-14 1.003006e-14 
Loop time of 0.0163865 on 4 procs for 3000 steps with 70 atoms

99.9% CPU use with 4 MPI tasks x no OpenMP threads
timestep 3600
fix_modify k1 demflag 0
fix_modify d2 demflag 0
fix_modify d1 demflag 0
Step CPU Atoms c_myNtypes[2] c_myNtypes[3] c_myNtypes[4] c_myNtypes[5] c_myMass[2] c_myMass[3] c_myMass[4] 
  732244            0       70           10           49           10            1 1.4436266e-14 4.1064535e-14 1.003006e-14 
number of iterations: 898 
  732245   0.44736004       70           10           49           10            1 1.4433205e-14 4.1232566e-14 1.0013016e-14 
Loop time of 0.447377 on 4 procs for 1 steps with 70 atoms

99.8% CPU use with 4 MPI tasks x no OpenMP threads
fix_modify k1 demflag 1
fix_modify d2 demflag 1
fix_modify d1 demflag 1
timestep 1e-3
run 3000 pre no post no
Step CPU Atoms c_myNtypes[2] c_myNtypes[3] c_myNtypes[4] c_myNtypes[5] c_myMass[2] c_myMass[3] c_myMass[4] 
  732245            0       70           10           49           10            1 1.4433205e-14 4.1232566e-14 1.0013016e-14 
  735245  0.016052008       70           10           49           10            1 1.4433205e-14 4.1232566e-14 1.0013016e-14 
Loop time of 0.0160677 on 4 procs for 3000 steps with 70 atoms

99.9% CPU use with 4 MPI tasks x no OpenMP threads
timestep 3600
fix_modify k1 demflag 0
fix_modify d2 demflag 0
fix_modify d1 demflag 0
Step CPU Atoms c_myNtypes[2] c_myNtypes[3] c_myNtypes[4] c_myNtypes[5] c_myMass[2] c_myMass[3] c_myMass[4] 
  735245            0       70           10           49           10            1 1.4433205e-14 4.1232566e-14 1.0013016e-14 
number of iterations: 2000 
  735246    0.8072989       70           10           49           10            1 1.4430144e-14 4.1401281e-14 9.9960021e-15 
Loop time of 0.807317 on 4 procs for 1 steps with 70 atoms

99.8% CPU use with 4 MPI tasks x no OpenMP threads
fix_modify k1 demflag 1
fix_modify d2 demflag 1
fix_modify d1 demflag 1
timestep 1e-3
run 3000 pre no post no
Step CPU Atoms c_myNtypes[2] c_myNtypes[3] c_myNtypes[4] c_myNtypes[5] c_myMass[2] c_myMass[3] c_myMass[4] 
  735246            0       70           10           49           10            1 1.4430144e-14 4.1401281e-14 9.9960021e-15 
  738246  0.015580893       70           10           49           10            1 1.4430144e-14 4.1401281e-14 9.9960021e-15 
Loop time of 0.015594 on 4 procs for 3000 steps with 70 atoms

99.9% CPU use with 4 MPI tasks x no OpenMP threads
timestep 3600
fix_modify k1 demflag 0
fix_modify d2 demflag 0
fix_modify d1 demflag 0
Step CPU Atoms c_myNtypes[2] c_myNtypes[3] c_myNtypes[4] c_myNtypes[5] c_myMass[2] c_myMass[3] c_myMass[4] 
  738246            0       70           10           49           10            1 1.4430144e-14 4.1401281e-14 9.9960021e-15 
number of iterations: 2000 
  738247   0.82555699       70           10           49           10            1 1.4427083e-14 4.1570683e-14 9.9790184e-15 
Loop time of 0.825577 on 4 procs for 1 steps with 70 atoms

99.8% CPU use with 4 MPI tasks x no OpenMP threads
fix_modify k1 demflag 1
fix_modify d2 demflag 1
fix_modify d1 demflag 1
timestep 1e-3
run 3000 pre no post no
Step CPU Atoms c_myNtypes[2] c_myNtypes[3] c_myNtypes[4] c_myNtypes[5] c_myMass[2] c_myMass[3] c_myMass[4] 
  738247            0       70           10           49           10            1 1.4427083e-14 4.1570683e-14 9.9790184e-15 
  741247  0.016030073       70           10           49           10            1 1.4427083e-14 4.1570683e-14 9.9790184e-15 
Loop time of 0.0160453 on 4 procs for 3000 steps with 70 atoms

99.9% CPU use with 4 MPI tasks x no OpenMP threads
timestep 3600
fix_modify k1 demflag 0
fix_modify d2 demflag 0
fix_modify d1 demflag 0
Step CPU Atoms c_myNtypes[2] c_myNtypes[3] c_myNtypes[4] c_myNtypes[5] c_myMass[2] c_myMass[3] c_myMass[4] 
  741247            0       70           10           49           10            1 1.4427083e-14 4.1570683e-14 9.9790184e-15 
number of iterations: 901 
  741248   0.44290805       70           10           49           10            1 1.4424024e-14 4.1740776e-14 9.9620641e-15 
Loop time of 0.442927 on 4 procs for 1 steps with 70 atoms

99.8% CPU use with 4 MPI tasks x no OpenMP threads
fix_modify k1 demflag 1
fix_modify d2 demflag 1
fix_modify d1 demflag 1
timestep 1e-3
run 3000 pre no post no
Step CPU Atoms c_myNtypes[2] c_myNtypes[3] c_myNtypes[4] c_myNtypes[5] c_myMass[2] c_myMass[3] c_myMass[4] 
  741248            0       70           10           49           10            1 1.4424024e-14 4.1740776e-14 9.9620641e-15 
  744248  0.018179893       70           10           49           10            1 1.4424024e-14 4.1740776e-14 9.9620641e-15 
Loop time of 0.0181987 on 4 procs for 3000 steps with 70 atoms

99.9% CPU use with 4 MPI tasks x no OpenMP threads
timestep 3600
fix_modify k1 demflag 0
fix_modify d2 demflag 0
fix_modify d1 demflag 0
Step CPU Atoms c_myNtypes[2] c_myNtypes[3] c_myNtypes[4] c_myNtypes[5] c_myMass[2] c_myMass[3] c_myMass[4] 
  744248            0       70           10           49           10            1 1.4424024e-14 4.1740776e-14 9.9620641e-15 
number of iterations: 2000 
  744249   0.81061196       70           10           49           10            1 1.4420965e-14 4.1911561e-14  9.94514e-15 
Loop time of 0.810632 on 4 procs for 1 steps with 70 atoms

99.8% CPU use with 4 MPI tasks x no OpenMP threads
fix_modify k1 demflag 1
fix_modify d2 demflag 1
fix_modify d1 demflag 1
timestep 1e-3
run 3000 pre no post no
Step CPU Atoms c_myNtypes[2] c_myNtypes[3] c_myNtypes[4] c_myNtypes[5] c_myMass[2] c_myMass[3] c_myMass[4] 
  744249            0       70           10           49           10            1 1.4420965e-14 4.1911561e-14  9.94514e-15 
  747249  0.015858889       70           10           49           10            1 1.4420965e-14 4.1911561e-14  9.94514e-15 
Loop time of 0.0158742 on 4 procs for 3000 steps with 70 atoms

99.9% CPU use with 4 MPI tasks x no OpenMP threads
timestep 3600
fix_modify k1 demflag 0
fix_modify d2 demflag 0
fix_modify d1 demflag 0
Step CPU Atoms c_myNtypes[2] c_myNtypes[3] c_myNtypes[4] c_myNtypes[5] c_myMass[2] c_myMass[3] c_myMass[4] 
  747249            0       70           10           49           10            1 1.4420965e-14 4.1911561e-14  9.94514e-15 
number of iterations: 2000 
  747250   0.81066704       70           10           49           10            1 1.4417907e-14 4.2083041e-14 9.9282459e-15 
Loop time of 0.810686 on 4 procs for 1 steps with 70 atoms

99.8% CPU use with 4 MPI tasks x no OpenMP threads
fix_modify k1 demflag 1
fix_modify d2 demflag 1
fix_modify d1 demflag 1
timestep 1e-3
run 3000 pre no post no
Step CPU Atoms c_myNtypes[2] c_myNtypes[3] c_myNtypes[4] c_myNtypes[5] c_myMass[2] c_myMass[3] c_myMass[4] 
  747250            0       70           10           49           10            1 1.4417907e-14 4.2083041e-14 9.9282459e-15 
  750250  0.016227961       70           10           49           10            1 1.4417907e-14 4.2083041e-14 9.9282459e-15 
Loop time of 0.0162439 on 4 procs for 3000 steps with 70 atoms

99.9% CPU use with 4 MPI tasks x no OpenMP threads
timestep 3600
fix_modify k1 demflag 0
fix_modify d2 demflag 0
fix_modify d1 demflag 0
Step CPU Atoms c_myNtypes[2] c_myNtypes[3] c_myNtypes[4] c_myNtypes[5] c_myMass[2] c_myMass[3] c_myMass[4] 
  750250            0       70           10           49           10            1 1.4417907e-14 4.2083041e-14 9.9282459e-15 
number of iterations: 896 
  750251   0.44537687       70           10           49           10            1 1.4414849e-14 4.2255221e-14 9.9113811e-15 
Loop time of 0.445395 on 4 procs for 1 steps with 70 atoms

99.5% CPU use with 4 MPI tasks x no OpenMP threads
fix_modify k1 demflag 1
fix_modify d2 demflag 1
fix_modify d1 demflag 1
timestep 1e-3
run 3000 pre no post no
Step CPU Atoms c_myNtypes[2] c_myNtypes[3] c_myNtypes[4] c_myNtypes[5] c_myMass[2] c_myMass[3] c_myMass[4] 
  750251            0       70           10           49           10            1 1.4414849e-14 4.2255221e-14 9.9113811e-15 
  753251  0.017897129       70           10           49           10            1 1.4414849e-14 4.2255221e-14 9.9113811e-15 
Loop time of 0.0179186 on 4 procs for 3000 steps with 70 atoms

99.8% CPU use with 4 MPI tasks x no OpenMP threads
timestep 3600
fix_modify k1 demflag 0
fix_modify d2 demflag 0
fix_modify d1 demflag 0
Step CPU Atoms c_myNtypes[2] c_myNtypes[3] c_myNtypes[4] c_myNtypes[5] c_myMass[2] c_myMass[3] c_myMass[4] 
  753251            0       70           10           49           10            1 1.4414849e-14 4.2255221e-14 9.9113811e-15 
number of iterations: 2000 
  753252   0.81136298       70           10           49           10            1 1.4411792e-14 4.2428101e-14 9.8945462e-15 
Loop time of 0.811383 on 4 procs for 1 steps with 70 atoms

99.7% CPU use with 4 MPI tasks x no OpenMP threads
fix_modify k1 demflag 1
fix_modify d2 demflag 1
fix_modify d1 demflag 1
timestep 1e-3
run 3000 pre no post no
Step CPU Atoms c_myNtypes[2] c_myNtypes[3] c_myNtypes[4] c_myNtypes[5] c_myMass[2] c_myMass[3] c_myMass[4] 
  753252            0       70           10           49           10            1 1.4411792e-14 4.2428101e-14 9.8945462e-15 
  756252  0.016587019       70           10           49           10            1 1.4411792e-14 4.2428101e-14 9.8945462e-15 
Loop time of 0.0166013 on 4 procs for 3000 steps with 70 atoms

99.9% CPU use with 4 MPI tasks x no OpenMP threads
timestep 3600
fix_modify k1 demflag 0
fix_modify d2 demflag 0
fix_modify d1 demflag 0
Step CPU Atoms c_myNtypes[2] c_myNtypes[3] c_myNtypes[4] c_myNtypes[5] c_myMass[2] c_myMass[3] c_myMass[4] 
  756252            0       70           10           49           10            1 1.4411792e-14 4.2428101e-14 9.8945462e-15 
number of iterations: 2000 
  756253   0.81005192       70           10           49           10            1 1.4408736e-14 4.2601686e-14 9.8777413e-15 
Loop time of 0.810071 on 4 procs for 1 steps with 70 atoms

99.8% CPU use with 4 MPI tasks x no OpenMP threads
fix_modify k1 demflag 1
fix_modify d2 demflag 1
fix_modify d1 demflag 1
timestep 1e-3
run 3000 pre no post no
Step CPU Atoms c_myNtypes[2] c_myNtypes[3] c_myNtypes[4] c_myNtypes[5] c_myMass[2] c_myMass[3] c_myMass[4] 
  756253            0       70           10           49           10            1 1.4408736e-14 4.2601686e-14 9.8777413e-15 
  759253  0.016060114       70           10           49           10            1 1.4408736e-14 4.2601686e-14 9.8777413e-15 
Loop time of 0.0160761 on 4 procs for 3000 steps with 70 atoms

99.9% CPU use with 4 MPI tasks x no OpenMP threads
timestep 3600
fix_modify k1 demflag 0
fix_modify d2 demflag 0
fix_modify d1 demflag 0
Step CPU Atoms c_myNtypes[2] c_myNtypes[3] c_myNtypes[4] c_myNtypes[5] c_myMass[2] c_myMass[3] c_myMass[4] 
  759253            0       70           10           49           10            1 1.4408736e-14 4.2601686e-14 9.8777413e-15 
number of iterations: 893 
  759254   0.44166899       71           10           50           10            1 1.440568e-14 4.2775978e-14 9.8609655e-15 
Loop time of 0.441687 on 4 procs for 1 steps with 71 atoms

99.8% CPU use with 4 MPI tasks x no OpenMP threads
fix_modify k1 demflag 1
fix_modify d2 demflag 1
fix_modify d1 demflag 1
timestep 1e-3
run 3000 pre no post no
Step CPU Atoms c_myNtypes[2] c_myNtypes[3] c_myNtypes[4] c_myNtypes[5] c_myMass[2] c_myMass[3] c_myMass[4] 
  759254            0       71           10           50           10            1 1.440568e-14 4.2775978e-14 9.8609655e-15 
  762254  0.019396782       71           10           50           10            1 1.440568e-14 4.2775978e-14 9.8609655e-15 
Loop time of 0.0194174 on 4 procs for 3000 steps with 71 atoms

99.9% CPU use with 4 MPI tasks x no OpenMP threads
