  Granular Flow Simulation 

       2  atoms 
       2 atom types 
       4 nutrients

   0.000000e-04   1.000000e-04  xlo xhi 
   0.000000e-04   1.000000e-04  ylo yhi 
   0.000000e-04   1.000000e-04  zlo zhi 

 Atoms

     1 1 5e-7 150 5e-05 5.1e-05 2e-05 5e-7 het
     2 2 5e-7 150 5e-05 5.2e-05 2e-05 5e-7 eps

 Nutrients

     1 sub l 8.00e-03 8.00e-02 8.00e-02 8.00e-02 8.00e-02 8.00e-02 8.00e-02
     2 go2 g 0.3846 0.3846 0.3846 0.3846 0.3846 0.3846 0.3846
     3 h2o g 0.1 0.1 0.1 0.1 0.1 0.1 0.1
     4 h g 0.1 0.1 0.1 0.1 0.1 0.1 0.1

 Diffusion Coeffs
     
     sub 7e-9
     go2 1e-9
     h2o 0
     h 0

 Ks
     
     het 9.38e-6
     eps 0

 Growth

     het 0.082
     eps 0

 Yield
    
     het 0.059
     eps 0.01
  
 Catabolism Coeffs
         
    het -2 0 2 0
    eps -2 0 2 0

 Anabolism Coeffs
          
    het 0 0 0 0 
    eps 0 0 0 0
 
 Nutrient Energy

    sub inf 1.64e1 inf inf inf 2
    go2 inf 0 inf inf inf 2
    h2o inf -2.3718e2 -1.57e2 inf inf 2
    h inf 0 inf inf inf 2

 Type Energy

    het inf -67 inf inf inf 2
    eps inf -67 inf inf inf 2

 Dissipation

    het 115
    eps 230
