LAMMPS (5 Nov 2016)
Reading data file ...
  orthogonal box = (0 0 0) to (0.0001 4e-05 0.0001)
  1 by 1 by 1 MPI processor grid
  reading atoms ...
  40 atoms
  10 nutrients
40 atoms in group AOB
Neighbor list info ...
  2 neighbor list requests
  update every 1 steps, delay 0 steps, check yes
  max neighbors/atom: 5000, page size: 100000
  master list distance cutoff = 1.5e-06
  ghost atom cutoff = 1.5e-06
  binsize = 7.5e-07, bins = 134 54 134
Setting up Verlet run ...
  Unit style    : lj
  Current step  : 0
  Time step     : 9
Memory usage per processor = 13.548 Mbytes
Step CPU Atoms biomass c_myNtypes[1] 
       0            0       40 3.1415927e-15           40 
number of iteration: 10000 
(N) Diff = -9.927239e-03, Biomass = 6.400438e-05, NO2 = 4.305615e-06, NH3  = 9.995549e-03 
     400    83.378236       80 3.1490154e-15           80 
number of iteration: 9250 
(N) Diff = 1.179082e-08, Biomass = 1.512117e-07, NO2 = 4.218480e-06, NH3  = -4.357901e-06 
     800    161.79107       80 3.156455e-15           80 
number of iteration: 8308 
(N) Diff = 2.417798e-09, Biomass = 1.515603e-07, NO2 = 4.227657e-06, NH3  = -4.376799e-06 
    1200    234.95386       80 3.1639118e-15           80 
number of iteration: 7784 
(N) Diff = 2.986686e-09, Biomass = 1.519099e-07, NO2 = 4.237098e-06, NH3  = -4.386021e-06 
    1600    302.65486       80 3.1713858e-15           80 
number of iteration: 7419 
(N) Diff = 3.374166e-09, Biomass = 1.522602e-07, NO2 = 4.246655e-06, NH3  = -4.395541e-06 
    2000    366.14264       80 3.178877e-15           80 
number of iteration: 7139 
(N) Diff = 3.471511e-09, Biomass = 1.526114e-07, NO2 = 4.256283e-06, NH3  = -4.405423e-06 
    2400    427.35628       80 3.1863855e-15           80 
number of iteration: 6912 
(N) Diff = 3.408146e-09, Biomass = 1.529633e-07, NO2 = 4.265964e-06, NH3  = -4.415519e-06 
    2800    486.53213       80 3.1939113e-15           80 
number of iteration: 6721 
(N) Diff = 3.339156e-09, Biomass = 1.533160e-07, NO2 = 4.275687e-06, NH3  = -4.425664e-06 
    3200    541.67999       80 3.2014544e-15           80 
number of iteration: 6556 
(N) Diff = 3.261674e-09, Biomass = 1.536695e-07, NO2 = 4.285447e-06, NH3  = -4.435855e-06 
    3600    594.41141       80 3.2090149e-15           80 
number of iteration: 6411 
(N) Diff = 3.183179e-09, Biomass = 1.540237e-07, NO2 = 4.295240e-06, NH3  = -4.446080e-06 
    4000    646.14849       80 3.2165929e-15           80 
number of iteration: 6283 
(N) Diff = 3.102312e-09, Biomass = 1.543787e-07, NO2 = 4.305064e-06, NH3  = -4.456340e-06 
    4400    696.98407       80 3.2241883e-15           80 
number of iteration: 6166 
(N) Diff = 3.059859e-09, Biomass = 1.547345e-07, NO2 = 4.314916e-06, NH3  = -4.466590e-06 
    4800     747.0567       80 3.2318013e-15           80 
number of iteration: 6060 
(N) Diff = 2.982384e-09, Biomass = 1.550911e-07, NO2 = 4.324795e-06, NH3  = -4.476904e-06 
    5200    795.55935       80 3.2394318e-15           80 
number of iteration: 5963 
(N) Diff = 2.939465e-09, Biomass = 1.554485e-07, NO2 = 4.334702e-06, NH3  = -4.487211e-06 
    5600    843.30373       80 3.2470798e-15           80 
number of iteration: 5874 
(N) Diff = 2.892639e-09, Biomass = 1.558066e-07, NO2 = 4.344634e-06, NH3  = -4.497548e-06 
    6000    890.53006       80 3.2547455e-15           80 
number of iteration: 5790 
(N) Diff = 2.847979e-09, Biomass = 1.561655e-07, NO2 = 4.354591e-06, NH3  = -4.507909e-06 
    6400    937.51764       80 3.2624289e-15           80 
number of iteration: 5713 
(N) Diff = 2.807291e-09, Biomass = 1.565251e-07, NO2 = 4.364574e-06, NH3  = -4.518292e-06 
    6800    983.52648       80 3.2701299e-15           80 
number of iteration: 5640 
(N) Diff = 2.768825e-09, Biomass = 1.568856e-07, NO2 = 4.374580e-06, NH3  = -4.528697e-06 
    7200    1028.8461       80 3.2778487e-15           80 
number of iteration: 5571 
(N) Diff = 2.732600e-09, Biomass = 1.572468e-07, NO2 = 4.384611e-06, NH3  = -4.539125e-06 
    7600    1073.7572       80 3.2855852e-15           80 
number of iteration: 5507 
(N) Diff = 2.699241e-09, Biomass = 1.576088e-07, NO2 = 4.394666e-06, NH3  = -4.549575e-06 
    8000    1118.2935       80 3.2933396e-15           80 
number of iteration: 5446 
(N) Diff = 2.667547e-09, Biomass = 1.579716e-07, NO2 = 4.404744e-06, NH3  = -4.560048e-06 
    8400    1163.0431       80 3.3011118e-15           80 
number of iteration: 5387 
(N) Diff = 2.625854e-09, Biomass = 1.583352e-07, NO2 = 4.414845e-06, NH3  = -4.570554e-06 
    8800    1206.8222       80 3.3089018e-15           80 
number of iteration: 5332 
(N) Diff = 2.607227e-09, Biomass = 1.586995e-07, NO2 = 4.424970e-06, NH3  = -4.581063e-06 
    9200    1250.3717       80 3.3167099e-15           80 
number of iteration: 5279 
(N) Diff = 2.580669e-09, Biomass = 1.590647e-07, NO2 = 4.435119e-06, NH3  = -4.591603e-06 
    9600      1293.45       80 3.3245358e-15           80 
number of iteration: 5229 
(N) Diff = 2.555183e-09, Biomass = 1.594306e-07, NO2 = 4.445291e-06, NH3  = -4.602166e-06 
   10000     1335.742       80 3.3323798e-15           80 
Loop time of 1335.74 on 1 procs for 10000 steps with 80 atoms

