LAMMPS (5 Nov 2016)
# NUFEB simulation

atom_style	bio
atom_modify	map array sort 100 5.0e-7
boundary	ff ff ff
newton		off
#processors  2 1 1

comm_modify	vel yes
read_data_bio atom.in
  orthogonal box = (0 0 0) to (0.0001 4e-05 0.0001)
  1 by 1 by 1 MPI processor grid
  reading atoms ...
  80 atoms
  5 nutrients

group HET type 1 2
80 atoms in group HET

neighbor	5e-7 bin
neigh_modify	delay 0 one 5000

#pair_style none
pair_style  gran/hooke/history 1.e-4 NULL 1.e-5 NULL 0.0 1

pair_coeff  * *
timestep 9

fix 1 all nve/limit 1e-7

fix fv all viscous 1e-5

fix xw all wall/gran hooke/history 2000 NULL 500.0 NULL 1.5 0 xplane  0.0   1.0e-04
fix yw all wall/gran hooke/history 2000 NULL 500.0 NULL 1.5 0 yplane  0.0   4.0e-05
fix zw all wall/gran hooke/history 2000 NULL 500.0 NULL 1.5 0 zplane  0.0   1.0e-04

variable kanc equal 50

fix xwa all walladh v_kanc xplane  0.0   1.0e-04
fix ywa all walladh v_kanc yplane  0.0   4.0e-05
fix zwa all walladh v_kanc zplane  0.0   1.0e-04

##############Ibm Variable Definitions##############

#Defining EPS density and ratio variables
variable EPSdens equal 30
variable EPSratio equal 1.25
variable divMass equal 7.21e-17

variable ke equal 5e+10

#Defining kinetics variables
variable temp equal 298.15
variable gasTran equal 0.08205746
variable gvol equal 8e-14
variable rth equal 0.0083144
variable pressure equal 1
variable ph equal 7.0
variable etaHET equal 0.0

#Defining diffusion variables
variable diffT equal 5e-4
variable tol equal 1e-6
variable bl equal -1
variable Q equal -1
variable rvol equal 1
variable Af equal -1
variable shearRate equal 0.0

##############Ibm functions##############

fix k1 all kinetics 400 30 12 30 v_temp v_rth v_gvol v_gasTran v_ph v_diffT v_bl
fix kgm all kinetics/growth/monod v_EPSdens v_etaHET
fix g1 all kinetics/diffusion v_shearRate v_tol v_Q v_rvol v_Af pp pp nd kg
fix d1 all divide 400 v_EPSdens v_divMass 31231

##############Ibm compute##############

compute myNtypes all ntypes

##############Simulation outputs##############

dump		id all custom 4000 snapshot.bubblemd id type diameter x y z
dump            d0 all bio 4000 concentration ntypes ave_concentration
thermo_style    custom step cpu atoms biomass c_myNtypes[*]
thermo		400
thermo_modify	lost ignore

run 192000
WARNING: EPS is not defined in fix_kinetics/kinetics/monod (../fix_bio_kinetics_monod.cpp:229)
Neighbor list info ...
  2 neighbor list requests
  update every 1 steps, delay 0 steps, check yes
  max neighbors/atom: 5000, page size: 100000
  master list distance cutoff = 1.5e-06
  ghost atom cutoff = 1.5e-06
  binsize = 7.5e-07 -> bins = 134 54 134
Memory usage per processor = 13.5504 Mbytes
Step CPU Atoms biomass c_myNtypes[1] c_myNtypes[2] 
       0            0       80 6.2831853e-15           40           40 
     400    10.995406      160 6.7940129e-15           80           80 
     800     14.38848      160 7.3469262e-15           80           80 
    1200    17.867713      160 7.9459628e-15           80           80 
    1600    21.531794      160 8.594896e-15           80           80 
    2000    25.439546      160 9.2977606e-15           80           80 
    2400    29.539184      172 1.0058868e-14           92           80 
    2800    33.882206      194 1.0882815e-14          114           80 
    3200    38.353825      212 1.1774483e-14          132           80 
    3600    43.114194      239 1.2739051e-14          147           92 
    4000    48.328936      268 1.3781977e-14          160          108 
    4400    53.790391      280 1.4908994e-14          160          120 
    4800    59.402988      293 1.6126082e-14          166          127 
    5200    65.932103      321  1.74395e-14          181          140 
    5600    72.678899      360 1.8855655e-14          211          149 
    6000    79.236421      395 2.0381184e-14          235          160 
    6400    85.592339      430 2.2022728e-14          270          160 
    6800    92.137825      459 2.3786992e-14          299          160 
    7200    99.055406      475 2.5680641e-14          315          160 
    7600    105.99022      495 2.7710233e-14          327          168 
    8000    113.24182      537 2.9882089e-14          353          184 
    8400    120.70642      580 3.2202028e-14          383          197 
    8800    127.95298      638 3.4675524e-14          425          213 
    9200    135.40655      706 3.7307648e-14          474          232 
    9600    142.92179      773 4.0102403e-14          516          257 
   10000    150.46178      842 4.3063554e-14          570          272 
   10400    158.00089      890 4.619285e-14          605          285 
   10800      165.456      948 4.949191e-14          648          300 
   11200    172.79209      993 5.2961001e-14          689          304 
   11600    180.41377     1053 5.659919e-14          739          314 
   12000     187.6914     1116 6.0404712e-14          791          325 
   12400    194.86844     1191 6.4375276e-14          855          336 
   12800    201.88291     1287 6.8507052e-14          931          356 
   13200    208.75686     1383 7.2796268e-14         1011          372 
   13600     215.5482     1491 7.7238355e-14         1095          396 
   14000    222.13199     1562 8.1826964e-14         1149          413 
   14400    228.48361     1663 8.6557434e-14         1221          442 
   14800    234.68639     1747 9.142409e-14         1280          467 
   15200    240.86772     1848 9.6420413e-14         1355          493 
   15600    246.68426     1953 1.015395e-13         1437          516 
   16000     252.5485     2041 1.0677624e-13         1498          543 
   16400    258.13706     2152 1.1212442e-13         1587          565 
   16800    263.64604     2270 1.175791e-13         1683          587 
   17200    268.99509     2371 1.2313227e-13         1766          605 
   17600    274.23342     2480 1.2877935e-13         1861          619 
   18000    279.28185     2603 1.3451543e-13         1965          638 
   18400    284.23695     2735 1.4033573e-13         2082          653 
   18800    289.11774     2840 1.4623487e-13         2167          673 
   19200     293.7451     2967 1.5220671e-13         2273          694 
   19600     298.3894     3083 1.5824929e-13         2366          717 
   20000    303.04043     3201 1.6435891e-13         2456          745 
   20400    307.34655     3340 1.7053087e-13         2559          781 
   20800    311.62651     3449 1.7676181e-13         2644          805 
   21200    315.69545     3564 1.8304792e-13         2733          831 
   21600    319.77665     3672 1.8938678e-13         2821          851 
   22000    323.72536     3785 1.9577585e-13         2905          880 
   22400    327.63768     3907 2.0221395e-13         2994          913 
   22800    331.46751     4041 2.0869689e-13         3098          943 
   23200    335.10449     4179 2.1522229e-13         3205          974 
   23600    338.76591     4328 2.2178818e-13         3318         1010 
   24000     342.4075     4477 2.2839227e-13         3436         1041 
   24400    345.97131     4636 2.3503344e-13         3565         1071 
   24800    349.53887     4774 2.4170963e-13         3672         1102 
   25200    352.98164     4914 2.4841909e-13         3788         1126 
   25600    356.41769     5054 2.5516094e-13         3905         1149 
   26000    359.79889     5187 2.6193304e-13         4017         1170 
   26400    363.07569     5332 2.6873347e-13         4142         1190 
   26800    366.27672     5473 2.7556202e-13         4259         1214 
   27200    369.40375     5618 2.8241658e-13         4378         1240 
   27600    372.52526     5731 2.8929565e-13         4460         1271 
   28000    375.60099     5853 2.9619881e-13         4558         1295 
   28400    378.58572     5993 3.0312531e-13         4675         1318 
   28800    381.71701     6146 3.1007528e-13         4797         1349 
   29200    384.60232     6270 3.1704572e-13         4895         1375 
   29600    387.53586     6395 3.2403752e-13         5000         1395 
   30000    390.42048     6540 3.3104833e-13         5112         1428 
   30400     393.2346     6690 3.3807763e-13         5229         1461 
   30800    396.05694     6830 3.4512581e-13         5343         1487 
   31200     399.0028     6950 3.5219301e-13         5441         1509 
   31600    401.86994     7084 3.5927734e-13         5554         1530 
   32000    404.65144     7226 3.663778e-13         5671         1555 
   32400    407.31506     7367 3.7349372e-13         5780         1587 
   32800    409.94427     7489 3.8062391e-13         5875         1614 
   33200    412.57044     7648 3.8776832e-13         6002         1646 
   33600    415.29859     7820 3.9492765e-13         6132         1688 
   34000       417.94     7968 4.0210039e-13         6242         1726 
   34400    420.63045     8112 4.0928687e-13         6362         1750 
   34800    423.23636     8259 4.1648598e-13         6473         1786 
   35200    425.81008     8419 4.2369705e-13         6606         1813 
   35600    428.45525     8555 4.3091979e-13         6709         1846 
   36000    431.01829     8692 4.381536e-13         6811         1881 
   36400    433.54993     8850 4.4539865e-13         6934         1916 
   36800    436.24822     8996 4.5265624e-13         7052         1944 
   37200    438.70938     9139 4.5992308e-13         7165         1974 
   37600     441.2809     9290 4.6720046e-13         7278         2012 
   38000    443.78285     9431 4.744885e-13         7390         2041 
   38400    446.30506     9581 4.8178688e-13         7514         2067 
   38800    448.81024     9740 4.8909391e-13         7641         2099 
   39200    451.48458     9898 4.9641038e-13         7771         2127 
   39600    454.46465    10027 5.0373601e-13         7875         2152 
   40000    457.18712    10174 5.1107022e-13         7991         2183 
   40400    459.82231    10341 5.1841349e-13         8107         2234 
   40800    462.26052    10485 5.2576482e-13         8224         2261 
   41200    464.84383    10643 5.3312469e-13         8350         2293 
   41600    467.48459    10788 5.404924e-13         8469         2319 
   42000    470.09908    10935 5.478674e-13         8591         2344 
   42400    472.64562    11098 5.5525033e-13         8728         2370 
   42800    475.11237    11261 5.6263975e-13         8865         2396 
   43200    477.80656    11400 5.7003634e-13         8970         2430 
   43600    480.52145    11551 5.7744022e-13         9083         2468 
   44000    483.34485    11694 5.8485019e-13         9206         2488 
   44400    485.92834    11861 5.9226704e-13         9342         2519 
   44800    488.58687    11984 5.9969054e-13         9448         2536 
   45200    490.98021    12133 6.0711997e-13         9572         2561 
   45600    493.43486    12289 6.1455587e-13         9704         2585 
   46000    496.07009    12427 6.2199742e-13         9819         2608 
   46400     498.4824    12578 6.2944432e-13         9943         2635 
   46800    501.14781    12728 6.3689721e-13        10068         2660 
   47200    503.78507    12875 6.4435649e-13        10180         2695 
   47600    506.12519    13044 6.5182107e-13        10317         2727 
   48000    508.72563    13201  6.59291e-13        10441         2760 
   48400    511.25718    13361 6.6676514e-13        10573         2788 
   48800    513.75557    13500 6.7424407e-13        10686         2814 
   49200    516.25605    13646 6.8172758e-13        10798         2848 
   49600    518.91062    13768 6.8921653e-13        10895         2873 
   50000    521.41545    13914 6.9671008e-13        11014         2900 
   50400    523.95367    14057 7.042089e-13        11121         2936 
   50800    526.47784    14201 7.1171232e-13        11237         2964 
   51200    528.94345    14351 7.1921939e-13        11355         2996 
   51600    531.41622    14506 7.2673167e-13        11475         3031 
   52000    534.03786    14666 7.3424796e-13        11604         3062 
   52400    536.82119    14802 7.4176907e-13        11716         3086 
   52800    539.43558    14948 7.4929469e-13        11824         3124 
   53200    542.13693    15098 7.5682528e-13        11948         3150 
   53600    544.86526    15242 7.6435979e-13        12055         3187 
   54000    547.62071    15382 7.7189695e-13        12172         3210 
   54400     550.3159    15536 7.7943752e-13        12295         3241 
   54800    552.93847    15730 7.8698291e-13        12445         3285 
   55200    555.63897    15888 7.9453147e-13        12574         3314 
   55600    558.34177    16038 8.0208344e-13        12704         3334 
   56000    561.21546    16187 8.0963875e-13        12822         3365 
   56400    563.95407    16352 8.1719769e-13        12959         3393 
   56800    566.56845    16525 8.2476095e-13        13092         3433 
   57200    569.16497    16673 8.3232744e-13        13218         3455 
   57600    571.64933    16814 8.398968e-13        13331         3483 
   58000    574.59912    16973 8.4746968e-13        13456         3517 
   58400    577.28244    17109 8.5504619e-13        13561         3548 
   58800    580.07988    17261 8.6262616e-13        13673         3588 
   59200    582.86404    17403 8.702098e-13        13785         3618 
   59600    585.63167    17547 8.7779569e-13        13895         3652 
   60000    588.44691    17685 8.8538429e-13        14000         3685 
   60400    591.20558    17859 8.9297597e-13        14132         3727 
   60800    594.00868    18016 9.0057044e-13        14247         3769 
   61200    597.24381    18180 9.0816719e-13        14378         3802 
   61600    600.23067    18323 9.1576706e-13        14499         3824 
   62000    603.02433    18451 9.2336919e-13        14593         3858 
   62400    605.94437    18606 9.3097462e-13        14723         3883 
   62800    609.02286    18759 9.3858251e-13        14848         3911 
   63200    611.97836    18911 9.4619318e-13        14976         3935 
   63600    614.84614    19069 9.5380595e-13        15110         3959 
   64000    617.57924    19230 9.6142149e-13        15239         3991 
   64400    620.40766    19387 9.6904057e-13        15365         4022 
   64800    623.35647    19548 9.7666172e-13        15491         4057 
   65200    626.31728    19717 9.8428408e-13        15636         4081 
   65600    629.48427    19871 9.9190926e-13        15760         4111 
   66000    632.34164    20019 9.9953663e-13        15872         4147 
   66400     635.1713    20180 1.0071664e-12        16002         4178 
   66800    638.26076    20343 1.0147978e-12        16137         4206 
   67200    641.25713    20496 1.0224319e-12        16254         4242 
   67600    644.31854    20666 1.0300674e-12        16392         4274 
   68000    647.42957    20844 1.0377056e-12        16538         4306 
   68400    650.92409    21003 1.0453449e-12        16663         4340 
   68800    653.85256    21150 1.052988e-12        16779         4371 
   69200     656.8227    21321 1.0606331e-12        16923         4398 
   69600    659.71947    21483 1.0682796e-12        17055         4428 
   70000    662.81288    21644 1.0759276e-12        17182         4462 
   70400    666.02771    21804 1.0835781e-12        17303         4501 
   70800    669.39249    21963 1.0912308e-12        17418         4545 
   71200    672.51542    22108 1.0988848e-12        17539         4569 
   71600    675.49209    22267 1.1065408e-12        17667         4600 
   72000    678.65672    22421 1.1141985e-12        17793         4628 
   72400    681.66253    22580 1.1218587e-12        17922         4658 
   72800    685.06523    22726 1.1295207e-12        18040         4686 
   73200    688.57549    22900 1.1371837e-12        18181         4719 
   73600    691.88555    23038 1.1448494e-12        18301         4737 
   74000    695.12804    23169 1.1525161e-12        18406         4763 
   74400    698.30553    23322 1.1601848e-12        18526         4796 
   74800    701.73266    23463 1.1678565e-12        18642         4821 
   75200    705.10129    23608 1.1755303e-12        18752         4856 
   75600    708.67616    23764 1.1832052e-12        18880         4884 
   76000    712.22598    23941 1.1908814e-12        19018         4923 
   76400    715.54441    24104 1.1985596e-12        19152         4952 
   76800    718.96643    24265 1.2062397e-12        19286         4979 
   77200    722.48275    24424 1.2139217e-12        19416         5008 
   77600    725.89313    24576 1.2216057e-12        19539         5037 
   78000    729.53196    24732 1.2292913e-12        19669         5063 
   78400    733.01297    24886 1.2369787e-12        19804         5082 
   78800    736.63552    25046 1.2446673e-12        19926         5120 
   79200    740.12826    25205 1.2523572e-12        20052         5153 
   79600    743.83782    25368 1.260049e-12        20191         5177 
   80000     747.4783    25534 1.2677411e-12        20315         5219 
   80400    751.04365    25710 1.2754351e-12        20453         5257 
   80800     754.5179    25868 1.2831287e-12        20581         5287 
   81200    758.15736    26005 1.2908252e-12        20686         5319 
   81600    761.73264    26151 1.2985239e-12        20798         5353 
   82000    765.26432    26319 1.306223e-12        20945         5374 
   82400    769.11943    26460 1.3139243e-12        21057         5403 
   82800    772.85543    26604 1.3216272e-12        21168         5436 
   83200     776.6232    26762 1.3293329e-12        21289         5473 
   83600    780.77092    26914 1.3370395e-12        21411         5503 
   84000     785.1705    27064 1.3447477e-12        21536         5528 
   84400    789.30318    27214 1.3524577e-12        21659         5555 
   84800    793.61782    27365 1.3601694e-12        21783         5582 
   85200    797.69591    27516 1.3678829e-12        21911         5605 
   85600    801.87063    27657 1.3755984e-12        22031         5626 
   86000    805.92914    27797 1.3833146e-12        22145         5652 
   86400    810.04169    27944 1.3910321e-12        22260         5684 
   86800     814.3389    28110 1.3987504e-12        22397         5713 
   87200    818.59575    28242 1.4064698e-12        22502         5740 
   87600    822.92102    28402 1.4141906e-12        22633         5769 
   88000     827.5397    28536 1.421913e-12        22743         5793 
   88400    831.87779    28706 1.4296377e-12        22884         5822 
   88800    836.37029    28860 1.4373636e-12        23006         5854 
   89200    840.89048    29028 1.4450905e-12        23140         5888 
   89600    845.29907    29182 1.4528176e-12        23266         5916 
   90000    849.67555    29340 1.460547e-12        23389         5951 
   90400    854.26434    29495 1.4682775e-12        23519         5976 
   90800    858.59049    29653 1.4760099e-12        23638         6015 
   91200    863.03228    29798 1.4837431e-12        23757         6041 
   91600    867.81543    29953 1.4914777e-12        23891         6062 
   92000    872.39384    30084 1.4992139e-12        23993         6091 
   92400     876.6481    30256 1.5069525e-12        24136         6120 
   92800    881.39716    30412 1.5146918e-12        24259         6153 
   93200    885.87834    30562 1.5224331e-12        24380         6182 
   93600    890.53602    30720 1.5301747e-12        24519         6201 
   94000    895.14626    30881 1.5379172e-12        24648         6233 
   94400    899.84872    31050 1.5456599e-12        24786         6264 
   94800    904.61468    31190 1.5534065e-12        24909         6281 
   95200    909.44072    31370 1.5611543e-12        25058         6312 
   95600    914.21888    31542 1.5689026e-12        25204         6338 
   96000     919.3565    31681 1.5766514e-12        25312         6369 
   96400    924.47145    31840 1.5844017e-12        25438         6402 
   96800    929.62517    31995 1.5921519e-12        25566         6429 
   97200    934.58555    32139 1.5999034e-12        25674         6465 
   97600     939.5663    32301 1.6076568e-12        25800         6501 
   98000    944.54037    32455 1.6154114e-12        25928         6527 
   98400    949.62439    32637 1.6231665e-12        26080         6557 
   98800    954.56575    32794 1.6309235e-12        26209         6585 
   99200     959.7736    32940 1.6386822e-12        26320         6620 
   99600     964.7577    33090 1.6464412e-12        26450         6640 
  100000    969.80963    33255   1.6542e-12        26593         6662 
  100400    975.07396    33438 1.6619608e-12        26738         6700 
  100800      980.209    33625 1.6697224e-12        26888         6737 
  101200    985.49055    33779 1.677484e-12        27012         6767 
  101600    990.72642    33932 1.6852478e-12        27141         6791 
  102000    996.49012    34105 1.6930121e-12        27283         6822 
  102400    1001.9603    34252 1.7007772e-12        27397         6855 
  102800    1007.2168    34417 1.7085438e-12        27526         6891 
  103200    1012.4335    34582 1.7163117e-12        27663         6919 
  103600    1017.4897    34737 1.7240804e-12        27795         6942 
  104000    1022.9622    34888 1.7318493e-12        27920         6968 
  104400    1028.4115    35051 1.7396201e-12        28060         6991 
  104800    1034.0704    35198 1.747391e-12        28175         7023 
  105200    1039.5431    35358 1.7551637e-12        28308         7050 
  105600    1045.1318    35509 1.7629383e-12        28434         7075 
  106000    1050.7069    35643 1.7707134e-12        28546         7097 
  106400    1055.9874    35781 1.7784901e-12        28658         7123 
  106800    1061.5383    35931 1.7862685e-12        28777         7154 
  107200    1067.2335    36101 1.7940466e-12        28912         7189 
  107600    1072.5574    36282 1.8018263e-12        29062         7220 
  108000    1078.3171    36415 1.8096075e-12        29173         7242 
  108400    1084.3976    36567 1.8173902e-12        29300         7267 
  108800     1090.117    36745 1.825174e-12        29449         7296 
  109200    1095.8434    36896 1.832959e-12        29575         7321 
  109600    1101.2685    37059 1.8407462e-12        29699         7360 
  110000    1107.2483    37225 1.8485343e-12        29827         7398 
  110400    1112.8623    37379 1.856323e-12        29953         7426 
  110800    1118.3059    37526 1.8641124e-12        30069         7457 
  111200    1124.3532    37698 1.8719026e-12        30210         7488 
  111600    1129.9193    37867 1.8796956e-12        30344         7523 
  112000    1135.7874    38025 1.8874904e-12        30465         7560 
  112400     1141.522    38172 1.8952857e-12        30595         7577 
  112800     1147.707    38327 1.9030802e-12        30730         7597 
  113200    1153.6524    38492 1.910878e-12        30863         7629 
  113600    1160.0447    38658 1.9186759e-12        30999         7659 
  114000    1165.8468    38826 1.9264762e-12        31137         7689 
  114400    1171.8856    38992 1.9342778e-12        31269         7723 
  114800     1178.039    39135 1.9420808e-12        31384         7751 
  115200    1184.4783    39287 1.9498848e-12        31514         7773 
  115600     1190.936    39432 1.9576896e-12        31637         7795 
  116000    1197.5803    39577 1.9654969e-12        31762         7815 
  116400    1204.3915    39740 1.9733061e-12        31897         7843 
  116800    1211.1071    39877 1.981117e-12        32014         7863 
  117200    1217.4301    40029 1.9889287e-12        32142         7887 
  117600      1223.81    40189 1.9967418e-12        32272         7917 
  118000    1229.9594    40331 2.0045558e-12        32392         7939 
  118400    1236.1282    40484 2.0123717e-12        32522         7962 
  118800    1242.5191    40649 2.0201898e-12        32656         7993 
  119200    1249.3371    40808 2.0280085e-12        32781         8027 
  119600    1255.9066    40950 2.0358286e-12        32894         8056 
  120000    1262.8814    41106 2.0436509e-12        33026         8080 
  120400    1269.1811    41229 2.0514742e-12        33127         8102 
  120800    1275.8138    41385 2.0592975e-12        33253         8132 
  121200    1282.4527    41531 2.0671225e-12        33376         8155 
  121600    1288.6969    41688 2.0749491e-12        33511         8177 
  122000    1295.6097    41857 2.0827766e-12        33650         8207 
  122400     1302.527    42017 2.0906068e-12        33790         8227 
  122800    1309.3573    42185 2.098439e-12        33918         8267 
  123200    1316.2162    42358 2.1062717e-12        34071         8287 
  123600    1322.9571    42511 2.1141075e-12        34201         8310 
  124000    1329.4193    42653 2.1219442e-12        34314         8339 
  124400    1336.1265    42808 2.1297813e-12        34443         8365 
  124800    1343.3592    42955 2.1376218e-12        34556         8399 
  125200      1350.18    43104 2.1454625e-12        34682         8422 
  125600    1357.1131    43269 2.1533052e-12        34819         8450 
  126000    1364.1449    43441 2.1611491e-12        34963         8478 
  126400    1370.8654    43597 2.1689942e-12        35093         8504 
  126800    1378.0874    43743 2.1768418e-12        35214         8529 
  127200      1384.99    43906 2.184693e-12        35359         8547 
  127600     1392.221    44060 2.1925462e-12        35482         8578 
  128000    1399.2966    44230 2.2003992e-12        35619         8611 
  128400    1406.3839    44401 2.208254e-12        35759         8642 
  128800    1413.4709    44563 2.2161103e-12        35892         8671 
  129200    1420.6042    44728 2.2239691e-12        36028         8700 
  129600    1427.6566    44864 2.2318298e-12        36140         8724 
  130000    1434.8258    45038 2.239691e-12        36282         8756 
  130400    1441.8108    45176 2.2475553e-12        36402         8774 
  130800    1449.0707    45354 2.2554213e-12        36548         8806 
  131200    1456.4207    45511 2.2632886e-12        36678         8833 
  131600    1463.9859    45656 2.2711587e-12        36796         8860 
  132000     1471.281    45816 2.2790294e-12        36922         8894 
  132400    1478.8463    45981 2.2869006e-12        37055         8926 
  132800     1486.117    46137 2.2947734e-12        37185         8952 
  133200    1493.0904    46290 2.3026486e-12        37316         8974 
  133600    1500.3335    46462 2.3105242e-12        37467         8995 
  134000    1507.4123    46608 2.3184009e-12        37587         9021 
  134400     1514.455    46758 2.3262801e-12        37707         9051 
  134800    1521.9464    46906 2.334159e-12        37829         9077 
  135200      1529.03    47063 2.3420412e-12        37962         9101 
  135600    1536.0999    47212 2.3499247e-12        38078         9134 
  136000    1543.3411    47402 2.3578086e-12        38226         9176 
  136400    1550.6752    47547 2.3656938e-12        38343         9204 
  136800    1557.6863    47717 2.3735785e-12        38478         9239 
  137200    1565.0079    47880 2.3814647e-12        38612         9268 
  137600    1572.5305    48055 2.3893521e-12        38762         9293 
  138000    1579.5689    48228 2.3972405e-12        38903         9325 
  138400    1586.7657    48370 2.4051315e-12        39026         9344 
  138800    1593.9004    48507 2.413023e-12        39139         9368 
  139200    1601.1992    48659 2.4209155e-12        39266         9393 
  139600    1608.4779    48825 2.4288097e-12        39405         9420 
  140000    1615.8817    48983 2.4367052e-12        39544         9439 
  140400    1623.2115    49124 2.4446013e-12        39660         9464 
  140800    1630.5467    49282 2.4524992e-12        39792         9490 
  141200    1637.7863    49454 2.460398e-12        39943         9511 
  141600    1645.0843    49628 2.468298e-12        40094         9534 
  142000    1652.6101    49801 2.4762007e-12        40234         9567 
  142400     1660.207    49940 2.4841022e-12        40354         9586 
  142800    1667.3066    50102 2.4920056e-12        40488         9614 
  143200    1674.8443    50249 2.4999099e-12        40611         9638 
  143600    1682.2529    50420 2.5078154e-12        40755         9665 
  144000     1689.883    50585 2.5157225e-12        40900         9685 
  144400    1697.4552    50741 2.5236299e-12        41037         9704 
  144800     1705.196    50895 2.5315375e-12        41171         9724 
  145200     1712.757    51108 2.5394469e-12        41348         9760 
  145600    1720.1705    51276 2.5473572e-12        41487         9789 
  146000    1728.2359    51434 2.555267e-12        41616         9818 
  146400     1736.292    51618 2.5631769e-12        41760         9858 
  146800    1743.9928    51786 2.5710896e-12        41903         9883 
  147200    1751.8711    51971 2.5790032e-12        42056         9915 
  147600    1759.7308    52127 2.5869171e-12        42190         9937 
  148000    1767.9917    52274 2.5948307e-12        42308         9966 
  148400    1776.0554    52435 2.6027459e-12        42441         9994 
  148800    1784.2492    52594 2.6106622e-12        42570        10024 
  149200    1792.2656    52765 2.6185805e-12        42709        10056 
  149600    1800.6259    52939 2.6264984e-12        42860        10079 
  150000    1808.4346    53107 2.6344174e-12        43008        10099 
  150400    1816.9915    53270 2.6423374e-12        43144        10126 
  150800     1825.114    53414 2.6502581e-12        43263        10151 
  151200     1833.461    53586  2.65818e-12        43401        10185 
  151600    1842.2777    53759 2.6661023e-12        43550        10209 
  152000    1850.9079    53896 2.6740255e-12        43657        10239 
  152400    1859.6807    54053 2.6819494e-12        43788        10265 
  152800    1868.2228    54200 2.689874e-12        43900        10300 
  153200    1876.9724    54351 2.6978002e-12        44021        10330 
  153600    1885.7291    54507 2.7057288e-12        44154        10353 
  154000    1894.9032    54678 2.7136584e-12        44297        10381 
  154400    1904.3246    54821 2.7215901e-12        44418        10403 
  154800    1913.4935    54977 2.7295227e-12        44551        10426 
  155200    1922.7373    55120 2.7374574e-12        44675        10445 
  155600    1932.4606    55260 2.7453923e-12        44793        10467 
  156000    1941.8406    55420 2.7533298e-12        44930        10490 
  156400    1951.7113    55588 2.7612687e-12        45069        10519 
  156800    1961.0633    55759 2.7692073e-12        45211        10548 
  157200    1970.8459    55917 2.7771489e-12        45346        10571 
  157600    1981.1089    56082 2.7850911e-12        45483        10599 
  158000    1991.4339    56248 2.7930346e-12        45628        10620 
  158400    2001.6277    56409 2.8009821e-12        45771        10638 
  158800    2011.2289    56575 2.8089324e-12        45916        10659 
  159200    2021.3078    56721 2.8168827e-12        46035        10686 
  159600    2031.5768    56881 2.8248356e-12        46174        10707 
  160000    2041.8244    57017 2.8327911e-12        46293        10724 
  160400    2051.8005    57190 2.8407477e-12        46446        10744 
  160800    2062.7367    57342 2.8487076e-12        46574        10768 
  161200    2072.9116    57509 2.8566704e-12        46711        10798 
  161600     2083.277    57676 2.864637e-12        46847        10829 
  162000    2093.2591    57853 2.8726063e-12        47004        10849 
  162400    2104.1197    58019 2.8805784e-12        47142        10877 
  162800    2114.4741    58176 2.8885528e-12        47275        10901 
  163200    2124.8333    58309 2.8965285e-12        47392        10917 
  163600    2135.2815    58479 2.904507e-12        47521        10958 
  164000    2145.8685    58648 2.9124861e-12        47666        10982 
  164400    2156.2462    58822 2.9204672e-12        47814        11008 
  164800    2166.9612    58998 2.9284514e-12        47964        11034 
  165200    2177.6961    59161 2.9364378e-12        48098        11063 
  165600    2188.1323    59334 2.9444276e-12        48246        11088 
  166000    2198.2453    59484 2.9524201e-12        48370        11114 
  166400    2208.5423    59666 2.9604143e-12        48523        11143 
  166800    2219.1763    59844 2.9684127e-12        48681        11163 
  167200    2229.1944    59997 2.9764125e-12        48811        11186 
  167600    2239.5477    60166 2.9844142e-12        48947        11219 
  168000    2249.7493    60321 2.9924187e-12        49072        11249 
  168400    2260.3981    60496 3.0004255e-12        49215        11281 
  168800    2270.5331    60666 3.0084355e-12        49350        11316 
  169200    2281.2218    60846 3.0164468e-12        49505        11341 
  169600    2291.6425    60993 3.0244594e-12        49634        11359 
  170000    2301.9825    61162 3.0324745e-12        49782        11380 
  170400    2312.2164    61310 3.0404924e-12        49907        11403 
  170800    2322.6362    61467 3.0485109e-12        50037        11430 
  171200    2333.0939    61626 3.0565324e-12        50170        11456 
  171600    2343.5864    61778 3.0645555e-12        50297        11481 
  172000    2353.6686    61955 3.0725798e-12        50448        11507 
  172400    2364.2305    62140 3.0806046e-12        50594        11546 
  172800    2374.7752    62317 3.0886318e-12        50744        11573 
  173200     2385.148    62485 3.0966598e-12        50891        11594 
  173600    2395.5935    62637 3.1046913e-12        51023        11614 
  174000    2406.1671    62781 3.1127236e-12        51146        11635 
  174400    2416.6955    62936 3.120758e-12        51282        11654 
  174800    2427.2467    63082 3.1287937e-12        51400        11682 
  175200    2437.8947    63268 3.1368318e-12        51565        11703 
  175600    2448.4036    63428 3.1448736e-12        51702        11726 
  176000    2459.0904    63606 3.1529166e-12        51851        11755 
  176400    2469.6047    63781 3.1609603e-12        51999        11782 
  176800    2479.5892    63945 3.1690062e-12        52140        11805 
  177200    2490.3497    64097 3.1770521e-12        52273        11824 
  177600    2500.7979    64254 3.1851007e-12        52411        11843 
  178000    2511.1324    64404 3.1931503e-12        52536        11868 
  178400    2521.4786    64529 3.2012022e-12        52634        11895 
  178800    2531.9923    64676 3.2092548e-12        52765        11911 
  179200    2542.1016    64854 3.2173083e-12        52921        11933 
  179600    2552.8895    65023 3.2253628e-12        53063        11960 
  180000    2563.3893    65203 3.2334197e-12        53223        11980 
  180400    2573.6091    65374 3.2414788e-12        53372        12002 
  180800    2584.2429    65499 3.2495376e-12        53480        12019 
  181200    2594.4662    65660 3.2575981e-12        53621        12039 
  181600    2605.2278    65808 3.2656596e-12        53748        12060 
  182000    2615.3977    65945 3.2737239e-12        53861        12084 
  182400    2625.7002    66074 3.2817879e-12        53972        12102 
  182800    2635.9869    66242 3.2898528e-12        54120        12122 
  183200    2646.1295    66409  3.29792e-12        54258        12151 
  183600    2656.8151    66591 3.3059886e-12        54415        12176 
  184000    2667.7203    66750 3.3140593e-12        54553        12197 
  184400    2678.2903    66917 3.3221308e-12        54693        12224 
  184800    2688.4574    67065 3.3302038e-12        54823        12242 
  185200    2698.7349    67231 3.3382766e-12        54958        12273 
  185600     2709.108    67389 3.3463516e-12        55088        12301 
  186000    2719.7153    67548 3.3544276e-12        55227        12321 
  186400    2730.1789    67723 3.3625042e-12        55380        12343 
  186800    2741.0836    67890 3.3705819e-12        55534        12356 
  187200    2751.7284    68051 3.3786614e-12        55672        12379 
  187600    2762.3611    68228 3.3867415e-12        55818        12410 
  188000    2772.8517    68407 3.394823e-12        55969        12438 
  188400    2783.2185    68578 3.402906e-12        56119        12459 
  188800    2793.7885    68733 3.4109896e-12        56250        12483 
  189200    2804.4981    68890 3.4190746e-12        56380        12510 
  189600    2814.9742    69069 3.4271618e-12        56532        12537 
  190000    2825.5759    69234 3.4352499e-12        56675        12559 
  190400    2836.0997    69387 3.4433385e-12        56801        12586 
  190800    2846.5778    69561 3.4514271e-12        56949        12612 
  191200    2856.8748    69731 3.4595162e-12        57092        12639 
  191600    2867.5744    69908 3.4676074e-12        57242        12666 
  192000    2878.2986    70063 3.4756993e-12        57374        12689 
Loop time of 2878.3 on 1 procs for 192000 steps with 70063 atoms

Performance: 51870642.096 tau/day, 66.706 timesteps/s
100.0% CPU use with 1 MPI tasks x no OpenMP threads

MPI task timing breakdown:
Section |  min time  |  avg time  |  max time  |%varavg| %total
---------------------------------------------------------------
Pair    | 705.83     | 705.83     | 705.83     |   0.0 | 24.52
Neigh   | 615.01     | 615.01     | 615.01     |   0.0 | 21.37
Comm    | 27.191     | 27.191     | 27.191     |  -nan |  0.94
Output  | 4.6025     | 4.6025     | 4.6025     |   0.0 |  0.16
Modify  | 1467.7     | 1467.7     | 1467.7     |   0.0 | 50.99
Other   |            | 57.95      |            |       |  2.01

Nlocal:    70063 ave 70063 max 70063 min
Histogram: 1 0 0 0 0 0 0 0 0 0
Nghost:    0 ave 0 max 0 min
Histogram: 1 0 0 0 0 0 0 0 0 0
Neighs:    452853 ave 452853 max 452853 min
Histogram: 1 0 0 0 0 0 0 0 0 0

Total # of neighbors = 452853
Ave neighs/atom = 6.46351
Neighbor list builds = 14002
Dangerous builds = 0

Total wall time: 0:47:58
