LAMMPS (5 Nov 2016)
# NUFEB simulation

atom_style	bio
atom_modify	map array sort 1000 5.0e-7
boundary	ff ff ff
newton		off
#processors  2 1 1

comm_modify	vel yes
read_data_bio atom.in
  orthogonal box = (0 0 0) to (0.0001 0.0001 0.0001)
  1 by 1 by 1 MPI processor grid
  reading atoms ...
  3 atoms
  10 nutrients

group AOB type 1
1 atoms in group AOB
group NOB type 2
1 atoms in group NOB
group COMM type 3
1 atoms in group COMM

neighbor	5.0e-7 bin
neigh_modify	delay 0 one 5000

#pair_style none
pair_style  gran/hooke/history 0.000200 NULL 0.000050 NULL 0.0 1

pair_coeff  * *
timestep 36

fix 1 all nve/limit 1e-8

#fix	 2 all gravity 1.47 vector 0 0 -1 # spherical 90.0 -180.0
#fix     3 all fdrag
fix 10 all viscous 0.1


fix xw all wall/gran hooke/history 2000 NULL 500.0 NULL 1.5 0 xplane  0.0   1.0e-04
fix yw all wall/gran hooke/history 2000 NULL 500.0 NULL 1.5 0 yplane  0.0   1.0e-04
fix zw all wall/gran hooke/history 2000 NULL 500.0 NULL 1.5 0 zplane  0.0   1.0e-04

variable kanc equal 50

fix xwa all walladh v_kanc xplane  0.0   1.0e-04
fix ywa all walladh v_kanc yplane  0.0   1.0e-04
fix zwa all walladh v_kanc zplane  0.0   1.0e-04

##############Ibm Variable Definitions##############

#Defining EPS density and ratio variables
variable EPSdens equal 30
variable EPSratio equal 1.25

variable ke equal 5e+10

#Defining kinetics variables
variable temp equal 298.15
variable gasTran equal 0.08205746
variable gvol equal 8e-14
variable rth equal 0.0083144
variable pressure equal 1
variable ph equal 7.0

#Defining diffusion variables
variable diffT equal 1e-4
variable tol equal 1e-5

##############Ibm functions##############

fix k1 all kinetics 25 25 25 v_temp v_rth v_gvol v_gasTran v_ph
fix g1 all diffusion exp v_diffT v_tol pp pp nd
#fix ki3 all kinetics/ph 1
fix ki2 all kinetics/thermo 1 fix open v_pressure
fix ki1 all kinetics/monod 1 v_EPSdens
fix d1 all divide 1 v_EPSdens 1 31231

#fix j1 all epsadh 1 v_ke 1
#fix e1 HET eps_extract 16 v_EPSratio v_EPSdens 1242242

##############Ibm compute##############

compute myMass all biomass
compute myNtypes all ntypes

##############Simulation outputs##############

#dump		id all custom 250 snapshot.bubblemd id type diameter x y z
dump            d0 all bio 500 biomass Conc
thermo_style    custom step cpu atoms biomass c_myNtypes[*] c_myMass[2]
thermo		5
thermo_modify	lost ignore

run  10000
Neighbor list info ...
  2 neighbor list requests
  update every 1 steps, delay 0 steps, check yes
  max neighbors/atom: 5000, page size: 100000
  master list distance cutoff = 1.466e-06
  ghost atom cutoff = 1.466e-06
  binsize = 7.33e-07 -> bins = 137 137 137
Memory usage per processor = 18.9946 Mbytes
Step CPU Atoms biomass c_myNtypes[1] c_myNtypes[2] c_myNtypes[3] c_myMass[2] 
       0            0        3 4.1062866e-16            1            1            1 1.3687622e-16 
       5    6.1354041        3 4.1163246e-16            1            1            1 1.3692446e-16 
      10    12.314159        3 4.1271055e-16            1            1            1 1.3704367e-16 
      15    18.581131        3 4.1373313e-16            1            1            1  1.37104e-16 
      20    24.773127        3 4.1482586e-16            1            1            1 1.3723113e-16 
      25    31.266882        3 4.1585751e-16            1            1            1 1.3729381e-16 
      30    37.484389        3 4.1695894e-16            1            1            1 1.3742289e-16 
      35    44.072807        3 4.1799814e-16            1            1            1 1.3748634e-16 
      40    50.319526        3 4.191073e-16            1            1            1 1.3761634e-16 
      45    56.779218        3 4.2015383e-16            1            1            1 1.376803e-16 
      50    62.933385        3 4.2127059e-16            1            1            1 1.3781105e-16 
      55    69.240976        3 4.2232445e-16            1            1            1 1.3787546e-16 
      60    75.317206        3 4.2344881e-16            1            1            1 1.3800691e-16 
      65     81.57656        3 4.2451003e-16            1            1            1 1.3807176e-16 
      70    87.774136        3 4.2564204e-16            1            1            1 1.3820392e-16 
      75    94.138623        3 4.2671066e-16            1            1            1 1.382692e-16 
      80    100.28734        3 4.2785037e-16            1            1            1 1.3840206e-16 
      85    107.05753        3 4.2892646e-16            1            1            1 1.3846778e-16 
      90    113.47971        3 4.3007393e-16            1            1            1 1.3860136e-16 
      95    120.49252        3 4.3115752e-16            1            1            1 1.3866752e-16 
     100    127.35804        3 4.3231278e-16            1            1            1 1.388018e-16 
     105    133.86271        3 4.3340393e-16            1            1            1 1.388684e-16 
     110    140.12859        3 4.3456706e-16            1            1            1 1.3900339e-16 
     115    146.70416        3 4.3566582e-16            1            1            1 1.3907043e-16 
     120    153.00029        3 4.3683685e-16            1            1            1 1.3920614e-16 
     125    159.42553        3 4.3794327e-16            1            1            1 1.3927362e-16 
     130    165.81102        3 4.3912225e-16            1            1            1 1.3941004e-16 
     135     172.4749        3 4.4023638e-16            1            1            1 1.3947796e-16 
     140    178.76505        3 4.4142338e-16            1            1            1 1.396151e-16 
     145    185.14957        3 4.4254527e-16            1            1            1 1.3968346e-16 
     150    191.28942        4 4.4374033e-16            2            1            1 1.3982132e-16 
     155    197.70844        5 4.4487004e-16            2            1            2 1.3989013e-16 
     160    203.80801        5 4.4607321e-16            2            1            2 1.400287e-16 
     165    210.13676        5 4.4721079e-16            2            1            2 1.4009796e-16 
     170    216.32684        5 4.4842214e-16            2            1            2 1.4023725e-16 
     175    222.72619        5 4.4956764e-16            2            1            2 1.4030696e-16 
     180    228.90842        5 4.5078721e-16            2            1            2 1.4044697e-16 
     185    235.23425        5 4.5194068e-16            2            1            2 1.4051712e-16 
     190    241.36766        5 4.5316852e-16            2            1            2 1.4065785e-16 
     195    247.73161        5 4.5433002e-16            2            1            2 1.4072845e-16 
     200    253.81696        5 4.555662e-16            2            1            2 1.4086992e-16 
     205    260.07859        5 4.5673578e-16            2            1            2 1.4094096e-16 
     210    266.41335        5 4.5798034e-16            2            1            2 1.4108315e-16 
     215    273.88655        5 4.5915806e-16            2            1            2 1.4115465e-16 
     220    280.18188        5 4.6041106e-16            2            1            2 1.4129756e-16 
     225    286.47962        5 4.6159697e-16            2            1            2 1.4136951e-16 
     230    292.60147        5 4.6285848e-16            2            1            2 1.4151316e-16 
     235    298.84724        5 4.6405263e-16            2            1            2 1.4158556e-16 
     240     304.8961        5 4.6532268e-16            2            1            2 1.4172994e-16 
     245     311.0988        5 4.6652514e-16            2            1            2 1.4180278e-16 
     250    317.12523        5 4.678038e-16            2            1            2 1.419479e-16 
     255    323.35482        5 4.6901461e-16            2            1            2 1.420212e-16 
     260    329.42337        5 4.7030194e-16            2            1            2 1.4216704e-16 
     265      335.658        5 4.7152116e-16            2            1            2 1.422408e-16 
     270    341.69474        5 4.7281721e-16            2            1            2 1.4238738e-16 
     275    347.91217        5 4.740449e-16            2            1            2 1.4246159e-16 
     280    353.97408        5 4.7534974e-16            2            1            2 1.4260891e-16 
     285    360.14079        5 4.7658596e-16            2            1            2 1.4268357e-16 
     290    366.12617        5 4.7789962e-16            2            1            2 1.4283163e-16 
     295    372.30737        5 4.7914443e-16            2            1            2 1.4290675e-16 
     300    378.30647        5 4.8046699e-16            2            1            2 1.4305555e-16 
     305     384.5871        5 4.8172044e-16            2            1            2 1.4313113e-16 
     310    390.69427        5 4.8305196e-16            2            1            2 1.4328067e-16 
     315    396.90907        5 4.843141e-16            2            1            2 1.4335671e-16 
     320    402.97436        5 4.8565464e-16            2            1            2 1.4350699e-16 
     325    409.24968        5 4.8692553e-16            2            1            2 1.4358348e-16 
     330    415.32233        5 4.8827515e-16            2            1            2 1.4373451e-16 
     335    421.56877        5 4.8955486e-16            2            1            2 1.4381146e-16 
     340    427.62272        5 4.909136e-16            2            1            2 1.4396324e-16 
     345    433.84406        5 4.922022e-16            2            1            2 1.4404065e-16 
     350    439.88124        5 4.9357013e-16            2            1            2 1.4419317e-16 
     355    446.08346        5 4.9486766e-16            2            1            2 1.4427105e-16 
     360    452.15546        5 4.9624485e-16            2            1            2 1.4442432e-16 
     365     458.4038        5 4.9755138e-16            2            1            2 1.4450266e-16 
     370    464.45382        5 4.9893788e-16            2            1            2 1.4465668e-16 
     375    470.59275        5 5.0025346e-16            2            1            2 1.4473548e-16 
     380     476.5681        5 5.0164934e-16            2            1            2 1.4489026e-16 
     385    482.71381        5 5.0297403e-16            2            1            2 1.4496952e-16 
     390    488.69117        5 5.0437935e-16            2            1            2 1.4512505e-16 
     395    494.86619        5 5.0571323e-16            2            1            2 1.4520477e-16 
     400    500.84659        5 5.0712805e-16            2            1            2 1.4536106e-16 
     405    506.96752        5 5.0847116e-16            2            1            2 1.4544124e-16 
     410    512.92242        5 5.0989555e-16            2            1            2 1.4559829e-16 
     415    519.02123        5 5.1124796e-16            2            1            2 1.4567894e-16 
     420    524.95243        5 5.1268197e-16            2            1            2 1.4583674e-16 
     425    531.08145        5 5.1404376e-16            2            1            2 1.4591786e-16 
     430    537.04745        5 5.1548745e-16            2            1            2 1.4607642e-16 
     435    543.16305        5 5.1685867e-16            2            1            2 1.4615801e-16 
     440    549.12642        5 5.1831212e-16            2            1            2 1.4631733e-16 
     445    555.22552        5 5.1969282e-16            2            1            2 1.4639939e-16 
     450    561.14229        5 5.2115609e-16            2            1            2 1.4655947e-16 
     455    567.22017        5 5.2254635e-16            2            1            2 1.4664199e-16 
     460    573.14233        5 5.240195e-16            2            1            2 1.4680284e-16 
     465    579.22567        5 5.2541938e-16            2            1            2 1.4688583e-16 
     470    585.13896        5 5.2690248e-16            2            1            2 1.4704744e-16 
     475    591.19521        5 5.2831205e-16            2            1            2 1.471309e-16 
     480    597.09222        5 5.2980516e-16            2            1            2 1.4729328e-16 
     485    603.12026        5 5.3122447e-16            2            1            2 1.4737721e-16 
     490    609.00334        5 5.3272766e-16            2            1            2 1.4754036e-16 
     495    615.03298        5 5.3415679e-16            2            1            2 1.4762476e-16 
     500    620.97606        5 5.3567013e-16            2            1            2 1.4778867e-16 
     505    627.02667        5 5.3710913e-16            2            1            2 1.4787355e-16 
     510    632.97524        5 5.3863269e-16            2            1            2 1.4803823e-16 
     515    639.02439        5 5.4008164e-16            2            1            2 1.4812358e-16 
     520    644.92875        5 5.4161547e-16            2            1            2 1.4828903e-16 
     525    650.97311        5 5.4307444e-16            2            1            2 1.4837485e-16 
     530    656.85829        5 5.4461862e-16            2            1            2 1.4854108e-16 
     535    662.89283        5 5.4608768e-16            2            1            2 1.4862737e-16 
     540    668.78249        5 5.4764227e-16            2            1            2 1.4879438e-16 
     545    674.81783        5 5.4912148e-16            2            1            2 1.4888114e-16 
     550    680.69955        5 5.5068656e-16            2            1            2 1.4904892e-16 
     555    686.73425        5 5.5217598e-16            2            1            2 1.4913616e-16 
     560    692.60498        5 5.5375162e-16            2            1            2 1.4930472e-16 
     565    698.62852        5 5.5525133e-16            2            1            2 1.4939244e-16 
     570    704.50753        5 5.5683759e-16            2            1            2 1.4956177e-16 
     575    710.58811        5 5.5834766e-16            2            1            2 1.4964997e-16 
     580    716.52221        5 5.5994461e-16            2            1            2 1.4982008e-16 
     585    722.58695        5 5.6146511e-16            2            1            2 1.4990875e-16 
     590    728.55441        5 5.6307284e-16            2            1            2 1.5007965e-16 
     595    734.65527        5 5.6460383e-16            2            1            2 1.501688e-16 
     600    740.61836        5 5.6622239e-16            2            1            2 1.5034048e-16 
     605    746.65492        5 5.6776395e-16            2            1            2 1.504301e-16 
     610    752.54064        5 5.6939342e-16            2            1            2 1.5060257e-16 
     615    758.57608        5 5.7094562e-16            2            1            2 1.5069268e-16 
     620    764.45652        5 5.7258607e-16            2            1            2 1.5086592e-16 
     625    770.45935        5 5.7414898e-16            2            1            2 1.5095651e-16 
     630    776.32942        5 5.7580048e-16            2            1            2 1.5113054e-16 
     635    782.32836        5 5.7737418e-16            2            1            2 1.5122161e-16 
     640    788.17763        5 5.790368e-16            2            1            2 1.5139643e-16 
     645    794.18277        5 5.8062136e-16            2            1            2 1.5148798e-16 
     650    800.04731        5 5.8229518e-16            2            1            2 1.5166359e-16 
     655    806.06231        5 5.8389066e-16            2            1            2 1.5175561e-16 
     660    811.91548        5 5.8557576e-16            2            1            2 1.5193201e-16 
     665    817.89716        6 5.8718225e-16            2            2            2 1.5202453e-16 
     670    823.73237        6 5.8887869e-16            2            2            2 1.5220171e-16 
     675    829.70394        6 5.9049625e-16            2            2            2 1.5229471e-16 
     680    835.53608        6 5.9220412e-16            2            2            2 1.5247268e-16 
     685    841.53531        6 5.9383284e-16            2            2            2 1.5256616e-16 
     690    847.37747        6 5.9555221e-16            2            2            2 1.5274494e-16 
     695    853.33468        6 5.9719215e-16            2            2            2 1.528389e-16 
     700    859.17226        6 5.989231e-16            2            2            2 1.5301846e-16 
     705     865.1304        6 6.0057434e-16            2            2            2 1.5311291e-16 
     710    870.94916        6 6.0231694e-16            2            2            2 1.5329327e-16 
     715    876.90705        6 6.0397956e-16            2            2            2 1.533882e-16 
     720    882.71559        6 6.0573389e-16            2            2            2 1.5356936e-16 
     725    888.66614        6 6.0740797e-16            2            2            2 1.5366478e-16 
     730    894.48566        6 6.091741e-16            2            2            2 1.5384674e-16 
     735    900.44287        6 6.1085972e-16            2            2            2 1.5394264e-16 
     740    906.26925        6 6.1263774e-16            2            2            2 1.541254e-16 
     745    912.22372        6 6.1433497e-16            2            2            2 1.5422179e-16 
     750    918.02911        6 6.1612495e-16            2            2            2 1.5440535e-16 
     755    923.96343        6 6.1783387e-16            2            2            2 1.5450223e-16 
     760    929.76983        6 6.196359e-16            2            2            2 1.5468659e-16 
     765    935.70053        6 6.2135659e-16            2            2            2 1.5478396e-16 
     770    941.51389        6 6.2317075e-16            2            2            2 1.5496912e-16 
     775    947.43803        6 6.2490328e-16            2            2            2 1.5506698e-16 
     780     953.2434        6 6.2672964e-16            2            2            2 1.5525295e-16 
     785    959.20398        6 6.2847411e-16            2            2            2 1.553513e-16 
     790    965.04923        6 6.3031276e-16            2            2            2 1.5553808e-16 
     795    970.99086        6 6.3206923e-16            2            2            2 1.5563691e-16 
     800    976.80895        6 6.3392024e-16            2            2            2 1.558245e-16 
     805    982.76035        6 6.3568881e-16            2            2            2 1.5592382e-16 
     810    988.57746        6 6.3755227e-16            2            2            2 1.5611222e-16 
     815    994.50858        6 6.3933301e-16            2            2            2 1.5621203e-16 
     820    1000.3304        6 6.4120901e-16            2            2            2 1.5640124e-16 
     825    1006.2615        6  6.43002e-16            2            2            2 1.5650155e-16 
     830    1012.0702        6 6.4489062e-16            2            2            2 1.5669157e-16 
     835    1017.9655        6 6.4669595e-16            2            2            2 1.5679237e-16 
     840    1023.7447        6 6.4859726e-16            2            2            2 1.5698319e-16 
     845    1029.6395        6 6.5041501e-16            2            2            2 1.5708449e-16 
     850    1035.4309        6 6.5232911e-16            2            2            2 1.5727613e-16 
     855     1041.381        6 6.5415937e-16            2            2            2 1.5737792e-16 
     860     1047.265        6 6.5608633e-16            2            2            2 1.5757037e-16 
     865     1053.265        6 6.5792918e-16            2            2            2 1.5767265e-16 
     870    1059.1507        6 6.598691e-16            2            2            2 1.5786592e-16 
     875    1065.1351        6 6.6172462e-16            2            2            2 1.579687e-16 
     880    1071.0299        6 6.6367758e-16            2            2            2 1.5816279e-16 
     885    1077.0082        6 6.6554587e-16            2            2            2 1.5826606e-16 
     890    1082.9215        6 6.6751195e-16            2            2            2 1.5846096e-16 
     895    1088.9008        6 6.6939309e-16            2            2            2 1.5856473e-16 
     900    1094.7733        6 6.7137239e-16            2            2            2 1.5876045e-16 
     905     1100.746        6 6.7326646e-16            2            2            2 1.5886472e-16 
     910    1106.5904        6 6.7525906e-16            2            2            2 1.5906127e-16 
     915    1112.5218        6 6.7716616e-16            2            2            2 1.5916603e-16 
     920    1118.3507        6 6.7917215e-16            2            2            2 1.593634e-16 
     925    1124.2371        6 6.8109236e-16            2            2            2 1.5946866e-16 
     930    1129.9814        6 6.8311184e-16            2            2            2 1.5966685e-16 
     935    1135.8395        6 6.8504525e-16            2            2            2 1.5977262e-16 
     940    1141.5952        6 6.8707829e-16            2            2            2 1.5997163e-16 
     945    1147.4522        6 6.8902499e-16            2            2            2 1.6007789e-16 
     950    1153.2206        6 6.910717e-16            2            2            2 1.6027774e-16 
     955    1159.0807        7 6.9303178e-16            2            2            3 1.603845e-16 
     960    1164.8409        7 6.9509224e-16            2            2            3 1.6058517e-16 
     965    1170.6958        7 6.9706579e-16            2            2            3 1.6069243e-16 
     970    1176.4538        7 6.991401e-16            2            2            3 1.6089393e-16 
     975    1182.3023        7 7.0112721e-16            2            2            3 1.6100169e-16 
     980    1188.0667        7 7.0321546e-16            2            2            3 1.6120402e-16 
     985    1193.9069        7 7.0521623e-16            2            2            3 1.6131229e-16 
     990    1199.6307        8 7.073185e-16            3            2            3 1.6151545e-16 
     995    1205.4532        8 7.0933301e-16            3            2            3 1.6162422e-16 
    1000    1211.2518        8 7.1144941e-16            3            2            3 1.6182821e-16 
    1005    1217.0964        8 7.1347776e-16            3            2            3 1.6193748e-16 
    1010    1222.8156        8 7.1560838e-16            3            2            3 1.621423e-16 
    1015    1228.6364        8 7.1765066e-16            3            2            3 1.6225207e-16 
    1020    1234.3557        8 7.1979559e-16            3            2            3 1.6245773e-16 
    1025    1240.1719        8 7.218519e-16            3            2            3 1.6256801e-16 
    1030    1245.8875        8 7.2401124e-16            3            2            3 1.6277451e-16 
    1035    1251.6892        8 7.2608168e-16            3            2            3 1.6288529e-16 
    1040    1257.3983        8 7.2825551e-16            3            2            3 1.6309262e-16 
    1045    1263.1997        8 7.3034017e-16            3            2            3 1.632039e-16 
    1050    1268.9183        8 7.3252861e-16            3            2            3 1.6341207e-16 
    1055     1274.721        8 7.3462759e-16            3            2            3 1.6352386e-16 
    1060    1280.4746        8 7.3683072e-16            3            2            3 1.6373287e-16 
    1065    1286.3396        8 7.3894411e-16            3            2            3 1.6384517e-16 
    1070     1292.139        8 7.4116204e-16            3            2            3 1.6405501e-16 
    1075    1297.9927        8 7.4328994e-16            3            2            3 1.6416781e-16 
    1080    1303.8102        8 7.4552277e-16            3            2            3 1.643785e-16 
    1085    1309.7018        8 7.4766528e-16            3            2            3 1.6449181e-16 
    1090    1315.4963        8 7.499131e-16            3            2            3 1.6470334e-16 
    1095    1321.4134        8 7.5207032e-16            3            2            3 1.6481716e-16 
    1100    1327.1919        8 7.5433324e-16            3            2            3 1.6502953e-16 
    1105    1333.0427        8 7.5650526e-16            3            2            3 1.6514385e-16 
    1110    1338.8302        8 7.5878337e-16            3            2            3 1.6535707e-16 
    1115     1344.682        8 7.6097031e-16            3            2            3 1.654719e-16 
    1120    1350.4407        8 7.6326371e-16            3            2            3 1.6568596e-16 
    1125     1356.298        8 7.6546566e-16            3            2            3 1.658013e-16 
    1130    1362.0531        8 7.6777447e-16            3            2            3 1.660162e-16 
    1135    1367.8736        8 7.6999153e-16            3            2            3 1.6613205e-16 
    1140    1373.6261        8 7.7231583e-16            3            2            3 1.663478e-16 
    1145    1379.4826        8 7.7454811e-16            3            2            3 1.6646416e-16 
    1150    1385.2458        8 7.7688802e-16            3            2            3 1.6668076e-16 
    1155    1391.0526        8 7.7913562e-16            3            2            3 1.6679763e-16 
    1160    1396.7265        8 7.8149124e-16            3            2            3 1.6701508e-16 
    1165    1402.4727        8 7.8375426e-16            3            2            3 1.6713246e-16 
    1170    1408.1686        8 7.861257e-16            3            2            3 1.6735076e-16 
    1175    1413.8754        8 7.8840425e-16            3            2            3 1.6746866e-16 
    1180     1419.478        8 7.907916e-16            3            2            3 1.6768781e-16 
    1185    1425.1784        8 7.9308579e-16            3            2            3 1.6780621e-16 
    1190    1430.7672        8 7.9548917e-16            3            2            3 1.6802621e-16 
    1195     1436.446        8 7.9779909e-16            3            2            3 1.6814513e-16 
    1200     1442.047        8 8.0021861e-16            3            2            3 1.6836598e-16 
    1205    1447.7248        8 8.0254438e-16            3            2            3 1.6848541e-16 
    1210    1453.3103        8 8.0498014e-16            3            2            3 1.6870712e-16 
    1215     1458.974        8 8.0732187e-16            3            2            3 1.6882706e-16 
    1220    1464.5673        8 8.0977399e-16            3            2            3 1.6904963e-16 
    1225    1470.2305        8 8.1213177e-16            3            2            3 1.6917008e-16 
    1230    1475.8261        8 8.1460035e-16            3            2            3 1.6939351e-16 
    1235    1481.4857        8 8.1697431e-16            3            2            3 1.6951447e-16 
    1240    1487.0662        8 8.1945946e-16            3            2            3 1.6973875e-16 
    1245    1492.7218        8 8.218497e-16            3            2            3 1.6986024e-16 
    1250     1498.316        8 8.2435153e-16            3            2            3 1.7008538e-16 
    1255    1503.9692        8 8.2675817e-16            3            2            3 1.7020737e-16 
    1260    1509.5465        8 8.292768e-16            3            2            3 1.7043337e-16 
    1265    1515.1919        8 8.3169994e-16            3            2            3 1.7055588e-16 
    1270    1520.7651        8 8.3423547e-16            3            2            3 1.7078274e-16 
    1275    1526.4143        9 8.3667524e-16            4            2            3 1.7090577e-16 
    1280    1531.9779        9 8.3922779e-16            4            2            3 1.7113349e-16 
    1285    1537.6191        9 8.4168428e-16            4            2            3 1.7125704e-16 
    1290     1543.189        9 8.4425397e-16            4            2            3 1.7148562e-16 
    1295    1548.8142        9 8.4672731e-16            4            2            3 1.7160968e-16 
    1300    1554.3707        9 8.4931425e-16            4            2            3 1.7183913e-16 
    1305    1559.9988        9 8.5180455e-16            4            2            3 1.7196371e-16 
    1310    1565.5818        9 8.5440885e-16            4            2            3 1.7219402e-16 
    1315    1571.2102        9 8.5691623e-16            4            2            3 1.7231912e-16 
    1320    1576.7744        9 8.5953801e-16            4            2            3 1.725503e-16 
    1325    1582.3989        9 8.6206258e-16            4            2            3 1.7267591e-16 
    1330    1587.9647        9 8.6470196e-16            4            2            3 1.7290796e-16 
    1335    1593.5914        9 8.6724384e-16            4            2            3 1.7303409e-16 
    1340    1599.1481        9 8.6990094e-16            4            2            3 1.7326701e-16 
    1345    1604.7561        9 8.7246025e-16            4            2            3 1.7339366e-16 
    1350    1610.3043        9 8.7513519e-16            4            2            3 1.7362745e-16 
    1355    1615.9099        9 8.7771204e-16            4            2            3 1.7375462e-16 
    1360    1621.4558        9 8.8040493e-16            4            2            3 1.7398927e-16 
    1365    1627.0536        9 8.8299946e-16            4            2            3 1.7411697e-16 
    1370    1632.5778        9 8.8571043e-16            4            2            3 1.7435249e-16 
    1375    1638.1559        9 8.8832273e-16            4            2            3 1.744807e-16 
    1380    1643.6773        9 8.910519e-16            4            2            3 1.747171e-16 
    1385    1649.2529        9 8.9368212e-16            4            2            3 1.7484584e-16 
    1390    1654.7599        9 8.9642961e-16            4            2            3 1.7508311e-16 
    1395     1660.327        9 8.9907786e-16            4            2            3 1.7521237e-16 
    1400    1665.8544        9 9.0184379e-16            4            2            3 1.7545051e-16 
    1405     1671.423        9 9.0451019e-16            4            2            3 1.7558029e-16 
    1410    1676.9411        9 9.072947e-16            4            2            3 1.7581931e-16 
    1415    1682.5067        9 9.0997938e-16            4            2            3 1.7594961e-16 
    1420    1688.0116        9 9.1278257e-16            4            2            3 1.7618951e-16 
    1425    1693.5662        9 9.1548565e-16            4            2            3 1.7632033e-16 
    1430    1699.0552       10 9.1830767e-16            4            2            4 1.7656111e-16 
    1435    1704.5856       10 9.2102928e-16            4            2            4 1.7669246e-16 
    1440    1710.0735       10 9.2387024e-16            4            2            4 1.7693411e-16 
    1445    1715.6097       10 9.266105e-16            4            2            4 1.7706598e-16 
    1450    1721.0966       10 9.2947054e-16            4            2            4 1.7730852e-16 
    1455    1726.6306       10 9.3222958e-16            4            2            4 1.7744091e-16 
    1460    1732.1415       10 9.3510882e-16            4            2            4 1.7768433e-16 
    1465    1737.6777       10 9.3788677e-16            4            2            4 1.7781725e-16 
    1470    1743.1647       10 9.4078534e-16            4            2            4 1.7806155e-16 
    1475    1748.6918       10 9.4358234e-16            4            2            4 1.7819499e-16 
    1480    1754.1674       10 9.4650037e-16            4            2            4 1.7844017e-16 
    1485    1759.6824       10 9.4931653e-16            4            2            4 1.7857414e-16 
    1490    1765.1616       10 9.5225416e-16            4            2            4 1.7882021e-16 
    1495    1770.6953       10 9.5508962e-16            4            2            4 1.7895471e-16 
    1500     1776.253       10 9.5804697e-16            4            2            4 1.7920166e-16 
    1505    1781.7753       10 9.6090187e-16            4            2            4 1.7933669e-16 
    1510    1787.2535       10 9.6387907e-16            4            2            4 1.7958452e-16 
    1515    1792.7881       10 9.6675354e-16            4            2            4 1.7972007e-16 
    1520    1798.2571       10 9.6975074e-16            4            2            4 1.799688e-16 
    1525    1803.7688       10 9.726449e-16            4            2            4 1.8010488e-16 
    1530    1809.3409       10 9.7566223e-16            4            2            4 1.8035449e-16 
    1535    1815.1438       10 9.7857622e-16            4            2            4 1.804911e-16 
    1540    1820.7474       10 9.8161381e-16            4            2            4 1.807416e-16 
    1545    1826.3012       10 9.8454778e-16            4            2            4 1.8087874e-16 
    1550    1831.7551       10 9.8760577e-16            4            2            4 1.8113014e-16 
    1555    1837.2219       10 9.9055984e-16            4            2            4 1.8126781e-16 
    1560    1842.6504       10 9.9363837e-16            4            2            4 1.8152009e-16 
    1565    1848.1128       10 9.9661268e-16            4            2            4 1.8165829e-16 
    1570    1853.5379       10 9.9971189e-16            4            2            4 1.8191147e-16 
    1575    1858.9997       10 1.0027066e-15            4            2            4 1.820502e-16 
    1580    1864.4363       10 1.0058266e-15            4            2            4 1.8230427e-16 
    1585    1869.8999       10 1.0088418e-15            4            2            4 1.8244353e-16 
    1590    1875.3298       10 1.0119828e-15            4            2            4 1.826985e-16 
    1595    1880.7813       10 1.0150187e-15            4            2            4 1.828383e-16 
    1600    1886.1924       10 1.0181808e-15            4            2            4 1.8309416e-16 
    1605    1891.6501       10 1.0212374e-15            4            2            4 1.8323449e-16 
    1610    1897.0654       10 1.0244208e-15            4            2            4 1.8349125e-16 
    1615    1902.5125       10 1.0274984e-15            4            2            4 1.8363211e-16 
    1620    1907.9385       10 1.0307031e-15            4            2            4 1.8388977e-16 
    1625    1913.3889       10 1.0338018e-15            4            2            4 1.8403116e-16 
    1630    1918.8182       10 1.0370281e-15            4            2            4 1.8428972e-16 
    1635    1924.2616       10 1.040148e-15            4            2            4 1.8443165e-16 
    1640    1929.6812       10 1.0433959e-15            4            2            4 1.8469111e-16 
    1645    1935.1155       10 1.0465372e-15            4            2            4 1.8483357e-16 
    1650     1940.502       10 1.049807e-15            4            2            4 1.8509393e-16 
    1655     1945.912       10 1.0529698e-15            4            2            4 1.8523693e-16 
    1660    1951.3001       10 1.0562615e-15            4            2            4 1.854982e-16 
    1665    1956.6928       10 1.0594461e-15            4            2            4 1.8564172e-16 
    1670    1962.0733       10 1.0627599e-15            4            2            4 1.859039e-16 
    1675     1967.461       10 1.0659662e-15            4            2            4 1.8604796e-16 
    1680    1972.8549       10 1.0693023e-15            4            2            4 1.8631104e-16 
    1685    1978.2505       10 1.0725307e-15            4            2            4 1.8645564e-16 
    1690     1983.644       10 1.0758892e-15            4            2            4 1.8671963e-16 
    1695    1989.0545       10 1.0791396e-15            4            2            4 1.8686477e-16 
    1700    1994.4346       10 1.0825207e-15            4            2            4 1.8712967e-16 
    1705     1999.828       10 1.0857934e-15            4            2            4 1.8727535e-16 
    1710    2005.1996       10 1.0891972e-15            4            2            4 1.8754117e-16 
    1715    2010.6172       10 1.0924924e-15            4            2            4 1.876874e-16 
    1720    2015.9926       10 1.0959191e-15            4            2            4 1.8795415e-16 
    1725     2021.373       10 1.0992369e-15            4            2            4 1.8810093e-16 
    1730    2026.7362       10 1.1026866e-15            4            2            4 1.8836862e-16 
    1735    2032.0963       10 1.1060271e-15            4            2            4 1.8851596e-16 
    1740    2037.4634       10 1.1095001e-15            4            2            4 1.8878459e-16 
    1745    2042.8164       10 1.1128636e-15            4            2            4 1.8893248e-16 
    1750    2048.1538       10 1.1163599e-15            4            2            4 1.8920205e-16 
    1755    2053.5041       10 1.1197464e-15            4            2            4 1.893505e-16 
    1760    2058.8482       10 1.1232663e-15            4            2            4  1.89621e-16 
    1765    2064.2169       11 1.126676e-15            5            2            4 1.8977001e-16 
    1770    2069.5665       11 1.1302195e-15            5            2            4 1.9004146e-16 
    1775     2074.949       11 1.1336526e-15            5            2            4 1.9019103e-16 
    1780    2080.3062       11  1.13722e-15            5            2            4 1.9046341e-16 
    1785    2085.6655       11 1.1406767e-15            5            2            4 1.9061354e-16 
    1790    2091.0154       11 1.1442681e-15            5            2            4 1.9088687e-16 
    1795    2096.3789       11 1.1477484e-15            5            2            4 1.9103755e-16 
    1800    2101.7211       11 1.151364e-15            5            2            4 1.9131182e-16 
    1805     2107.074       11 1.1548682e-15            5            2            4 1.9146306e-16 
    1810    2112.4015       11 1.1585082e-15            5            2            4 1.9173828e-16 
    1815    2117.7345       11 1.1620364e-15            5            2            4 1.9189008e-16 
    1820    2123.0516       11 1.1657008e-15            5            2            4 1.9216624e-16 
    1825    2128.3727       11 1.1692533e-15            5            2            4 1.923186e-16 
    1830    2133.6764       11 1.1729423e-15            5            2            4 1.9259571e-16 
    1835    2138.9996       11 1.1765191e-15            5            2            4 1.9274863e-16 
    1840    2144.3039       11 1.1802331e-15            5            2            4 1.9302668e-16 
    1845    2149.6158       11 1.1838344e-15            5            2            4 1.9318016e-16 
    1850    2154.9066       11 1.1875733e-15            5            2            4 1.9345916e-16 
    1855    2160.1959       11 1.1911993e-15            5            2            4 1.936132e-16 
    1860    2165.4675       11 1.1949634e-15            5            2            4 1.9389316e-16 
    1865    2170.7361       11 1.1986143e-15            5            2            4 1.9404775e-16 
    1870    2176.0341       11 1.2024037e-15            5            2            4 1.9432866e-16 
    1875    2181.3265       11 1.2060796e-15            5            2            4 1.9448381e-16 
    1880    2186.5992       11 1.2098946e-15            5            2            4 1.9476567e-16 
    1885    2191.8728       11 1.2135957e-15            5            2            4 1.9492139e-16 
    1890    2197.1102       11 1.2174363e-15            5            2            4 1.9520419e-16 
    1895    2202.3397       11 1.2211628e-15            5            2            4 1.9536047e-16 
    1900    2207.5523       11 1.2250293e-15            5            2            4 1.9564423e-16 
    1905     2212.788       11 1.2287814e-15            5            2            4 1.9580107e-16 
    1910     2218.015       11 1.2326739e-15            5            2            4 1.9608578e-16 
    1915    2223.2445       12 1.2364517e-15            5            2            5 1.9624319e-16 
    1920    2228.4635       12 1.2403704e-15            5            2            5 1.9652885e-16 
    1925    2233.6759       12 1.2441741e-15            5            2            5 1.9668682e-16 
    1930    2238.8781       12 1.2481192e-15            5            2            5 1.9697345e-16 
    1935    2244.0924       12 1.251949e-15            5            2            5 1.9713198e-16 
    1940    2249.2726       12 1.2559207e-15            5            2            5 1.9741955e-16 
    1945    2254.4529       12 1.2597768e-15            5            2            5 1.9757865e-16 
    1950     2259.617       12 1.2637752e-15            5            2            5 1.9786719e-16 
    1955    2264.8068       12 1.2676577e-15            5            2            5 1.9802684e-16 
    1960    2269.9606       12 1.271683e-15            5            2            5 1.9831634e-16 
    1965    2275.1074       12 1.2755922e-15            5            2            5 1.9847656e-16 
    1970    2280.2606       12 1.2796446e-15            5            2            5 1.9876702e-16 
    1975    2285.4145       12 1.2835806e-15            5            2            5 1.9892781e-16 
    1980    2290.5821       12 1.2876603e-15            5            2            5 1.9921922e-16 
    1985    2295.7471       12 1.2916233e-15            5            2            5 1.9938058e-16 
    1990    2300.8824       12 1.2957305e-15            5            2            5 1.9967296e-16 
    1995    2306.0112       12 1.2997206e-15            5            2            5 1.9983488e-16 
    2000    2311.2124       12 1.3038555e-15            5            2            5 2.0012822e-16 
    2005    2316.3395       12 1.307873e-15            5            2            5 2.002907e-16 
    2010    2321.4799       12 1.3120358e-15            5            2            5 2.0058501e-16 
    2015    2326.6235       12 1.3160808e-15            5            2            5 2.0074806e-16 
    2020    2331.7604       12 1.3202716e-15            5            2            5 2.0104333e-16 
    2025    2336.8885       13 1.3243444e-15            6            2            5 2.0120695e-16 
    2030    2342.0119       13 1.3285634e-15            6            2            5 2.0150319e-16 
    2035    2347.1539       14 1.3326642e-15            6            2            6 2.0166738e-16 
    2040    2352.3048       14 1.3369116e-15            6            2            6 2.0196458e-16 
    2045    2357.4696       14 1.3410405e-15            6            2            6 2.0212933e-16 
    2050    2362.6129       14 1.3453166e-15            6            2            6 2.0242751e-16 
    2055    2367.7665       14 1.3494738e-15            6            2            6 2.0259283e-16 
    2060    2372.9111       14 1.3537787e-15            6            2            6 2.0289197e-16 
    2065    2378.0762       14 1.3579644e-15            6            2            6 2.0305787e-16 
    2070    2383.2302       14 1.3622983e-15            6            2            6 2.0335798e-16 
    2075    2388.4023       14 1.3665127e-15            6            2            6 2.0352444e-16 
    2080    2393.5642       14 1.3708759e-15            6            2            6 2.0382553e-16 
    2085     2398.968       14 1.3751192e-15            6            2            6 2.0399256e-16 
    2090    2404.2026       14 1.3795117e-15            6            2            6 2.0429461e-16 
    2095    2409.5068       14 1.3837842e-15            6            2            6 2.0446222e-16 
    2100    2414.7273       14 1.3882063e-15            6            2            6 2.0476525e-16 
    2105    2419.9518       14 1.392508e-15            6            2            6 2.0493342e-16 
    2110    2425.1454       14  1.39696e-15            6            2            6 2.0523743e-16 
    2115    2430.3349       14 1.4012913e-15            6            2            6 2.0540617e-16 
    2120    2435.4966       14 1.4057733e-15            6            2            6 2.0571116e-16 
    2125    2440.6939       14 1.4101342e-15            6            2            6 2.0588048e-16 
    2130    2445.8837       14 1.4146464e-15            6            2            6 2.0618644e-16 
    2135     2451.046       14 1.4190373e-15            6            2            6 2.0635633e-16 
    2140    2456.1897       14 1.4235799e-15            6            2            6 2.0666327e-16 
    2145    2461.3767       14 1.4280009e-15            6            2            6 2.0683373e-16 
    2150    2466.4623       14 1.4325742e-15            6            2            6 2.0714165e-16 
    2155    2471.5609       14 1.4370255e-15            6            2            6 2.0731269e-16 
    2160    2476.6412       14 1.4416297e-15            6            2            6 2.0762159e-16 
    2165    2481.7455       14 1.4461115e-15            6            2            6 2.077932e-16 
    2170    2486.8385       14 1.4507467e-15            6            2            6 2.0810309e-16 
    2175    2491.9336       14 1.4552593e-15            6            2            6 2.0827528e-16 
    2180    2497.0045       14 1.4599257e-15            6            2            6 2.0858614e-16 
    2185    2502.0868       14 1.4644693e-15            6            2            6 2.0875891e-16 
    2190    2507.2059       15 1.4691672e-15            7            2            6 2.0907076e-16 
    2195    2512.3186       15 1.473742e-15            7            2            6 2.092441e-16 
    2200    2517.3833       15 1.4784716e-15            7            2            6 2.0955694e-16 
    2205    2522.4652       15 1.4830777e-15            7            2            6 2.0973086e-16 
    2210    2527.5229       15 1.4878393e-15            7            2            6 2.1004468e-16 
    2215    2532.5932       15 1.492477e-15            7            2            6 2.1021918e-16 
    2220     2537.639       15 1.4972707e-15            7            2            6 2.1053399e-16 
    2225    2542.6818       15 1.5019402e-15            7            2            6 2.1070907e-16 
    2230    2547.7112       15 1.5067662e-15            7            2            6 2.1102487e-16 
    2235    2552.7621       15 1.5114678e-15            7            2            6 2.1120053e-16 
    2240    2557.7771       15 1.5163264e-15            7            2            6 2.1151732e-16 
    2245    2562.8163       15 1.5210603e-15            7            2            6 2.1169355e-16 
    2250    2567.9415       15 1.5259515e-15            7            2            6 2.1201121e-16 
    2255    2573.0948       15 1.5307177e-15            7            2            6 2.1218783e-16 
    2260    2578.2294       15 1.5356418e-15            7            2            6 2.1250635e-16 
    2265    2583.3853       15 1.5404407e-15            7            2            6 2.1268357e-16 
    2270    2588.5397       15 1.5453981e-15            7            2            6 2.130031e-16 
    2275    2593.7102       15  1.55023e-15            7            2            6 2.1318092e-16 
    2280    2598.9125       15 1.5552209e-15            7            2            6 2.1350146e-16 
    2285    2604.1396       15 1.5600859e-15            7            2            6 2.1367985e-16 
    2290    2609.3651       15 1.5651105e-15            7            2            6 2.140014e-16 
    2295    2614.5872       15 1.5700089e-15            7            2            6 2.1418038e-16 
    2300    2619.7984       15 1.5750674e-15            7            2            6 2.1450292e-16 
    2305    2624.9929       15 1.5799995e-15            7            2            6 2.1468249e-16 
    2310    2630.1747       15 1.5850921e-15            7            2            6 2.1500603e-16 
    2315    2635.3496       15 1.590058e-15            7            2            6 2.1518619e-16 
    2320    2640.5141       15 1.5951851e-15            7            2            6 2.1551073e-16 
    2325    2645.6994       15 1.6001851e-15            7            2            6 2.1569147e-16 
    2330    2650.8794       15 1.6053468e-15            7            2            6 2.1601702e-16 
    2335    2656.0692       15 1.6103811e-15            7            2            6 2.1619834e-16 
    2340    2661.1945       15 1.6155777e-15            7            2            6 2.165249e-16 
    2345    2666.3198       15 1.6206466e-15            7            2            6 2.1670681e-16 
    2350    2671.5186       15 1.6258782e-15            7            2            6 2.1703438e-16 
    2355    2676.6367       15 1.6309819e-15            7            2            6 2.1721688e-16 
    2360    2681.7463       15 1.6362489e-15            7            2            6 2.1754545e-16 
    2365    2686.8632       15 1.6413876e-15            7            2            6 2.1772853e-16 
    2370    2691.9756       15 1.6466902e-15            7            2            6 2.1805812e-16 
    2375    2697.0837       15 1.6518643e-15            7            2            6 2.1824179e-16 
    2380    2702.2105       15 1.6572027e-15            7            2            6 2.1857239e-16 
    2385    2707.3184       15 1.6624122e-15            7            2            6 2.1875665e-16 
    2390    2712.4212       15 1.6677867e-15            7            2            6 2.1908826e-16 
    2395     2717.527       15 1.673032e-15            7            2            6 2.1927311e-16 
    2400    2722.6106       15 1.6784428e-15            7            2            6 2.1960574e-16 
    2405    2727.6952       15 1.6837242e-15            7            2            6 2.1979118e-16 
    2410    2732.8089       15 1.6891716e-15            7            2            6 2.2012482e-16 
    2415    2737.8238       15 1.6944892e-15            7            2            6 2.2031085e-16 
    2420    2742.8451       16 1.6999734e-15            7            2            7 2.2064551e-16 
    2425    2747.8819       16 1.7053275e-15            7            2            7 2.2083214e-16 
    2430    2752.9523       16 1.7108488e-15            7            2            7 2.2116782e-16 
    2435    2758.0477       16 1.7162397e-15            7            2            7 2.2135504e-16 
    2440    2763.1114       16 1.7217983e-15            7            2            7 2.2169174e-16 
    2445    2768.1749       16 1.7272262e-15            7            2            7 2.2187955e-16 
    2450    2773.2299       16 1.7328224e-15            7            2            7 2.2221727e-16 
    2455    2778.2945       16 1.7382877e-15            7            2            7 2.2240568e-16 
    2460     2783.333       16 1.7439217e-15            7            2            7 2.2274442e-16 
    2465      2788.34       16 1.7494244e-15            7            2            7 2.2293343e-16 
    2470    2793.4718       17 1.7550966e-15            7            2            8 2.232732e-16 
    2475    2798.5113       17 1.7606371e-15            7            2            8 2.234628e-16 
    2480    2803.5376       17 1.7663476e-15            7            2            8 2.238036e-16 
    2485    2808.5622       17 1.7719262e-15            7            2            8 2.2399379e-16 
    2490    2813.5894       17 1.7776754e-15            7            2            8 2.2433562e-16 
    2495      2818.59       17 1.7832923e-15            7            2            8 2.2452641e-16 
    2500    2823.6599       17 1.7890803e-15            7            2            8 2.2486927e-16 
    2505    2828.6623       17 1.7947359e-15            7            2            8 2.2506066e-16 
    2510    2833.6631       17 1.800563e-15            7            2            8 2.2540455e-16 
    2515    2838.6521       18 1.8062574e-15            8            2            8 2.2559654e-16 
    2520    2843.6227       18 1.812124e-15            8            2            8 2.2594147e-16 
    2525    2848.5987       18 1.8178575e-15            8            2            8 2.2613406e-16 
    2530    2853.5618       18 1.8237638e-15            8            2            8 2.2648002e-16 
    2535    2858.4605       18 1.8295367e-15            8            2            8 2.2667321e-16 
    2540    2863.3633       18 1.835483e-15            8            2            8 2.2702021e-16 
    2545    2868.2408       18 1.8412956e-15            8            2            8  2.27214e-16 
    2550    2873.1128       18 1.847282e-15            8            2            8 2.2756204e-16 
    2555    2877.9738       18 1.8531346e-15            8            2            8 2.2775644e-16 
    2560     2882.834       18 1.8591616e-15            8            2            8 2.2810551e-16 
    2565    2887.6823       18 1.8650543e-15            8            2            8 2.2830051e-16 
    2570    2892.5301       18 1.8711221e-15            8            2            8 2.2865063e-16 
    2575     2897.377       18 1.8770554e-15            8            2            8 2.2884624e-16 
    2580    2902.2367       18 1.8831643e-15            8            2            8 2.291974e-16 
    2585    2907.0953       18 1.8891383e-15            8            2            8 2.2939361e-16 
    2590    2911.9373       18 1.8952885e-15            8            2            8 2.2974582e-16 
    2595     2916.773       18 1.9013036e-15            8            2            8 2.2994264e-16 
    2600     2921.614       18 1.9074955e-15            8            2            8 2.3029589e-16 
    2605    2926.4467       18 1.913552e-15            8            2            8 2.3049331e-16 
    2610    2931.2729       18 1.9197858e-15            8            2            8 2.3084762e-16 
    2615     2936.091       18 1.9258838e-15            8            2            8 2.3104565e-16 
    2620    2940.9171       18 1.9321599e-15            8            2            8 2.3140101e-16 
    2625    2945.7302       18 1.9382999e-15            8            2            8 2.3159964e-16 
    2630    2950.5474       18 1.9446184e-15            8            2            8 2.3195605e-16 
    2635    2955.3593       18 1.9508006e-15            8            2            8 2.321553e-16 
    2640    2960.1937       18 1.9571619e-15            8            2            8 2.3251277e-16 
    2645    2964.9983       18 1.9633866e-15            8            2            8 2.3271262e-16 
    2650    2969.8114       18 1.969791e-15            8            2            8 2.3307114e-16 
    2655     2974.585       18 1.9760585e-15            8            2            8 2.3327161e-16 
    2660    2979.3735       18 1.9825063e-15            8            2            8 2.3363119e-16 
    2665    2984.1555       18 1.9888169e-15            8            2            8 2.3383227e-16 
    2670    2988.9245       18 1.9953084e-15            8            2            8 2.3419291e-16 
    2675    2993.6837       18 2.0016624e-15            8            2            8 2.3439461e-16 
    2680    2998.4465       18 2.0081979e-15            8            2            8 2.3475631e-16 
    2685    3003.2193       19 2.0145956e-15            9            2            8 2.3495862e-16 
    2690    3007.9799       19 2.0211754e-15            9            2            8 2.3532138e-16 
    2695     3012.736       19 2.027617e-15            9            2            8 2.355243e-16 
    2700    3017.4787       19 2.0342414e-15            9            2            8 2.3588813e-16 
    2705    3022.2115       19 2.0407274e-15            9            2            8 2.3609167e-16 
    2710    3026.9544       19 2.0473966e-15            9            2            8 2.3645657e-16 
    2715    3031.6833       19 2.0539272e-15            9            2            8 2.3666073e-16 
    2720    3036.4003       19 2.0606417e-15            9            2            8 2.3702669e-16 
    2725    3041.1164       19 2.0672172e-15            9            2            8 2.3723147e-16 
    2730    3045.8262       19 2.0739772e-15            9            2            8 2.375985e-16 
    2735    3050.5257       19 2.0805979e-15            9            2            8 2.3780389e-16 
    2740    3055.2559       19 2.0874038e-15            9            2            8  2.38172e-16 
    2745    3059.9544       19  2.09407e-15            9            2            8 2.3837801e-16 
    2750    3064.6456       19 2.100922e-15            9            2            8 2.3874719e-16 
    2755    3069.3549       19 2.1076341e-15            9            2            8 2.3895383e-16 
    2760    3074.0685       19 2.1145326e-15            9            2            8 2.3932409e-16 
    2765    3078.7593       19 2.1212909e-15            9            2            8 2.3953134e-16 
    2770     3083.447       19 2.1282361e-15            9            2            8 2.3990268e-16 
    2775    3088.1159       19 2.1350409e-15            9            2            8 2.4011056e-16 
    2780    3092.7877       19 2.1420332e-15            9            2            8 2.4048297e-16 
    2785     3097.445       19 2.1488848e-15            9            2            8 2.4069148e-16 
    2790    3102.1103       19 2.1559246e-15            9            2            8 2.4106497e-16 
    2795    3106.6971       20 2.1628234e-15           10            2            8 2.4127417e-16 
    2800    3111.2936       20 2.1699111e-15           10            2            8 2.4164886e-16 
    2805    3115.8643       20 2.1768573e-15           10            2            8 2.4185869e-16 
    2810    3120.4481       20 2.183993e-15           10            2            8 2.4223447e-16 
    2815    3125.0024       20 2.1909871e-15           10            2            8 2.4244492e-16 
    2820    3129.5642       20 2.1981712e-15           10            2            8 2.4282178e-16 
    2825    3134.1049       20 2.2052134e-15           10            2            8 2.4303286e-16 
    2830    3138.6618       20 2.2124463e-15           10            2            8 2.4341082e-16 
    2835    3143.2009       20 2.2195369e-15           10            2            8 2.4362253e-16 
    2840    3147.7454       20 2.2268189e-15           10            2            8 2.4400157e-16 
    2845    3152.2889       20 2.2339583e-15           10            2            8 2.4421391e-16 
    2850    3156.8572       21 2.2412898e-15           10            2            9 2.4459405e-16 
    2855    3161.4044       21 2.2484783e-15           10            2            9 2.4480702e-16 
    2860    3165.9485       21 2.2558595e-15           10            2            9 2.4518825e-16 
    2865    3170.4819       21 2.2630975e-15           10            2            9 2.4540186e-16 
    2870    3175.0188       21 2.2705288e-15           10            2            9 2.4578419e-16 
    2875    3179.5271       21 2.2778167e-15           10            2            9 2.4599843e-16 
    2880    3184.0413       21 2.2852984e-15           10            2            9 2.4638185e-16 
    2885    3188.5267       21 2.2926364e-15           10            2            9 2.4659673e-16 
    2890    3193.0253       21 2.300169e-15           10            2            9 2.4698126e-16 
    2895    3197.4939       21 2.3075575e-15           10            2            9 2.4719676e-16 
    2900    3201.9786       21 2.3151413e-15           10            2            9 2.475824e-16 
    2905     3206.455       22 2.3225806e-15           10            2           10 2.4779854e-16 
    2910    3210.9483       22 2.3302159e-15           10            2           10 2.4818528e-16 
    2915     3215.422       22 2.3377065e-15           10            2           10 2.4840206e-16 
    2920    3219.9062       22 2.3453936e-15           10            2           10 2.4878991e-16 
    2925    3224.3597       22 2.3529357e-15           10            2           10 2.4900733e-16 
    2930    3228.8357       22 2.360675e-15           10            2           10 2.4939629e-16 
    2935    3233.2842       22 2.3682691e-15           10            2           10 2.4961435e-16 
    2940    3237.7719       22 2.376061e-15           10            2           10 2.5000442e-16 
    2945    3242.2315       22 2.3837074e-15           10            2           10 2.5022312e-16 
    2950    3246.7107       22 2.3915523e-15           10            2           10 2.5061431e-16 
    2955    3251.1668       22 2.3992513e-15           10            2           10 2.5083365e-16 
    2960    3255.6323       22 2.4071494e-15           10            2           10 2.5122595e-16 
    2965    3260.0694       22 2.4149015e-15           10            2           10 2.5144594e-16 
    2970    3264.5508       22 2.4228533e-15           10            2           10 2.5183936e-16 
    2975    3268.9869       23 2.4306588e-15           11            2           10 2.5205999e-16 
    2980    3273.4399       23 2.4386646e-15           11            2           10 2.5245453e-16 
    2985    3277.8522       23 2.4465238e-15           11            2           10 2.526758e-16 
    2990    3282.2915       23 2.4545841e-15           11            2           10 2.5307147e-16 
    2995    3286.7047       23 2.4624974e-15           11            2           10 2.5329339e-16 
    3000    3291.2124       23 2.4706125e-15           11            2           10 2.5369018e-16 
    3005    3295.5874       23 2.4785804e-15           11            2           10 2.5391275e-16 
    3010    3299.9834       23 2.4867506e-15           11            2           10 2.5431067e-16 
    3015    3304.3601       24 2.4947733e-15           11            2           11 2.5453389e-16 
    3020    3308.7511       24 2.5029991e-15           11            2           11 2.5493293e-16 
    3025    3313.1095       25 2.5110771e-15           12            2           11 2.551568e-16 
    3030     3317.506       25 2.5193589e-15           12            2           11 2.5555698e-16 
    3035    3321.8819       25 2.5274925e-15           12            2           11 2.557815e-16 
    3040    3326.2544       25 2.5358305e-15           12            2           11 2.5618281e-16 
    3045     3330.606       25 2.5440202e-15           12            2           11 2.5640798e-16 
    3050    3334.9766       25 2.552415e-15           12            2           11 2.5681043e-16 
    3055     3339.317       25 2.5606611e-15           12            2           11 2.5703626e-16 
    3060    3343.6831       25 2.569113e-15           12            2           11 2.5743985e-16 
    3065     3348.015       25 2.5774159e-15           12            2           11 2.5766632e-16 
    3070    3352.3746       25 2.5859252e-15           12            2           11 2.5807105e-16 
    3075    3356.6963       25 2.5942853e-15           12            2           11 2.5829819e-16 
    3080    3361.0387       25 2.6028526e-15           12            2           11 2.5870406e-16 
    3085    3365.3545       25 2.6112703e-15           12            2           11 2.5893185e-16 
    3090    3369.6832       26 2.6198959e-15           13            2           11 2.5933887e-16 
    3095    3373.9797       26 2.6283716e-15           13            2           11 2.5956732e-16 
    3100    3378.3149       26 2.6370559e-15           13            2           11 2.5997548e-16 
    3105    3382.6064       26  2.64559e-15           13            2           11 2.6020459e-16 
    3110    3386.9091       26 2.6543334e-15           13            2           11 2.606139e-16 
    3115    3391.1704       26 2.6629263e-15           13            2           11 2.6084367e-16 
    3120    3395.4434       26 2.6717292e-15           13            2           11 2.6125414e-16 
    3125    3399.6796       26 2.6803814e-15           13            2           11 2.6148457e-16 
    3130    3403.9499       26 2.6892442e-15           13            2           11 2.6189619e-16 
    3135    3408.2011       26 2.697956e-15           13            2           11 2.6212728e-16 
    3140    3412.4738       26 2.7068791e-15           13            2           11 2.6254006e-16 
    3145    3416.7118       26 2.715651e-15           13            2           11 2.6277182e-16 
    3150    3421.0461       26 2.7246349e-15           13            2           11 2.6318576e-16 
    3155    3425.3392       26 2.7334672e-15           13            2           11 2.6341818e-16 
    3160    3429.6531       26 2.7425122e-15           13            2           11 2.6383328e-16 
    3165    3433.8902       26 2.7514054e-15           13            2           11 2.6406637e-16 
    3170    3438.1361       26 2.7605121e-15           13            2           11 2.6448263e-16 
    3175    3442.3703       26 2.7694666e-15           13            2           11 2.6471639e-16 
    3180    3446.6002       26 2.7786353e-15           13            2           11 2.6513382e-16 
    3185    3450.8148       26 2.7876515e-15           13            2           11 2.6536824e-16 
    3190    3455.0439       26 2.7968827e-15           13            2           11 2.6578684e-16 
    3195    3459.2407       26 2.8059611e-15           13            2           11 2.6602194e-16 
    3200    3463.4521       27 2.8152551e-15           13            2           12 2.664417e-16 
    3205    3467.6428       27 2.8243961e-15           13            2           12 2.6667748e-16 
    3210     3471.889       27 2.8337534e-15           13            2           12 2.6709842e-16 
    3215    3476.1255       27 2.8429575e-15           13            2           12 2.6733485e-16 
    3220    3480.3883       28 2.8523785e-15           13            2           13 2.6775685e-16 
    3225      3484.61       28 2.861646e-15           13            2           13 2.679939e-16 
    3230    3488.8653       28 2.8711312e-15           13            2           13 2.684171e-16 
    3235    3493.0862       28 2.8804626e-15           13            2           13 2.6865483e-16 
    3240    3497.3128       28 2.8900125e-15           13            2           13 2.6907921e-16 
    3245    3501.5178       29 2.8994082e-15           14            2           13 2.6931762e-16 
    3250    3505.7444       29 2.9090232e-15           14            2           13 2.6974319e-16 
    3255    3509.9624       29 2.9184838e-15           14            2           13 2.6998228e-16 
    3260    3514.2221       29 2.9281642e-15           14            2           13 2.7040903e-16 
    3265      3518.47       29 2.9376901e-15           14            2           13 2.706488e-16 
    3270    3522.7346       29 2.9474365e-15           14            2           13 2.7107675e-16 
    3275    3527.0044       30 2.9570281e-15           14            2           14 2.713172e-16 
    3280     3531.279       30 2.966841e-15           14            2           14 2.7174633e-16 
    3285    3535.5071       30 2.9764987e-15           14            2           14 2.7198747e-16 
    3290    3539.7815       30 2.9863785e-15           14            2           14 2.7241779e-16 
    3295    3544.0141       30 2.9961029e-15           14            2           14 2.7265961e-16 
    3300    3548.2424       30  3.00605e-15           14            2           14 2.7309113e-16 
    3305    3552.4381       30 3.0158415e-15           14            2           14 2.7333364e-16 
    3310    3556.6169       30 3.0258565e-15           14            2           14 2.7376636e-16 
    3315    3560.7758       30 3.0357155e-15           14            2           14 2.7400955e-16 
    3320    3565.0055       30 3.0457988e-15           14            2           14 2.7444347e-16 
    3325    3569.1681       30 3.0557258e-15           14            2           14 2.7468735e-16 
    3330    3573.3159       30 3.0658779e-15           14            2           14 2.7512247e-16 
    3335    3577.4418       30 3.0758734e-15           14            2           14 2.7536704e-16 
    3340    3581.5749       30 3.0860947e-15           14            2           14 2.7580336e-16 
    3345    3585.6867       30 3.0961592e-15           14            2           14 2.7604862e-16 
    3350    3589.8086       30 3.1064503e-15           14            2           14 2.7648616e-16 
    3355    3593.9223       31 3.1165842e-15           14            3           14 2.7673211e-16 
    3360    3598.0355       31 3.1269455e-15           14            3           14 2.7717086e-16 
    3365    3602.1135       31 3.1371494e-15           14            3           14 2.774175e-16 
    3370    3606.2208       31 3.1475813e-15           14            3           14 2.7785746e-16 
    3375    3610.2947       31 3.1578556e-15           14            3           14 2.781048e-16 
    3380    3614.3866       31 3.1683588e-15           14            3           14 2.7854597e-16 
    3385    3618.4536       31 3.178704e-15           14            3           14 2.7879401e-16 
    3390    3622.5496       31 3.1892789e-15           14            3           14 2.792364e-16 
    3395    3626.6423       31 3.1996955e-15           14            3           14 2.7948514e-16 
    3400    3630.8153       31 3.2103425e-15           14            3           14 2.7992875e-16 
    3405    3634.9384       31 3.220831e-15           14            3           14 2.8017818e-16 
    3410    3639.0852       31 3.2315507e-15           14            3           14 2.8062302e-16 
    3415    3643.2112       31 3.2421116e-15           14            3           14 2.8087315e-16 
    3420    3647.3255       31 3.2529045e-15           14            3           14 2.8131922e-16 
    3425    3651.4223       32 3.2635383e-15           15            3           14 2.8157005e-16 
    3430     3655.535       32 3.2744049e-15           15            3           14 2.8201734e-16 
    3435    3659.6295       32 3.2851122e-15           15            3           14 2.8226888e-16 
    3440    3663.7447       33 3.2960529e-15           16            3           14 2.8271741e-16 
    3445    3667.8331       33 3.3068341e-15           16            3           14 2.8296965e-16 
    3450    3671.9194       33 3.3178496e-15           16            3           14 2.8341941e-16 
    3455    3675.9932       33 3.3287052e-15           16            3           14 2.8367236e-16 
    3460    3680.0831       33 3.3397959e-15           16            3           14 2.8412335e-16 
    3465    3684.1304       33 3.3507264e-15           16            3           14 2.8437701e-16 
    3470    3688.2007       33 3.3618929e-15           16            3           14 2.8482924e-16 
    3475    3692.2328       33 3.3728989e-15           16            3           14 2.8508361e-16 
    3480    3696.2871       33 3.3841416e-15           16            3           14 2.8553708e-16 
    3485    3700.3028       33 3.3952237e-15           16            3           14 2.8579216e-16 
    3490    3704.3188       33 3.4065432e-15           16            3           14 2.8624688e-16 
    3495    3708.3062       33 3.4177018e-15           16            3           14 2.8650267e-16 
    3500     3712.359       33 3.4290986e-15           16            3           14 2.8695864e-16 
    3505    3716.2858       33 3.4403343e-15           16            3           14 2.8721514e-16 
    3510    3720.2335       33 3.451809e-15           16            3           14 2.8767236e-16 
    3515    3724.1211       34 3.4631222e-15           17            3           14 2.879296e-16 
    3520    3728.0143       34 3.4746754e-15           17            3           14 2.883881e-16 
    3525    3731.8973       34 3.4860668e-15           17            3           14 2.8864606e-16 
    3530    3735.7899       34 3.4976988e-15           17            3           14 2.8910581e-16 
    3535    3739.6648       34 3.5091689e-15           17            3           14 2.8936449e-16 
    3540    3743.5645       34 3.5208805e-15           17            3           14 2.898255e-16 
    3545    3747.4373       35 3.5324298e-15           18            3           14 2.900849e-16 
    3550    3751.3188       35 3.5442214e-15           18            3           14 2.9054717e-16 
    3555    3755.1787       35 3.5558505e-15           18            3           14 2.9080729e-16 
    3560    3759.0437       35 3.5677227e-15           18            3           14 2.9127083e-16 
    3565    3762.9278       35 3.5794322e-15           18            3           14 2.9153167e-16 
    3570    3766.8583       35 3.5913856e-15           18            3           14 2.9199647e-16 
    3575    3770.7629       35 3.6031759e-15           18            3           14 2.9225803e-16 
    3580    3774.6894       35 3.615211e-15           18            3           14 2.9272411e-16 
    3585     3778.595       35 3.6270828e-15           18            3           14 2.9298639e-16 
    3590    3782.5119       35 3.6392002e-15           18            3           14 2.9345374e-16 
    3595     3786.397       35 3.651154e-15           18            3           14 2.9371676e-16 
    3600    3790.3042       35 3.6633543e-15           18            3           14 2.9418538e-16 
    3605    3794.1731       35 3.6753907e-15           18            3           14 2.9444912e-16 
    3610     3798.033       35 3.6876744e-15           18            3           14 2.9491902e-16 
    3615    3801.8647       35 3.6997939e-15           18            3           14 2.9518349e-16 
    3620    3805.6831       36 3.7121617e-15           18            3           15 2.9565467e-16 
    3625    3809.4656       36 3.724365e-15           18            3           15 2.9591988e-16 
    3630    3813.2492       36 3.7368173e-15           18            3           15 2.9639234e-16 
    3635    3816.9985       36 3.749105e-15           18            3           15 2.9665828e-16 
    3640    3820.7561       36 3.7616425e-15           18            3           15 2.9713202e-16 
    3645    3824.4995       36 3.7740151e-15           18            3           15 2.973987e-16 
    3650    3828.2772       36 3.7866383e-15           18            3           15 2.9787373e-16 
    3655    3832.0574       36 3.7990964e-15           18            3           15 2.9814114e-16 
    3660    3835.8702       36 3.8118061e-15           18            3           15 2.9861747e-16 
    3665    3839.6682       36 3.8243503e-15           18            3           15 2.9888562e-16 
    3670    3843.4628       36 3.8371469e-15           18            3           15 2.9936324e-16 
    3675    3847.1979       36 3.8497778e-15           18            3           15 2.9963213e-16 
    3680      3850.94       36 3.862662e-15           18            3           15 3.0011105e-16 
    3685     3854.668       36 3.8753802e-15           18            3           15 3.0038068e-16 
    3690    3858.3948       36 3.8883526e-15           18            3           15 3.008609e-16 
    3695    3862.0976       36 3.9011587e-15           18            3           15 3.0113128e-16 
    3700    3865.8118       36 3.9142199e-15           18            3           15 3.016128e-16 
    3705    3869.5095       36 3.9271146e-15           18            3           15 3.0188392e-16 
    3710    3873.2116       36 3.9402651e-15           18            3           15 3.0236675e-16 
    3715    3876.8986       37 3.9532489e-15           18            3           16 3.0263861e-16 
    3720    3880.5852       37 3.9664895e-15           18            3           16 3.0312275e-16 
    3725    3884.2482       37 3.9795631e-15           18            3           16 3.0339536e-16 
    3730    3887.9526       37 3.9928943e-15           18            3           16 3.0388081e-16 
    3735    3891.6205       37 4.0060583e-15           18            3           16 3.0415417e-16 
    3740    3895.3753       38 4.0194808e-15           18            3           17 3.0464094e-16 
    3745    3899.0923       38 4.0327359e-15           18            3           17 3.0491505e-16 
    3750    3902.8282       38 4.0462503e-15           18            3           17 3.0540313e-16 
    3755    3906.5396       39 4.0595971e-15           18            3           18  3.05678e-16 
    3760    3910.2674       39 4.0732041e-15           18            3           18 3.061674e-16 
    3765    3914.0102       39 4.0866431e-15           18            3           18 3.0644302e-16 
    3770    3917.7745       39 4.1003433e-15           18            3           18 3.0693375e-16 
    3775     3921.536       39 4.1138753e-15           18            3           18 3.0721012e-16 
    3780    3925.2937       39 4.1276693e-15           18            3           18 3.0770218e-16 
    3785    3929.0379       39 4.1412949e-15           18            3           18 3.0797931e-16 
    3790    3932.9424       39 4.1551834e-15           18            3           18 3.084727e-16 
    3795    3936.7602       39 4.1689032e-15           18            3  18 3.3054867e-16 
    3800    230246.64       39 4.2045676e-15           18            3           18 3.3108143e-16 
    3805    230518.19       39 4.2184031e-15           18            3           18 3.3138183e-16 
    3810    230761.92       39 4.2325197e-15           18            3           18  3.31916e-16 
    3815    231036.31       39 4.2464508e-15           18            3           18 3.322172e-16 
    3820    231283.23       39 4.2606639e-15           18            3           18 3.3275279e-16 
    3825    231560.33       39 4.2746913e-15           18            3           18 3.3305479e-16 
    3830    231804.73       39 4.2890016e-15           18            3           18 3.335918e-16 
    3835    232081.12       39 4.3031259e-15           18            3           18 3.3389461e-16 
    3840    232327.96       40 4.3175341e-15           19            3           18 3.3443304e-16 
    3845    232601.13       40 4.331756e-15           19            3           18 3.3473666e-16 
    3850       232847       40 4.3462628e-15           19            3           18 3.3527652e-16 
    3855    233123.32       40 4.3605829e-15           19            3           18 3.3558095e-16 
    3860    233368.62       40 4.3751889e-15           19            3           18 3.3612224e-16 
    3865    233643.68       40 4.3896081e-15           19            3           18 3.3642748e-16 
    3870     233896.2       40 4.404314e-15           19            3           18 3.369702e-16 
    3875    234161.76       41 4.4188328e-15           19            3           19 3.3727625e-16 
    3880     234398.7       42 4.4336394e-15           20            3           19 3.3782041e-16 
    3885    234662.93       43 4.4482586e-15           20            4           19 3.3812728e-16 
    3890    234898.63       43 4.4631665e-15           20            4           19 3.3867287e-16 
    3895    235163.41       43 4.4778867e-15           20            4           19 3.3898057e-16 
    3900    235403.62       43 4.4928966e-15           20            4           19 3.395276e-16 
[...]
    9050    397699.78     1478 1.5348269e-13          819           26          633 2.6234041e-15 
    9055    397745.59     1484 1.5401694e-13          824           26          634 2.6314036e-15 
    9060    397791.27     1487 1.5455303e-13          825           26          636 2.6394273e-15 
    9065    397837.04     1493 1.5509099e-13          828           26          639 2.6474755e-15 
    9070    397882.34     1498 1.5563081e-13          832           26          640 2.655548e-15 
    9075    397928.11     1501 1.5617251e-13          833           26          642 2.6636451e-15 
    9080    397973.39     1511 1.5671608e-13          842           26          643 2.6717668e-15 
    9085    398019.11     1515 1.5726155e-13          845           27          643 2.6799131e-15 
    9090    398064.93     1519 1.578089e-13          848           27          644 2.6880842e-15 
    9095    398110.26     1524 1.5835816e-13          851           27          646  2.69628e-15 
    9100    398156.09     1526 1.5890932e-13          853           27          646 2.7045008e-15 
    9105    398201.84     1533 1.5946239e-13          858           27          648 2.7127465e-15 
    9110    398247.56     1539 1.6001739e-13          861           27          651 2.7210172e-15 
    9115    398293.31     1548 1.6057431e-13          868           27          653 2.729313e-15 
    9120    398339.05     1553 1.6113317e-13          872           27          654 2.7376341e-15 
    9125     398384.8     1560 1.6169396e-13          874           27          659 2.7459803e-15 
    9130    398433.36     1564 1.622567e-13          877           27          660 2.7543519e-15 
    9135    398482.67     1573 1.628214e-13          882           28          663 2.7627489e-15 
    9140    398534.47     1577 1.6338806e-13          884           28          665 2.7711714e-15 
    9145    398584.98     1583 1.6395668e-13          889           28          666 2.7796195e-15 
    9150    398632.53     1586 1.6452727e-13          891           28          667 2.7880932e-15 
    9155    398681.38     1590 1.6509985e-13          893           28          669 2.7965926e-15 
    9160    398731.25     1593 1.6567441e-13          895           28          670 2.8051177e-15 
    9165    398783.01     1600 1.6625097e-13          899           28          673 2.8136688e-15 
    9170    398834.31     1606 1.6682953e-13          902           28          676 2.8222458e-15 
    9175    398881.96     1613 1.6741009e-13          907           28          678 2.8308488e-15 
    9180    398931.16     1617 1.6799268e-13          911           28          678 2.8394779e-15 
    9185    398977.78     1625 1.6857728e-13          915           28          682 2.8481332e-15 
    9190    399023.76     1630 1.6916392e-13          917           29          684 2.8568147e-15 
    9195    399069.71     1633 1.6975259e-13          918           29          686 2.8655226e-15 
    9200    399115.58     1637 1.703433e-13          920           29          688 2.8742569e-15 
    9205    399161.99     1643 1.7093607e-13          921           29          693 2.8830176e-15 
    9210    399210.12     1647 1.7153089e-13          925           29          693 2.8918049e-15 
    9215    399258.69     1649 1.7212777e-13          926           29          694 2.9006189e-15 
    9220    399307.95     1656 1.7272672e-13          932           29          695 2.9094596e-15 
    9225    399354.45     1661 1.7332775e-13          935           29          697 2.9183271e-15 
    9230    399405.95     1664 1.7393087e-13          938           29          697 2.9272214e-15 
    9235    399454.62     1671 1.7453609e-13          941           29          701 2.9361428e-15 
    9240    399501.03     1678 1.751434e-13          946           29          703 2.9450911e-15 
    9245    399551.53     1686 1.7575282e-13          949           29          708 2.9540666e-15 
    9250    399601.39     1692 1.7636435e-13          951           29          712 2.9630693e-15 
    9255    399648.03     1701  1.76978e-13          955           29          717 2.9720993e-15 
    9260    399694.63     1707 1.7759378e-13          960           29          718 2.9811566e-15 
    9265    399740.84     1709 1.782117e-13          962           29          718 2.9902414e-15 
    9270    399787.14     1714 1.7883176e-13          964           29          721 2.9993537e-15 
    9275    399834.52     1719 1.7945396e-13          966           29          724 3.0084936e-15 
    9280    399881.96     1727 1.8007833e-13          972           29          726 3.0176612e-15 
    9285     399929.3     1733 1.8070486e-13          977           29          727 3.0268566e-15 
    9290    399976.17     1742 1.8133357e-13          983           29          730 3.0360798e-15 
    9295    400025.05     1749 1.8196446e-13          990           29          730 3.045331e-15 
    9300    400071.91     1755 1.8259754e-13          994           30          731 3.0546102e-15 
    9305    400120.03     1758 1.8323281e-13          995           30          733 3.0639175e-15 
    9310    400168.01     1766 1.8387029e-13         1000           30          736 3.0732529e-15 
    9315     400215.1     1768 1.8450997e-13         1000           30          738 3.0826167e-15 
    9320    400261.77     1778 1.8515188e-13         1006           30          742 3.0920088e-15 
    9325    400310.41     1780 1.8579601e-13         1007           30          743  3.10143e-15 
    9330    400358.45     1783 1.8644237e-13         1008           30          745 3.1108802e-15 
    9335    400404.76     1791 1.8709098e-13         1010           30          751 3.120359e-15 
    9340    400451.44     1793 1.8774183e-13         1011           30          752 3.1298665e-15 
    9345    400498.39     1798 1.8839494e-13         1013           30          755 3.1394027e-15 
    9350    400545.14     1805 1.8905032e-13         1017           30          758 3.1489678e-15 
    9355    400598.64     1819 1.8970797e-13         1022           30          767 3.1585619e-15 
    9360     400649.7     1833 1.903679e-13         1029           30          774 3.168185e-15 
    9365    400696.41     1837 1.9103012e-13         1032           30          775 3.1778372e-15 
    9370    400743.24     1842 1.9169464e-13         1035           30          777 3.1875186e-15 
    9375    400790.38     1845 1.9236146e-13         1036           30          779 3.1972293e-15 
    9380    400837.11     1849 1.9303059e-13         1036           30          783 3.2069694e-15 
    9385    400884.33     1855 1.9370204e-13         1039           30          786 3.216739e-15 
    9390    400931.19     1865 1.9437582e-13         1045           31          789 3.2265381e-15 
    9395    400980.31     1868 1.9505194e-13         1046           31          791 3.2363669e-15 
    9400    401027.05     1873 1.9573039e-13         1047           31          795 3.2462253e-15 
    9405    401074.19     1879 1.964112e-13         1053           31          795 3.2561136e-15 
    9410    401125.73     1887 1.9709437e-13         1058           31          798 3.2660319e-15 
    9415    401172.94     1896 1.9777991e-13         1062           31          803 3.2759801e-15 
    9420    401219.69     1904 1.9846783e-13         1066           31          807 3.2859584e-15 
    9425    401266.93     1909 1.9915813e-13         1070           31          808 3.2959668e-15 
    9430    401313.74     1920 1.9985082e-13         1076           31          813 3.3060055e-15 
    9435    401360.93     1923 2.0054592e-13         1079           31          813 3.3160746e-15 
    9440    401407.71     1930 2.0124343e-13         1083           31          816 3.3261741e-15 
    9445    401454.99     1938 2.0194335e-13         1086           32          820 3.3363041e-15 
    9450    401502.22     1944 2.026457e-13         1089           32          823 3.3464648e-15 
    9455    401549.39     1952 2.0335048e-13         1094           32          826 3.3566561e-15 
    9460    401596.56     1960 2.0405771e-13         1095           32          833 3.3668783e-15 
    9465    401643.76     1963 2.0476739e-13         1096           32          835 3.3771313e-15 
    9470    401690.98     1968 2.0547953e-13         1099           32          837 3.3874153e-15 
    9475    401738.19     1976 2.0619413e-13         1103           32          841 3.3977304e-15 
    9480    401785.69     1984 2.0691121e-13         1108           32          844 3.4080767e-15 
    9485    401833.49     1987 2.0763077e-13         1109           32          846 3.4184542e-15 
    9490    401880.96     1995 2.0835283e-13         1114           32          849 3.4288631e-15 
    9495    401928.41     2001 2.0907738e-13         1116           32          853 3.4393034e-15 
    9500    401976.43     2003 2.0980445e-13         1116           32          855 3.4497752e-15 
    9505    402024.96     2012 2.1053404e-13         1123           32          857 3.4602787e-15 
    9510    402072.67     2021 2.1126615e-13         1129           32          860 3.4708139e-15 
    9515     402120.3     2030 2.1200079e-13         1135           32          863 3.4813809e-15 
    9520    402167.97     2037 2.1273798e-13         1140           33          864 3.4919798e-15 
    9525    402215.99     2042 2.1347772e-13         1143           33          866 3.5026108e-15 
    9530    402263.77     2047 2.1422003e-13         1146           33          868 3.5132738e-15 
    9535    402312.11     2053 2.149649e-13         1149           33          871 3.523969e-15 
    9540    402360.23     2059 2.1571235e-13         1152           33          874 3.5346965e-15 
    9545    402408.34     2065 2.164624e-13         1153           33          879 3.5454564e-15 
    9550    402456.23     2070 2.1721503e-13         1156           33          881 3.5562487e-15 
    9555    402504.52     2075 2.1797028e-13         1158           33          884 3.5670737e-15 
    9560    402553.42     2082 2.1872814e-13         1162           33          887 3.5779312e-15 
    9565    402601.44     2088 2.1948862e-13         1165           33          890 3.5888216e-15 
    9570    402649.46     2093 2.2025174e-13         1167           33          893 3.5997448e-15 
    9575    402697.73     2099 2.2101751e-13         1171           33          895 3.610701e-15 
    9580    402746.72     2110 2.2178592e-13         1178           34          898 3.6216902e-15 
    9585    402795.79     2120  2.22557e-13         1186           34          900 3.6327126e-15 
    9590    402844.66     2132 2.2333074e-13         1195           34          903 3.6437683e-15 
    9595     402893.5     2137 2.2410717e-13         1199           34          904 3.6548572e-15 
    9600    402942.17     2150 2.2488629e-13         1205           35          910 3.6659797e-15 
    9605    402991.13     2156 2.2566811e-13         1209           35          912 3.6771356e-15 
    9610    403040.69     2162 2.2645264e-13         1213           35          914 3.6883253e-15 
    9615    403089.57     2168 2.2723988e-13         1216           35          917 3.6995486e-15 
    9620    403139.43     2174 2.2802984e-13         1221           35          918 3.7108058e-15 
    9625     403188.9     2180 2.2882253e-13         1226           35          919 3.7220969e-15 
    9630    403237.95     2194 2.2961797e-13         1232           35          927 3.7334221e-15 
    9635    403286.31     2197 2.3041617e-13         1233           35          929 3.7447814e-15 
    9640    403335.07     2206 2.3121712e-13         1237           36          933 3.7561749e-15 
    9645    403383.52     2213 2.3202085e-13         1240           36          937 3.7676028e-15 
    9650    403432.28     2223 2.3282736e-13         1243           36          944 3.7790651e-15 
    9655    403481.64     2224 2.3363667e-13         1244           36          944 3.7905619e-15 
    9660    403530.53     2233 2.3444877e-13         1248           36          949 3.8020934e-15 
    9665    403579.02     2241 2.3526369e-13         1255           36          950 3.8136597e-15 
    9670    403627.76     2245 2.3608143e-13         1258           36          951 3.8252608e-15 
    9675    403676.63     2253 2.3690199e-13         1263           36          954 3.8368968e-15 
    9680    403725.29     2258 2.3772539e-13         1265           36          957 3.8485679e-15 
    9685    403773.55     2266 2.3855165e-13         1268           36          962 3.8602741e-15 
    9690    403822.37     2273 2.3938076e-13         1272           36          965 3.8720156e-15 
    9695    403872.08     2280 2.4021274e-13         1275           36          969 3.8837925e-15 
    9700    403921.84     2289 2.410476e-13         1281           36          972 3.8956048e-15 
    9705    403970.83     2296 2.4188535e-13         1286           36          974 3.9074527e-15 
    9710    404019.64     2303  2.42726e-13         1292           36          975 3.9193362e-15 
    9715     404068.4     2313 2.4356956e-13         1297           37          979 3.9312556e-15 
    9720    404117.85     2322 2.4441604e-13         1304           37          981 3.9432108e-15 
    9725    404167.24     2333 2.4526545e-13         1312           37          984 3.955202e-15 
    9730    404216.98     2340 2.4611779e-13         1315           37          988 3.9672292e-15 
    9735    404265.59     2342 2.4697307e-13         1316           37          989 3.9792927e-15 
    9740    404313.97     2348 2.4783132e-13         1319           37          992 3.9913925e-15 
    9745    404362.34     2350 2.4869254e-13         1320           37          993 4.0035287e-15 
    9750    404410.94     2355 2.4955673e-13         1322           37          996 4.0157014e-15 
    9755    404460.09     2365 2.5042391e-13         1329           37          999 4.0279107e-15 
    9760    404509.04     2377 2.512941e-13         1337           37         1003 4.0401567e-15 
    9765    404557.44     2385 2.5216729e-13         1342           37         1006 4.0524396e-15 
    9770    404607.17     2401 2.530435e-13         1354           37         1010 4.0647594e-15 
    9775    404656.18     2412 2.5392274e-13         1359           38         1015 4.0771162e-15 
    9780    404705.56     2419 2.5480502e-13         1363           38         1018 4.0895102e-15 
    9785    404756.05     2423 2.5569035e-13         1365           38         1020 4.1019415e-15 
    9790    404805.41     2434 2.5657873e-13         1371           38         1025 4.1144102e-15 
    9795    404854.82     2444 2.5747019e-13         1378           38         1028 4.1269163e-15 
    9800    404904.27     2456 2.5836473e-13         1384           38         1034  4.13946e-15 
    9805    404955.36     2465 2.5926237e-13         1391           38         1036 4.1520415e-15 
    9810    38         1040 4.1463298e-15 
    9810    342660.56     2473 2.6016667e-13         1391           38         1044 4.1589296e-15 
    9815     342688.8     2481 2.6107055e-13         1398           38         1045 4.1715672e-15 
    9820    342717.31     2486 2.6197755e-13         1401           38         1047 4.1842428e-15 
    9825    342745.81     2499 2.6288768e-13         1404           38         1057 4.1969564e-15 
    9830    342774.86     2512 2.6380096e-13         1413           39         1060 4.2097084e-15 
    9835    342803.91     2523 2.647174e-13         1418           39         1066 4.2224993e-15 
    9840    342832.59     2532  2.65637e-13         1421           39         1072 4.2353287e-15 
    9845    342861.45     2539 2.6655978e-13         1426           39         1074 4.2481966e-15 
    9850    342890.11     2553 2.6748575e-13         1435           39         1079 4.2611032e-15 
    9855    342918.82     2562 2.6841492e-13         1442           39         1081 4.2740485e-15 
    9860    342947.86     2572 2.693473e-13         1449           39         1084 4.2870327e-15 
    9865    342977.09     2587 2.702829e-13         1457           39         1091 4.3000558e-15 
    9870    343006.26     2595 2.7122173e-13         1461           39         1095 4.3131181e-15 
    9875    343035.77     2602 2.7216381e-13         1465           39         1098 4.3262196e-15 
    9880    343064.63     2617 2.7310914e-13         1475           39         1103 4.3393603e-15 
    9885    343093.61     2623 2.7405773e-13         1481           39         1103 4.3525406e-15 
    9890    343122.37     2634 2.7500961e-13         1489           39         1106 4.3657603e-15 
    9895    343151.04     2645 2.7596477e-13         1497           39         1109 4.3790198e-15 
    9900    343179.72     2651 2.7692323e-13         1499           39         1113 4.392319e-15 
    9905     343209.1     2664 2.7788501e-13         1507           39         1118 4.4056581e-15 
    9910    343239.78     2675 2.7885011e-13         1512           39         1124 4.4190373e-15 
    9915    343269.77     2686 2.7981854e-13         1517           40         1129 4.4324565e-15 
    9920    343298.88     2692 2.8079032e-13         1519           40         1133 4.4459161e-15 
    9925    343330.52     2698 2.8176545e-13         1522           41         1135 4.459416e-15 
    9930     343360.5     2711 2.8274396e-13         1531           42         1138 4.4729563e-15 
    9935     343389.2     2722 2.8372584e-13         1538           42         1142 4.4865373e-15 
    9940    343418.57     2733 2.8471112e-13         1544           42         1147 4.500159e-15 
    9945    343448.61     2749 2.856998e-13         1555           42         1152 4.5138216e-15 
    9950    343479.93     2758 2.8669188e-13         1559           42         1157 4.527525e-15 
    9955    343510.34     2769 2.876874e-13         1566           42         1161 4.5412696e-15 
    9960    343539.67     2780 2.8868635e-13         1572           42         1166 4.5550554e-15 
    9965    343568.58     2788 2.8968875e-13         1576           42         1170 4.5688824e-15 
    9970    343597.58     2793 2.9069461e-13         1579           42         1172 4.5827509e-15 
    9975    343626.94     2803 2.9170394e-13         1584           42         1177 4.5966609e-15 
    9980    343656.35     2817 2.9271676e-13         1591           43         1183 4.6106126e-15 
    9985    343685.35     2830 2.9373308e-13         1595           43         1192 4.6246061e-15 
    9990    343714.43     2838 2.947529e-13         1601           43         1194 4.6386416e-15 
    9995    343743.51     2850 2.9577624e-13         1604           43         1203 4.652719e-15 
   10000    343773.36     2858 2.9680312e-13         1608           43         1207 4.6668386e-15 
Loop time of 343773 on 1 procs for 10000 steps with 2858 atoms

Performance: 90478.214 tau/day, 0.029 timesteps/s
99.9% CPU use with 1 MPI tasks x no OpenMP threads

MPI task timing breakdown:
Section |  min time  |  avg time  |  max time  |%varavg| %total
---------------------------------------------------------------
Pair    | 1.3206     | 1.3206     | 1.3206     |   0.0 |  0.00
Neigh   | 19.45      | 19.45      | 19.45      |   0.0 |  0.01
Comm    | 0.13205    | 0.13205    | 0.13205    |   0.0 |  0.00
Output  | 1.463      | 1.463      | 1.463      |   0.0 |  0.00
Modify  | 3.4375e+05 | 3.4375e+05 | 3.4375e+05 |   0.0 | 99.99
Other   |            | 0.08877    |            |       |  0.00

Nlocal:    2858 ave 2858 max 2858 min
Histogram: 1 0 0 0 0 0 0 0 0 0
Nghost:    0 ave 0 max 0 min
Histogram: 1 0 0 0 0 0 0 0 0 0
Neighs:    27408 ave 27408 max 27408 min
Histogram: 1 0 0 0 0 0 0 0 0 0

Total # of neighbors = 27408
Ave neighs/atom = 9.58992
Neighbor list builds = 10000
Dangerous builds = 0


Total wall time: 95:29:37
