ITEM: TIMESTEP
0
ITEM: NUMBER OF ATOMS
1
ITEM: BOX BOUNDS pp pp ff
0.0000000000000000e+00 1.0000000000000000e-04
0.0000000000000000e+00 4.0000000000000003e-05
0.0000000000000000e+00 1.0000000000000000e-04
ITEM: ATOMS id type diameter x y z 
1 1 1e-06 5e-06 5e-06 1e-06 
ITEM: TIMESTEP
1
ITEM: NUMBER OF ATOMS
1
ITEM: BOX BOUNDS pp pp ff
0.0000000000000000e+00 1.0000000000000000e-04
0.0000000000000000e+00 4.0000000000000003e-05
0.0000000000000000e+00 1.0000000000000000e-04
ITEM: ATOMS id type diameter x y z 
1 1 1e-06 5e-06 5e-06 1e-06 
