ITEM: TIMESTEP
0
ITEM: NUMBER OF ATOMS
5
ITEM: BOX BOUNDS ff ff ff
0 0.0001
0 0.0001
0 0.0001
ITEM: ATOMS id type diameter x y z vx vy vz fx fy fz 
2 2 1.2839e-06 5e-05 4.9e-05 2e-06 0 0 0 -7.678e-05 0 0 
5 5 1.4839e-06 5.1e-05 4.9e-05 2e-06 0 0 0 7.678e-05 -5.122e-05 0 
4 4 1.0539e-06 4.9e-05 5e-05 2e-06 0 0 0 0 0 0 
3 3 1.0283e-06 5.1e-05 5e-05 2e-06 0 0 0 0 5.122e-05 0 
1 1 1.0839e-06 5e-05 5.1e-05 2e-06 0 0 0 0 0 0 
ITEM: TIMESTEP
500
ITEM: NUMBER OF ATOMS
6
ITEM: BOX BOUNDS ff ff ff
0 0.0001
0 0.0001
0 0.0001
ITEM: ATOMS id type diameter x y z vx vy vz fx fy fz 
2 2 1.3353e-06 4.97807e-05 4.90164e-05 2e-06 9.95167e-10 -9.81957e-11 -1.36992e-16 9.93234e-11 -9.80049e-12 -1.36726e-17 
5 5 1.4839e-06 5.1198e-05 4.89123e-05 2e-06 1.64591e-10 -9.86362e-10 2.33694e-16 2.69432e-07 -1.61466e-06 3.82553e-13 
4 4 1.05425e-06 4.90091e-05 5.00074e-05 1.99999e-06 -9.83928e-10 -1.78564e-10 1.39656e-13 -9.77351e-11 -1.77371e-11 1.38722e-14 
3 3 1.06129e-06 5.09898e-05 5.01595e-05 2e-06 -1.64591e-10 9.86362e-10 -2.33699e-16 -2.69432e-07 1.61466e-06 -3.82561e-13 
1 1 1.20611e-06 4.9994e-05 5.0992e-05 1.99886e-06 6.54928e-10 7.55623e-10 -1.01383e-11 6.49866e-11 7.49783e-11 -1.00599e-12 
6 4 9.10463e-07 4.99104e-05 5.1947e-05 2.54915e-06 -8.02356e-11 8.62675e-10 4.99354e-10 -8.03974e-12 8.64414e-11 5.00362e-11 
ITEM: TIMESTEP
1000
ITEM: NUMBER OF ATOMS
7
ITEM: BOX BOUNDS ff ff ff
0 0.0001
0 0.0001
0 0.0001
ITEM: ATOMS id type diameter x y z vx vy vz fx fy fz 
2 2 1.38875e-06 4.97811e-05 4.90203e-05 2e-06 9.9606e-10 -8.86858e-11 8.48998e-18 9.9497e-11 -8.85889e-12 8.48069e-19 
5 5 1.4839e-06 5.12213e-05 4.88909e-05 2e-06 1.79205e-10 -9.83812e-10 -1.49587e-15 3.59294e-09 -1.97248e-08 -2.99912e-14 
4 4 1.05459e-06 4.90084e-05 5.00111e-05 1.99997e-06 -9.86097e-10 -1.66166e-10 1.33229e-12 -9.83094e-11 -1.6566e-11 1.32824e-13 
3 3 1.09533e-06 5.09901e-05 5.01595e-05 2e-06 -1.79283e-10 9.83798e-10 1.45474e-15 -3.5945e-09 1.97244e-08 2.91665e-14 
1 1 1.3421e-06 4.99934e-05 5.09896e-05 2.00006e-06 7.88367e-11 -8.68856e-10 -4.88748e-10 3.08417e-07 -3.39905e-06 -1.91203e-06 
6 4 9.10762e-07 4.99061e-05 5.19513e-05 2.54104e-06 -7.88366e-11 8.68856e-10 4.88748e-10 -3.08417e-07 3.39905e-06 1.91203e-06 
7 4 9.51219e-07 4.94979e-05 5.17899e-05 1.31523e-06 6.52381e-10 7.57313e-10 -2.95956e-11 6.53679e-11 7.58821e-11 -2.96545e-12 
ITEM: TIMESTEP
1500
ITEM: NUMBER OF ATOMS
8
ITEM: BOX BOUNDS ff ff ff
0 0.0001
0 0.0001
0 0.0001
ITEM: ATOMS id type diameter x y z vx vy vz fx fy fz 
7 4 9.51531e-07 4.94971e-05 5.17953e-05 1.3223e-06 -3.66905e-10 7.27914e-10 -5.79243e-10 -3.68343e-11 7.30766e-11 -5.81513e-11 
2 2 1.06852e-06 4.9847e-05 4.86853e-05 1.58862e-06 9.62552e-11 -6.18703e-10 -7.79706e-10 9.43814e-12 -6.06659e-11 -7.64528e-11 
5 5 1.4839e-06 5.12213e-05 4.88909e-05 2e-06 1.4674e-10 -9.89175e-10 2.17476e-13 2.41173e-08 -1.62574e-07 3.57429e-11 
4 4 1.05494e-06 4.89493e-05 5.00201e-05 1.93243e-06 6.81484e-10 -5.64248e-10 4.6605e-10 6.93791e-11 -5.74438e-11 4.74466e-11 
1 1 1.49342e-06 4.99383e-05 5.0892e-05 2.02342e-06 -8.38474e-10 5.44637e-10 1.82136e-11 -1.75655e-06 1.14098e-06 3.81564e-08 
8 2 1.21489e-06 4.9737e-05 4.93951e-05 2.48349e-06 -6.86606e-10 5.45527e-10 -4.80595e-10 -6.87257e-11 5.46044e-11 -4.81051e-11 
3 3 1.13047e-06 5.10296e-05 5.01831e-05 1.99972e-06 8.70556e-10 -4.91695e-10 -1.91915e-11 1.73245e-06 -9.78499e-07 -3.81922e-08 
6 4 9.11061e-07 4.98993e-05 5.19905e-05 2.55166e-06 3.00023e-11 -8.99095e-10 -4.36724e-10 2.99011e-12 -8.96063e-11 -4.35251e-11 
ITEM: TIMESTEP
2000
ITEM: NUMBER OF ATOMS
11
ITEM: BOX BOUNDS ff ff ff
0 0.0001
0 0.0001
0 0.0001
ITEM: ATOMS id type diameter x y z vx vy vz fx fy fz 
7 4 9.51843e-07 4.94974e-05 5.18028e-05 1.33168e-06 -3.68598e-10 7.35048e-10 -5.6907e-10 -3.65358e-11 7.28587e-11 -5.64068e-11 
2 2 1.11129e-06 4.97728e-05 4.86411e-05 1.59112e-06 -1.21565e-10 -7.73211e-10 -6.22388e-10 -5.13179e-07 -3.26405e-06 -2.62737e-06 
5 5 1.4839e-06 5.12209e-05 4.88909e-05 1.99979e-06 7.63759e-10 -4.90354e-10 4.19791e-10 2.45176e-07 -1.57409e-07 1.34758e-07 
4 4 1.05528e-06 4.89865e-05 4.99959e-05 1.85537e-06 -6.57339e-10 5.20093e-10 -5.45353e-10 -1.5957e-06 1.26253e-06 -1.32385e-06 
1 1 1.29468e-06 5.0088e-05 5.05476e-05 1.39622e-06 -8.0936e-10 2.76862e-10 -5.1796e-10 -8.63123e-07 2.95253e-07 -5.52367e-07 
8 2 1.26352e-06 4.97407e-05 4.93992e-05 2.48103e-06 3.36521e-10 2.38689e-10 9.10923e-10 1.49707e-06 1.06185e-06 4.0524e-06 
3 3 1.16674e-06 5.10798e-05 5.02083e-05 2.03092e-06 8.0936e-10 -2.76862e-10 5.1796e-10 8.63123e-07 -2.95253e-07 5.52367e-07 
6 4 9.11359e-07 4.99432e-05 5.21627e-05 2.50798e-06 2.50144e-10 9.56874e-10 -1.47718e-10 2.50741e-11 9.59158e-11 -1.48071e-11 
9 1 1.34241e-06 4.96566e-05 5.10834e-05 2.66749e-06 4.41036e-10 -1.65456e-10 8.82107e-10 4.39294e-11 -1.64803e-11 8.78624e-11 
10 4 8.93122e-07 5.03144e-05 4.94729e-05 1.50154e-06 3.10601e-10 9.29294e-10 -1.99847e-10 3.66695e-07 1.09712e-06 -2.35938e-07 
11 4 9.29639e-07 5.01686e-05 5.08913e-05 3.68352e-06 -4.43737e-10 1.66532e-10 -8.80548e-10 -4.42358e-11 1.66015e-11 -8.77812e-11 
ITEM: TIMESTEP
2500
ITEM: NUMBER OF ATOMS
11
ITEM: BOX BOUNDS ff ff ff
0 0.0001
0 0.0001
0 0.0001
ITEM: ATOMS id type diameter x y z vx vy vz fx fy fz 
10 4 8.93415e-07 5.03505e-05 4.94577e-05 1.44077e-06 -2.73748e-10 9.57641e-10 -8.93603e-11 -2.76162e-11 9.66086e-11 -9.01483e-12 
1 1 1.44065e-06 5.00495e-05 5.05949e-05 1.3247e-06 3.42331e-10 -2.96666e-10 -8.91515e-10 2.06034e-07 -1.7855e-07 -5.36564e-07 
7 4 9.52155e-07 4.94972e-05 5.18109e-05 1.34206e-06 -3.56081e-10 7.30368e-10 -5.82896e-10 -3.55039e-11 7.2823e-11 -5.8119e-11 
2 2 1.15578e-06 4.97345e-05 4.86458e-05 1.57426e-06 -2.56201e-11 -6.26973e-10 -7.78619e-10 -1.68481e-08 -4.12306e-07 -5.1203e-07 
4 4 1.05563e-06 4.90146e-05 4.99652e-05 1.79862e-06 -6.34208e-10 4.61704e-10 -6.20169e-10 -1.0252e-08 7.46347e-09 -1.00251e-08 
5 5 1.4839e-06 5.1231e-05 4.88764e-05 2.00529e-06 -7.38525e-10 4.84471e-10 -4.68901e-10 -7.38558e-11 4.84493e-11 -4.68922e-11 
8 2 1.3141e-06 4.97661e-05 4.94181e-05 2.53324e-06 4.08954e-11 6.12381e-10 7.89504e-10 2.70387e-08 4.04886e-07 5.21994e-07 
3 3 1.20416e-06 5.11013e-05 5.02274e-05 2.04764e-06 7.95824e-10 -2.72424e-10 5.40786e-10 7.99242e-11 -2.73594e-11 5.43108e-11 
9 1 1.49377e-06 4.95482e-05 5.10292e-05 2.63006e-06 -3.42331e-10 2.96666e-10 8.91515e-10 -2.06033e-07 1.7855e-07 5.36563e-07 
6 4 9.11658e-07 4.99399e-05 5.21622e-05 2.49694e-06 3.20428e-10 9.40092e-10 -1.16413e-10 3.22261e-11 9.4547e-11 -1.17079e-11 
11 4 9.29944e-07 5.01692e-05 5.08918e-05 3.68327e-06 -5.04684e-10 1.11865e-10 -8.56026e-10 -5.0142e-11 1.11142e-11 -8.5049e-11 
ITEM: TIMESTEP
3000
ITEM: NUMBER OF ATOMS
17
ITEM: BOX BOUNDS ff ff ff
0 0.0001
0 0.0001
0 0.0001
ITEM: ATOMS id type diameter x y z vx vy vz fx fy fz 
10 4 8.93708e-07 5.03457e-05 4.9457e-05 1.4467e-06 -2.65657e-10 9.59851e-10 -9.00745e-11 -2.6578e-11 9.60294e-11 -9.01162e-12 
1 1 1.34002e-06 5.07363e-05 5.06293e-05 1.26952e-06 2.57392e-10 6.5657e-10 -7.08989e-10 4.37282e-07 1.11544e-06 -1.2045e-06 
7 4 9.52467e-07 4.93821e-05 5.19988e-05 1.18062e-06 -5.48358e-10 6.82446e-10 -4.83292e-10 -1.55439e-06 1.93448e-06 -1.36995e-06 
2 2 1.20204e-06 4.98645e-05 4.84273e-05 1.58386e-06 5.3323e-10 -8.27627e-10 1.75211e-10 5.33072e-11 -8.27383e-11 1.7516e-11 
4 4 1.05598e-06 4.87162e-05 4.9984e-05 1.8697e-06 -6.76242e-10 -4.89194e-10 -5.50805e-10 -5.08403e-07 -3.67779e-07 -4.14099e-07 
5 5 1.4839e-06 5.12299e-05 4.87129e-05 1.98121e-06 2.76832e-11 9.74688e-10 2.21847e-10 2.76892e-12 9.74899e-11 2.21896e-11 
8 2 1.36671e-06 4.97736e-05 4.94387e-05 2.58348e-06 3.71342e-10 -9.1291e-10 1.69414e-10 3.6155e-07 -8.88838e-07 1.64947e-07 
3 3 1.24279e-06 5.12681e-05 5.0059e-05 2.28771e-06 4.14655e-10 -4.44731e-10 7.93899e-10 7.37541e-07 -7.91038e-07 1.4121e-06 
9 1 1.23401e-06 4.92031e-05 5.07664e-05 3.38584e-06 9.45856e-10 1.25511e-10 2.99338e-10 9.44133e-11 1.25282e-11 2.98792e-11 
6 4 9.11957e-07 4.99889e-05 5.23768e-05 2.63081e-06 9.24423e-11 8.51889e-10 5.155e-10 3.04126e-07 2.80263e-06 1.69594e-06 
11 4 9.30249e-07 5.02438e-05 5.09061e-05 3.71415e-06 -9.45947e-10 -1.27005e-10 -2.98418e-10 -9.43586e-11 -1.26688e-11 -2.97674e-11 
12 1 1.19664e-06 4.9537e-05 5.02982e-05 1.05759e-06 -9.5024e-10 -2.62389e-10 -1.67918e-10 -1.17485e-06 -3.24411e-07 -2.07609e-07 
13 1 1.39476e-06 4.98838e-05 5.14083e-05 2.04473e-06 1.9383e-10 -9.7948e-10 5.5211e-11 8.15387e-07 -4.12038e-06 2.32257e-07 
14 4 1.03593e-06 4.98405e-05 5.13487e-05 5.92124e-07 4.63285e-10 -6.56998e-10 -5.94743e-10 4.34896e-07 -6.16739e-07 -5.58299e-07 
15 4 8.61079e-07 4.93618e-05 5.04511e-05 2.39559e-06 1.13875e-10 9.74526e-10 1.93213e-10 1.46833e-07 1.25657e-06 2.49133e-07 
16 4 9.28075e-07 4.92977e-05 4.93085e-05 1.39173e-06 -5.70232e-10 6.70533e-10 4.74576e-10 -5.73328e-11 6.74174e-11 4.77153e-11 
17 4 9.6112e-07 5.064e-05 5.1768e-05 1.02285e-06 7.78308e-11 -9.74229e-10 2.11707e-10 7.75272e-12 -9.70429e-11 2.10882e-11 
