LAMMPS (5 Nov 2016)
# NUFEB simulation

units si
atom_style      bio
atom_modify     map array sort 1000 5.0e-6
boundary        pp pp ff
newton          off
processors 2 1 2

comm_modify     vel yes

read_data_bio atom.in
  orthogonal box = (0 0 0) to (0.0004 3e-05 0.0006)
  2 by 1 by 2 MPI processor grid
  reading atoms ...
  0 atoms
  5 nutrients

group HET type 1
0 atoms in group HET
group AOB type 2
0 atoms in group AOB

variable  x equal 40
variable  y equal 3
variable  z equal 2

lattice sc 2e-5 origin 0.75 0.5 0.5
Lattice spacing in x,y,z = 2e-05 2e-05 2e-05
region reg block 0 $x 0 $y 0 $z
region reg block 0 40 0 $y 0 $z
region reg block 0 40 0 3 0 $z
region reg block 0 40 0 3 0 2
create_atoms 1 random 100 5345 reg
Created 100 atoms

#lattice sc 2e-5 origin 0.25 0.5 0.5
region reg2 block 0 $x 0 $y 0 $z
region reg2 block 0 40 0 $y 0 $z
region reg2 block 0 40 0 3 0 $z
region reg2 block 0 40 0 3 0 2
create_atoms 2 random 100 42342 reg
Created 100 atoms

neighbor        5e-7 bin

set type 1 diameter 9.5e-6
  100 settings made for diameter
set type 1 density 16
  100 settings made for density
set type 2 diameter 9.5e-6
  100 settings made for diameter
set type 2 density 16
  100 settings made for density

neigh_modify    delay 0 one 2000

##############Define DEM Variables&Commands##############

pair_style  gran/hooke/history 1.e-4 NULL 1.e-5 NULL 0.0 1
pair_coeff  * *

timestep 720

variable kanc equal 50

fix 1 all nve/limit 1e-7
fix fv all viscous 1e-5

fix zw all wall/gran hooke/history 2000 NULL 500.0 NULL 1.5 0 zplane  0.0  6e-04

fix zwa all walladh v_kanc zplane  0.0   6e-04

variable ke equal 5e+10
fix j1 all epsadh 1 v_ke 1

##############Define IBm Variables##############

#EPS density, ratio variables and division diameter
variable EPSdens equal 30
variable EPSratio equal 1.25
variable divDia equal 1e-5

#kinetics variables
variable etaHET equal 0.0
variable diffT equal 1e-4
variable tol equal 1e-6
variable layer equal 0

##############Define IBm Commands##############

fix k1 all kinetics 1 40 3 60 v_diffT v_layer niter -1 demflag 0
fix kgm all kinetics/growth/monod v_EPSdens v_etaHET
fix g1 all kinetics/diffusion v_tol pp pp nd kg bulk 2.31e-7 1.25e-3 0.1
fix d1 all divide 1 v_EPSdens v_divDia 31231 demflag 0
fix vf1 all verify 1 bm3 demflag 0

##############Simulation Output##############

compute myHeight all avg_height
compute myMass all biomass
compute myNtype all ntypes

dump du0 all bio 5010 biomass ntypes bulk
dump		id all custom 120100 snapshot.bubblemd id type diameter x y z
thermo_style    custom step cpu atoms biomass c_myHeight c_myNtype[*]
thermo          1001
thermo_modify   lost warn

##############Two-loops Run##############

run 3600 pre no post no every 1 "fix_modify k1 demflag 1" "fix_modify d1 demflag 1" "fix_modify vf1 demflag 1" "timestep 0.1" "run 1000 pre no post no" "timestep 720" "fix_modify k1 demflag 0" "fix_modify d1 demflag 0" "fix_modify vf1 demflag 0"
WARNING: EPS is not defined in fix_kinetics/kinetics/monod (../fix_bio_kinetics_monod.cpp:253)
ae = 4.530000e+02, top = 4.464078e-05, base = 4.918342e-06, ave_h = 1.996319e-05 
Neighbor list info ...
  3 neighbor list requests
  update every 1 steps, delay 0 steps, check yes
  max neighbors/atom: 2000, page size: 100000
  master list distance cutoff = 1e-05
  ghost atom cutoff = 1e-05
  binsize = 5e-06 -> bins = 80 6 120
Memory usage per processor = 8.72881 Mbytes
Step CPU Atoms biomass c_myHeight c_myNtype[1] c_myNtype[2] c_myNtype[3] 
       0            0      200 1.4365456e-12 2.1217731e-05            0          100          100 
number of iterations: 11073 
maxz = 4.479554e-05 
       1     1.079546      200 1.4718187e-12 2.1352649e-05            0          100          100 
Loop time of 1.07956 on 4 procs for 1 steps with 200 atoms

99.9% CPU use with 4 MPI tasks x no OpenMP threads
fix_modify k1 demflag 1
fix_modify d1 demflag 1
fix_modify vf1 demflag 1
timestep 0.1
run 1000 pre no post no
Step CPU Atoms biomass c_myHeight c_myNtype[1] c_myNtype[2] c_myNtype[3] 
       1            0      200 1.4718187e-12 2.1352649e-05            0          100          100 
    1001  0.020905972      200 1.4718187e-12 2.3419323e-05            0          100          100 
Loop time of 0.0209301 on 4 procs for 1000 steps with 200 atoms

100.0% CPU use with 4 MPI tasks x no OpenMP threads
timestep 720
fix_modify k1 demflag 0
fix_modify d1 demflag 0
fix_modify vf1 demflag 0
Step CPU Atoms biomass c_myHeight c_myNtype[1] c_myNtype[2] c_myNtype[3] 
    1001            0      200 1.4718187e-12 2.3419323e-05            0          100          100 
number of iterations: 19083 
maxz = 4.790473e-05 
    1002    0.7784121      200 1.5078016e-12 2.3362061e-05            0          100          100 
Loop time of 0.778426 on 4 procs for 1 steps with 200 atoms

99.8% CPU use with 4 MPI tasks x no OpenMP threads
fix_modify k1 demflag 1
fix_modify d1 demflag 1
fix_modify vf1 demflag 1
timestep 0.1
run 1000 pre no post no
Step CPU Atoms biomass c_myHeight c_myNtype[1] c_myNtype[2] c_myNtype[3] 
    1002            0      200 1.5078016e-12 2.3362061e-05            0          100          100 
    2002  0.017121077      200 1.5078016e-12 2.3861149e-05            0          100          100 
Loop time of 0.0171375 on 4 procs for 1000 steps with 200 atoms

99.9% CPU use with 4 MPI tasks x no OpenMP threads
timestep 720
fix_modify k1 demflag 0
fix_modify d1 demflag 0
fix_modify vf1 demflag 0
Step CPU Atoms biomass c_myHeight c_myNtype[1] c_myNtype[2] c_myNtype[3] 
    2002            0      200 1.5078016e-12 2.3861149e-05            0          100          100 
number of iterations: 18737 
maxz = 4.806099e-05 
    2003   0.75593805      200 1.5445375e-12 2.3477909e-05            0          100          100 
Loop time of 0.755955 on 4 procs for 1 steps with 200 atoms

100.0% CPU use with 4 MPI tasks x no OpenMP threads
fix_modify k1 demflag 1
fix_modify d1 demflag 1
fix_modify vf1 demflag 1
timestep 0.1
run 1000 pre no post no
Step CPU Atoms biomass c_myHeight c_myNtype[1] c_myNtype[2] c_myNtype[3] 
    2003            0      200 1.5445375e-12 2.3477909e-05            0          100          100 
    3003  0.016873121      200 1.5445375e-12 2.3811207e-05            0          100          100 
Loop time of 0.0168903 on 4 procs for 1000 steps with 200 atoms

99.9% CPU use with 4 MPI tasks x no OpenMP threads
timestep 720
fix_modify k1 demflag 0
fix_modify d1 demflag 0
fix_modify vf1 demflag 0
Step CPU Atoms biomass c_myHeight c_myNtype[1] c_myNtype[2] c_myNtype[3] 
    3003            0      200 1.5445375e-12 2.3811207e-05            0          100          100 
number of iterations: 18240 
maxz = 4.803341e-05 
    3004   0.80728316      200 1.5820962e-12 2.393329e-05            0          100          100 
Loop time of 0.807316 on 4 procs for 1 steps with 200 atoms

100.0% CPU use with 4 MPI tasks x no OpenMP threads
fix_modify k1 demflag 1
fix_modify d1 demflag 1
fix_modify vf1 demflag 1
timestep 0.1
run 1000 pre no post no
Step CPU Atoms biomass c_myHeight c_myNtype[1] c_myNtype[2] c_myNtype[3] 
    3004            0      200 1.5820962e-12 2.393329e-05            0          100          100 
    4004  0.024779797      200 1.5820962e-12 2.4162779e-05            0          100          100 
Loop time of 0.0248085 on 4 procs for 1000 steps with 200 atoms

100.0% CPU use with 4 MPI tasks x no OpenMP threads
timestep 720
fix_modify k1 demflag 0
fix_modify d1 demflag 0
fix_modify vf1 demflag 0
Step CPU Atoms biomass c_myHeight c_myNtype[1] c_myNtype[2] c_myNtype[3] 
    4004            0      200 1.5820962e-12 2.4162779e-05            0          100          100 
number of iterations: 17624 
maxz = 4.999425e-05 
    4005   0.85005498      300 1.6205619e-12 2.7938558e-05            0          200          100 
Loop time of 0.85007 on 4 procs for 1 steps with 300 atoms

100.0% CPU use with 4 MPI tasks x no OpenMP threads
fix_modify k1 demflag 1
fix_modify d1 demflag 1
fix_modify vf1 demflag 1
timestep 0.1
run 1000 pre no post no
Step CPU Atoms biomass c_myHeight c_myNtype[1] c_myNtype[2] c_myNtype[3] 
    4005            0      300 1.6205619e-12 2.7938558e-05            0          200          100 
    5005  0.029387951      300 1.6205619e-12 2.8404601e-05            0          200          100 
Loop time of 0.0294242 on 4 procs for 1000 steps with 300 atoms

100.0% CPU use with 4 MPI tasks x no OpenMP threads
timestep 720
fix_modify k1 demflag 0
fix_modify d1 demflag 0
fix_modify vf1 demflag 0
Step CPU Atoms biomass c_myHeight c_myNtype[1] c_myNtype[2] c_myNtype[3] 
    5005            0      300 1.6205619e-12 2.8404601e-05            0          200          100 
number of iterations: 16871 
maxz = 5.012013e-05 
    5006   0.70392418      300 1.6600283e-12 2.8459938e-05            0          200          100 
Loop time of 0.703938 on 4 procs for 1 steps with 300 atoms

99.9% CPU use with 4 MPI tasks x no OpenMP threads
fix_modify k1 demflag 1
fix_modify d1 demflag 1
fix_modify vf1 demflag 1
timestep 0.1
run 1000 pre no post no
Step CPU Atoms biomass c_myHeight c_myNtype[1] c_myNtype[2] c_myNtype[3] 
    5006            0      300 1.6600283e-12 2.8459938e-05            0          200          100 
    6006  0.027844906      300 1.6600283e-12 2.8532311e-05            0          200          100 
Loop time of 0.0278645 on 4 procs for 1000 steps with 300 atoms

100.0% CPU use with 4 MPI tasks x no OpenMP threads
timestep 720
fix_modify k1 demflag 0
fix_modify d1 demflag 0
fix_modify vf1 demflag 0
Step CPU Atoms biomass c_myHeight c_myNtype[1] c_myNtype[2] c_myNtype[3] 
    6006            0      300 1.6600283e-12 2.8532311e-05            0          200          100 
number of iterations: 21689 
maxz = 5.009848e-05 
    6007    1.1979539      300 1.7005439e-12 2.8471984e-05            0          200          100 
Loop time of 1.19797 on 4 procs for 1 steps with 300 atoms

100.0% CPU use with 4 MPI tasks x no OpenMP threads
fix_modify k1 demflag 1
fix_modify d1 demflag 1
fix_modify vf1 demflag 1
timestep 0.1
run 1000 pre no post no
Step CPU Atoms biomass c_myHeight c_myNtype[1] c_myNtype[2] c_myNtype[3] 
    6007            0      300 1.7005439e-12 2.8471984e-05            0          200          100 
    7007  0.027056932      300 1.7005439e-12 2.8568046e-05            0          200          100 
Loop time of 0.0270789 on 4 procs for 1000 steps with 300 atoms

100.0% CPU use with 4 MPI tasks x no OpenMP threads
timestep 720
fix_modify k1 demflag 0
fix_modify d1 demflag 0
fix_modify vf1 demflag 0
Step CPU Atoms biomass c_myHeight c_myNtype[1] c_myNtype[2] c_myNtype[3] 
    7007            0      300 1.7005439e-12 2.8568046e-05            0          200          100 
number of iterations: 18836 
maxz = 5.022239e-05 
    7008   0.86122108      300 1.7422612e-12 2.8679563e-05            0          200          100 
Loop time of 0.861235 on 4 procs for 1 steps with 300 atoms

100.0% CPU use with 4 MPI tasks x no OpenMP threads
fix_modify k1 demflag 1
fix_modify d1 demflag 1
fix_modify vf1 demflag 1
timestep 0.1
run 1000 pre no post no
Step CPU Atoms biomass c_myHeight c_myNtype[1] c_myNtype[2] c_myNtype[3] 
    7008            0      300 1.7422612e-12 2.8679563e-05            0          200          100 
    8008  0.025866032      300 1.7422612e-12 2.8846884e-05            0          200          100 
Loop time of 0.0258868 on 4 procs for 1000 steps with 300 atoms

100.0% CPU use with 4 MPI tasks x no OpenMP threads
timestep 720
fix_modify k1 demflag 0
fix_modify d1 demflag 0
fix_modify vf1 demflag 0
Step CPU Atoms biomass c_myHeight c_myNtype[1] c_myNtype[2] c_myNtype[3] 
    8008            0      300 1.7422612e-12 2.8846884e-05            0          200          100 
number of iterations: 17344 
maxz = 5.034512e-05 
    8009   0.91404104      300 1.7852757e-12 2.8789668e-05            0          200          100 
Loop time of 0.914061 on 4 procs for 1 steps with 300 atoms

100.0% CPU use with 4 MPI tasks x no OpenMP threads
fix_modify k1 demflag 1
fix_modify d1 demflag 1
fix_modify vf1 demflag 1
timestep 0.1
run 1000 pre no post no
Step CPU Atoms biomass c_myHeight c_myNtype[1] c_myNtype[2] c_myNtype[3] 
    8009            0      300 1.7852757e-12 2.8789668e-05            0          200          100 
    9009  0.033412933      300 1.7852757e-12 2.9137526e-05            0          200          100 
Loop time of 0.0334558 on 4 procs for 1000 steps with 300 atoms

100.0% CPU use with 4 MPI tasks x no OpenMP threads
timestep 720
fix_modify k1 demflag 0
fix_modify d1 demflag 0
fix_modify vf1 demflag 0
Step CPU Atoms biomass c_myHeight c_myNtype[1] c_myNtype[2] c_myNtype[3] 
    9009            0      300 1.7852757e-12 2.9137526e-05            0          200          100 
number of iterations: 15793 
maxz = 5.033045e-05 
    9010   0.83583093      300 1.8296776e-12 2.891889e-05            0          200          100 
Loop time of 0.83585 on 4 procs for 1 steps with 300 atoms

100.0% CPU use with 4 MPI tasks x no OpenMP threads
fix_modify k1 demflag 1
fix_modify d1 demflag 1
fix_modify vf1 demflag 1
timestep 0.1
run 1000 pre no post no
Step CPU Atoms biomass c_myHeight c_myNtype[1] c_myNtype[2] c_myNtype[3] 
    9010            0      300 1.8296776e-12 2.891889e-05            0          200          100 
   10010  0.031563044      300 1.8296776e-12 2.9267859e-05            0          200          100 
Loop time of 0.0315862 on 4 procs for 1000 steps with 300 atoms

97.2% CPU use with 4 MPI tasks x no OpenMP threads
timestep 720
fix_modify k1 demflag 0
fix_modify d1 demflag 0
fix_modify vf1 demflag 0
Step CPU Atoms biomass c_myHeight c_myNtype[1] c_myNtype[2] c_myNtype[3] 
   10010            0      300 1.8296776e-12 2.9267859e-05            0          200          100 
number of iterations: 14233 
maxz = 5.045450e-05 
   10011     0.801157      300 1.8755535e-12 2.9212265e-05            0          200          100 
Loop time of 0.801172 on 4 procs for 1 steps with 300 atoms

100.0% CPU use with 4 MPI tasks x no OpenMP threads
fix_modify k1 demflag 1
fix_modify d1 demflag 1
fix_modify vf1 demflag 1
timestep 0.1
run 1000 pre no post no
Step CPU Atoms biomass c_myHeight c_myNtype[1] c_myNtype[2] c_myNtype[3] 
   10011            0      300 1.8755535e-12 2.9212265e-05            0          200          100 
   11011  0.028213024      300 1.8755535e-12 2.9440337e-05            0          200          100 
Loop time of 0.0282354 on 4 procs for 1000 steps with 300 atoms

100.0% CPU use with 4 MPI tasks x no OpenMP threads
timestep 720
fix_modify k1 demflag 0
fix_modify d1 demflag 0
fix_modify vf1 demflag 0
Step CPU Atoms biomass c_myHeight c_myNtype[1] c_myNtype[2] c_myNtype[3] 
   11011            0      300 1.8755535e-12 2.9440337e-05            0          200          100 
number of iterations: 12720 
maxz = 5.057801e-05 
   11012   0.62879705      300 1.9229855e-12 2.9586981e-05            0          200          100 
Loop time of 0.628814 on 4 procs for 1 steps with 300 atoms

100.0% CPU use with 4 MPI tasks x no OpenMP threads
fix_modify k1 demflag 1
fix_modify d1 demflag 1
fix_modify vf1 demflag 1
timestep 0.1
run 1000 pre no post no
Step CPU Atoms biomass c_myHeight c_myNtype[1] c_myNtype[2] c_myNtype[3] 
   11012            0      300 1.9229855e-12 2.9586981e-05            0          200          100 
   12012  0.027416945      300 1.9229855e-12 2.9613387e-05            0          200          100 
Loop time of 0.0274427 on 4 procs for 1000 steps with 300 atoms

100.0% CPU use with 4 MPI tasks x no OpenMP threads
timestep 720
fix_modify k1 demflag 0
fix_modify d1 demflag 0
fix_modify vf1 demflag 0
Step CPU Atoms biomass c_myHeight c_myNtype[1] c_myNtype[2] c_myNtype[3] 
   12012            0      300 1.9229855e-12 2.9613387e-05            0          200          100 
number of iterations: 11288 
maxz = 5.056655e-05 
   12013   0.61994386      300 1.9720527e-12 2.9567081e-05            0          200          100 
Loop time of 0.619963 on 4 procs for 1 steps with 300 atoms

100.0% CPU use with 4 MPI tasks x no OpenMP threads
fix_modify k1 demflag 1
fix_modify d1 demflag 1
fix_modify vf1 demflag 1
timestep 0.1
run 1000 pre no post no
Step CPU Atoms biomass c_myHeight c_myNtype[1] c_myNtype[2] c_myNtype[3] 
   12013            0      300 1.9720527e-12 2.9567081e-05            0          200          100 
   13013  0.032315969      300 1.9720527e-12 2.958558e-05            0          200          100 
Loop time of 0.0323446 on 4 procs for 1000 steps with 300 atoms

100.0% CPU use with 4 MPI tasks x no OpenMP threads
timestep 720
fix_modify k1 demflag 0
fix_modify d1 demflag 0
fix_modify vf1 demflag 0
Step CPU Atoms biomass c_myHeight c_myNtype[1] c_myNtype[2] c_myNtype[3] 
   13013            0      300 1.9720527e-12 2.958558e-05            0          200          100 
number of iterations: 9967 
maxz = 5.069060e-05 
   13014   0.64131784      300 2.0228311e-12 2.9751023e-05            0          200          100 
Loop time of 0.641333 on 4 procs for 1 steps with 300 atoms

100.0% CPU use with 4 MPI tasks x no OpenMP threads
fix_modify k1 demflag 1
fix_modify d1 demflag 1
fix_modify vf1 demflag 1
timestep 0.1
run 1000 pre no post no
Step CPU Atoms biomass c_myHeight c_myNtype[1] c_myNtype[2] c_myNtype[3] 
   13014            0      300 2.0228311e-12 2.9751023e-05            0          200          100 
   14014  0.035791874      300 2.0228311e-12 2.9771492e-05            0          200          100 
Loop time of 0.0358193 on 4 procs for 1000 steps with 300 atoms

100.0% CPU use with 4 MPI tasks x no OpenMP threads
timestep 720
fix_modify k1 demflag 0
fix_modify d1 demflag 0
fix_modify vf1 demflag 0
Step CPU Atoms biomass c_myHeight c_myNtype[1] c_myNtype[2] c_myNtype[3] 
   14014            0      300 2.0228311e-12 2.9771492e-05            0          200          100 
number of iterations: 8780 
maxz = 5.081486e-05 
   14015   0.52355599      300 2.0753962e-12 2.9748648e-05            0          200          100 
Loop time of 0.52357 on 4 procs for 1 steps with 300 atoms

100.0% CPU use with 4 MPI tasks x no OpenMP threads
fix_modify k1 demflag 1
fix_modify d1 demflag 1
fix_modify vf1 demflag 1
timestep 0.1
run 1000 pre no post no
Step CPU Atoms biomass c_myHeight c_myNtype[1] c_myNtype[2] c_myNtype[3] 
   14015            0      300 2.0753962e-12 2.9748648e-05            0          200          100 
   15015  0.030277014      300 2.0753962e-12 2.9812008e-05            0          200          100 
Loop time of 0.030318 on 4 procs for 1000 steps with 300 atoms

100.0% CPU use with 4 MPI tasks x no OpenMP threads
timestep 720
fix_modify k1 demflag 0
fix_modify d1 demflag 0
fix_modify vf1 demflag 0
Step CPU Atoms biomass c_myHeight c_myNtype[1] c_myNtype[2] c_myNtype[3] 
   15015            0      300 2.0753962e-12 2.9812008e-05            0          200          100 
number of iterations: 7718 
maxz = 5.080678e-05 
   15016    0.4506278      300 2.1298236e-12 2.9901733e-05            0          200          100 
Loop time of 0.450641 on 4 procs for 1 steps with 300 atoms

100.0% CPU use with 4 MPI tasks x no OpenMP threads
fix_modify k1 demflag 1
fix_modify d1 demflag 1
fix_modify vf1 demflag 1
timestep 0.1
run 1000 pre no post no
Step CPU Atoms biomass c_myHeight c_myNtype[1] c_myNtype[2] c_myNtype[3] 
   15016            0      300 2.1298236e-12 2.9901733e-05            0          200          100 
   16016    0.0288589      300 2.1298236e-12 2.9881379e-05            0          200          100 
Loop time of 0.028882 on 4 procs for 1000 steps with 300 atoms

100.0% CPU use with 4 MPI tasks x no OpenMP threads
timestep 720
fix_modify k1 demflag 0
fix_modify d1 demflag 0
fix_modify vf1 demflag 0
Step CPU Atoms biomass c_myHeight c_myNtype[1] c_myNtype[2] c_myNtype[3] 
   16016            0      300 2.1298236e-12 2.9881379e-05            0          200          100 
number of iterations: 6903 
maxz = 5.093175e-05 
   16017   0.43437982      300 2.1861876e-12 3.0105239e-05            0          200          100 
Loop time of 0.434394 on 4 procs for 1 steps with 300 atoms

100.0% CPU use with 4 MPI tasks x no OpenMP threads
fix_modify k1 demflag 1
fix_modify d1 demflag 1
fix_modify vf1 demflag 1
timestep 0.1
run 1000 pre no post no
Step CPU Atoms biomass c_myHeight c_myNtype[1] c_myNtype[2] c_myNtype[3] 
   16017            0      300 2.1861876e-12 3.0105239e-05            0          200          100 
   17017  0.030153036      300 2.1861876e-12 3.0262141e-05            0          200          100 
Loop time of 0.0301699 on 4 procs for 1000 steps with 300 atoms

100.0% CPU use with 4 MPI tasks x no OpenMP threads
timestep 720
fix_modify k1 demflag 0
fix_modify d1 demflag 0
fix_modify vf1 demflag 0
Step CPU Atoms biomass c_myHeight c_myNtype[1] c_myNtype[2] c_myNtype[3] 
   17017            0      300 2.1861876e-12 3.0262141e-05            0          200          100 
number of iterations: 6359 
maxz = 5.105656e-05 
   17018   0.40441799      300 2.2445655e-12 3.0272104e-05            0          200          100 
Loop time of 0.404433 on 4 procs for 1 steps with 300 atoms

100.0% CPU use with 4 MPI tasks x no OpenMP threads
fix_modify k1 demflag 1
fix_modify d1 demflag 1
fix_modify vf1 demflag 1
timestep 0.1
run 1000 pre no post no
Step CPU Atoms biomass c_myHeight c_myNtype[1] c_myNtype[2] c_myNtype[3] 
   17018            0      300 2.2445655e-12 3.0272104e-05            0          200          100 
   18018  0.028872013      300 2.2445655e-12 3.0445281e-05            0          200          100 
Loop time of 0.0288918 on 4 procs for 1000 steps with 300 atoms

100.0% CPU use with 4 MPI tasks x no OpenMP threads
timestep 720
fix_modify k1 demflag 0
fix_modify d1 demflag 0
fix_modify vf1 demflag 0
Step CPU Atoms biomass c_myHeight c_myNtype[1] c_myNtype[2] c_myNtype[3] 
   18018            0      300 2.2445655e-12 3.0445281e-05            0          200          100 
number of iterations: 6527 
maxz = 5.272930e-05 
   18019   0.39750099      323 2.305033e-12 3.0849277e-05            0          223          100 
Loop time of 0.397518 on 4 procs for 1 steps with 323 atoms

100.0% CPU use with 4 MPI tasks x no OpenMP threads
fix_modify k1 demflag 1
fix_modify d1 demflag 1
fix_modify vf1 demflag 1
timestep 0.1
run 1000 pre no post no
Step CPU Atoms biomass c_myHeight c_myNtype[1] c_myNtype[2] c_myNtype[3] 
   18019            0      323 2.305033e-12 3.0849277e-05            0          223          100 
   19019  0.034641027      323 2.305033e-12 3.1431422e-05            0          223          100 
Loop time of 0.0346646 on 4 procs for 1000 steps with 323 atoms

100.0% CPU use with 4 MPI tasks x no OpenMP threads
timestep 720
fix_modify k1 demflag 0
fix_modify d1 demflag 0
fix_modify vf1 demflag 0
Step CPU Atoms biomass c_myHeight c_myNtype[1] c_myNtype[2] c_myNtype[3] 
   19019            0      323 2.305033e-12 3.1431422e-05            0          223          100 
number of iterations: 6564 
maxz = 5.331158e-05 
   19020   0.40194511      341 2.3676699e-12 3.1846194e-05            0          241          100 
Loop time of 0.401959 on 4 procs for 1 steps with 341 atoms

100.0% CPU use with 4 MPI tasks x no OpenMP threads
fix_modify k1 demflag 1
fix_modify d1 demflag 1
fix_modify vf1 demflag 1
timestep 0.1
run 1000 pre no post no
Step CPU Atoms biomass c_myHeight c_myNtype[1] c_myNtype[2] c_myNtype[3] 
   19020            0      341 2.3676699e-12 3.1846194e-05            0          241          100 
   20020  0.039378881      341 2.3676699e-12 3.2587217e-05            0          241          100 
Loop time of 0.0394034 on 4 procs for 1000 steps with 341 atoms

100.0% CPU use with 4 MPI tasks x no OpenMP threads
timestep 720
fix_modify k1 demflag 0
fix_modify d1 demflag 0
fix_modify vf1 demflag 0
Step CPU Atoms biomass c_myHeight c_myNtype[1] c_myNtype[2] c_myNtype[3] 
   20020            0      341 2.3676699e-12 3.2587217e-05            0          241          100 
number of iterations: 6774 
maxz = 5.343899e-05 
   20021   0.40314603      365 2.432556e-12 3.2822172e-05            0          265          100 
Loop time of 0.403159 on 4 procs for 1 steps with 365 atoms

100.0% CPU use with 4 MPI tasks x no OpenMP threads
fix_modify k1 demflag 1
fix_modify d1 demflag 1
fix_modify vf1 demflag 1
timestep 0.1
run 1000 pre no post no
Step CPU Atoms biomass c_myHeight c_myNtype[1] c_myNtype[2] c_myNtype[3] 
   20021            0      365 2.432556e-12 3.2822172e-05            0          265          100 
   21021  0.038892984      365 2.432556e-12 3.3126229e-05            0          265          100 
Loop time of 0.0389125 on 4 procs for 1000 steps with 365 atoms

100.0% CPU use with 4 MPI tasks x no OpenMP threads
timestep 720
fix_modify k1 demflag 0
fix_modify d1 demflag 0
fix_modify vf1 demflag 0
Step CPU Atoms biomass c_myHeight c_myNtype[1] c_myNtype[2] c_myNtype[3] 
   21021            0      365 2.432556e-12 3.3126229e-05            0          265          100 
number of iterations: 6983 
maxz = 5.342145e-05 
   21022   0.42688203      390 2.499773e-12 3.3557469e-05            0          290          100 
Loop time of 0.426897 on 4 procs for 1 steps with 390 atoms

100.0% CPU use with 4 MPI tasks x no OpenMP threads
fix_modify k1 demflag 1
fix_modify d1 demflag 1
fix_modify vf1 demflag 1
timestep 0.1
run 1000 pre no post no
Step CPU Atoms biomass c_myHeight c_myNtype[1] c_myNtype[2] c_myNtype[3] 
   21022            0      390 2.499773e-12 3.3557469e-05            0          290          100 
   22022  0.047651052      390 2.499773e-12 3.4076505e-05            0          290          100 
Loop time of 0.047673 on 4 procs for 1000 steps with 390 atoms

100.0% CPU use with 4 MPI tasks x no OpenMP threads
timestep 720
fix_modify k1 demflag 0
fix_modify d1 demflag 0
fix_modify vf1 demflag 0
Step CPU Atoms biomass c_myHeight c_myNtype[1] c_myNtype[2] c_myNtype[3] 
   22022            0      390 2.499773e-12 3.4076505e-05            0          290          100 
number of iterations: 7143 
maxz = 5.354980e-05 
   22023   0.48733997      400 2.5694045e-12 3.425177e-05            0          300          100 
Loop time of 0.48736 on 4 procs for 1 steps with 400 atoms

100.0% CPU use with 4 MPI tasks x no OpenMP threads
fix_modify k1 demflag 1
fix_modify d1 demflag 1
fix_modify vf1 demflag 1
timestep 0.1
run 1000 pre no post no
Step CPU Atoms biomass c_myHeight c_myNtype[1] c_myNtype[2] c_myNtype[3] 
   22023            0      400 2.5694045e-12 3.425177e-05            0          300          100 
   23023  0.048619032      400 2.5694045e-12 3.4521622e-05            0          300          100 
Loop time of 0.0486472 on 4 procs for 1000 steps with 400 atoms

100.0% CPU use with 4 MPI tasks x no OpenMP threads
timestep 720
fix_modify k1 demflag 0
fix_modify d1 demflag 0
fix_modify vf1 demflag 0
Step CPU Atoms biomass c_myHeight c_myNtype[1] c_myNtype[2] c_myNtype[3] 
   23023            0      400 2.5694045e-12 3.4521622e-05            0          300          100 
number of iterations: 7543 
maxz = 5.367706e-05 
   23024   0.48342204      419 2.6415354e-12 3.4906183e-05            0          319          100 
Loop time of 0.483437 on 4 procs for 1 steps with 419 atoms

100.0% CPU use with 4 MPI tasks x no OpenMP threads
fix_modify k1 demflag 1
fix_modify d1 demflag 1
fix_modify vf1 demflag 1
timestep 0.1
run 1000 pre no post no
Step CPU Atoms biomass c_myHeight c_myNtype[1] c_myNtype[2] c_myNtype[3] 
   23024            0      419 2.6415354e-12 3.4906183e-05            0          319          100 
   24024  0.053457975      419 2.6415354e-12 3.4919965e-05            0          319          100 
Loop time of 0.0534858 on 4 procs for 1000 steps with 419 atoms

100.0% CPU use with 4 MPI tasks x no OpenMP threads
timestep 720
fix_modify k1 demflag 0
fix_modify d1 demflag 0
fix_modify vf1 demflag 0
Step CPU Atoms biomass c_myHeight c_myNtype[1] c_myNtype[2] c_myNtype[3] 
   24024            0      419 2.6415354e-12 3.4919965e-05            0          319          100 
number of iterations: 7293 
maxz = 5.380423e-05 
   24025   0.48535299      438 2.7162581e-12 3.5238703e-05            0          338          100 
Loop time of 0.485373 on 4 procs for 1 steps with 438 atoms

100.0% CPU use with 4 MPI tasks x no OpenMP threads
fix_modify k1 demflag 1
fix_modify d1 demflag 1
fix_modify vf1 demflag 1
timestep 0.1
run 1000 pre no post no
Step CPU Atoms biomass c_myHeight c_myNtype[1] c_myNtype[2] c_myNtype[3] 
   24025            0      438 2.7162581e-12 3.5238703e-05            0          338          100 
   25025  0.054454088      438 2.7162581e-12 3.5306128e-05            0          338          100 
Loop time of 0.0544758 on 4 procs for 1000 steps with 438 atoms

100.0% CPU use with 4 MPI tasks x no OpenMP threads
timestep 720
fix_modify k1 demflag 0
fix_modify d1 demflag 0
fix_modify vf1 demflag 0
Step CPU Atoms biomass c_myHeight c_myNtype[1] c_myNtype[2] c_myNtype[3] 
   25025            0      438 2.7162581e-12 3.5306128e-05            0          338          100 
number of iterations: 7731 
maxz = 5.396471e-05 
   25026   0.43590999      459 2.7936624e-12 3.5590597e-05            0          359          100 
Loop time of 0.435925 on 4 procs for 1 steps with 459 atoms

100.0% CPU use with 4 MPI tasks x no OpenMP threads
fix_modify k1 demflag 1
fix_modify d1 demflag 1
fix_modify vf1 demflag 1
timestep 0.1
run 1000 pre no post no
Step CPU Atoms biomass c_myHeight c_myNtype[1] c_myNtype[2] c_myNtype[3] 
   25026            0      459 2.7936624e-12 3.5590597e-05            0          359          100 
   26026  0.059489012      459 2.7936624e-12 3.5880906e-05            0          359          100 
Loop time of 0.0595171 on 4 procs for 1000 steps with 459 atoms

100.0% CPU use with 4 MPI tasks x no OpenMP threads
timestep 720
fix_modify k1 demflag 0
fix_modify d1 demflag 0
fix_modify vf1 demflag 0
Step CPU Atoms biomass c_myHeight c_myNtype[1] c_myNtype[2] c_myNtype[3] 
   26026            0      459 2.7936624e-12 3.5880906e-05            0          359          100 
number of iterations: 7895 
maxz = 5.409117e-05 
   26027   0.47586799      468 2.8738426e-12 3.6227939e-05            0          368          100 
Loop time of 0.475886 on 4 procs for 1 steps with 468 atoms

100.0% CPU use with 4 MPI tasks x no OpenMP threads
fix_modify k1 demflag 1
fix_modify d1 demflag 1
fix_modify vf1 demflag 1
timestep 0.1
run 1000 pre no post no
Step CPU Atoms biomass c_myHeight c_myNtype[1] c_myNtype[2] c_myNtype[3] 
   26027            0      468 2.8738426e-12 3.6227939e-05            0          368          100 
   27027  0.070247889      468 2.8738426e-12 3.6481231e-05            0          368          100 
Loop time of 0.0702751 on 4 procs for 1000 steps with 468 atoms

100.0% CPU use with 4 MPI tasks x no OpenMP threads
timestep 720
fix_modify k1 demflag 0
fix_modify d1 demflag 0
fix_modify vf1 demflag 0
Step CPU Atoms biomass c_myHeight c_myNtype[1] c_myNtype[2] c_myNtype[3] 
   27027            0      468 2.8738426e-12 3.6481231e-05            0          368          100 
number of iterations: 8266 
maxz = 5.417909e-05 
   27028   0.51609397      489 2.9568923e-12 3.6661056e-05            0          389          100 
Loop time of 0.516109 on 4 procs for 1 steps with 489 atoms

100.0% CPU use with 4 MPI tasks x no OpenMP threads
fix_modify k1 demflag 1
fix_modify d1 demflag 1
fix_modify vf1 demflag 1
timestep 0.1
run 1000 pre no post no
Step CPU Atoms biomass c_myHeight c_myNtype[1] c_myNtype[2] c_myNtype[3] 
   27028            0      489 2.9568923e-12 3.6661056e-05            0          389          100 
   28028  0.069509983      489 2.9568923e-12 3.7155601e-05            0          389          100 
Loop time of 0.0695455 on 4 procs for 1000 steps with 489 atoms

100.0% CPU use with 4 MPI tasks x no OpenMP threads
timestep 720
fix_modify k1 demflag 0
fix_modify d1 demflag 0
fix_modify vf1 demflag 0
Step CPU Atoms biomass c_myHeight c_myNtype[1] c_myNtype[2] c_myNtype[3] 
   28028            0      489 2.9568923e-12 3.7155601e-05            0          389          100 
number of iterations: 8375 
maxz = 5.434329e-05 
   28029   0.44344401      519 3.0429146e-12 3.7737031e-05            0          400          119 
Loop time of 0.443458 on 4 procs for 1 steps with 519 atoms

100.0% CPU use with 4 MPI tasks x no OpenMP threads
fix_modify k1 demflag 1
fix_modify d1 demflag 1
fix_modify vf1 demflag 1
timestep 0.1
run 1000 pre no post no
Step CPU Atoms biomass c_myHeight c_myNtype[1] c_myNtype[2] c_myNtype[3] 
   28029            0      519 3.0429146e-12 3.7737031e-05            0          400          119 
   29029  0.066212893      519 3.0429146e-12 3.8170339e-05            0          400          119 
Loop time of 0.066243 on 4 procs for 1000 steps with 519 atoms

100.0% CPU use with 4 MPI tasks x no OpenMP threads
timestep 720
fix_modify k1 demflag 0
fix_modify d1 demflag 0
fix_modify vf1 demflag 0
Step CPU Atoms biomass c_myHeight c_myNtype[1] c_myNtype[2] c_myNtype[3] 
   29029            0      519 3.0429146e-12 3.8170339e-05            0          400          119 
number of iterations: 8821 
maxz = 5.432320e-05 
   29030   0.56419897      595 3.1320068e-12 3.8716233e-05            0          400          195 
Loop time of 0.564218 on 4 procs for 1 steps with 595 atoms

100.0% CPU use with 4 MPI tasks x no OpenMP threads
fix_modify k1 demflag 1
fix_modify d1 demflag 1
fix_modify vf1 demflag 1
timestep 0.1
run 1000 pre no post no
Step CPU Atoms biomass c_myHeight c_myNtype[1] c_myNtype[2] c_myNtype[3] 
   29030            0      595 3.1320068e-12 3.8716233e-05            0          400          195 
   30030  0.092984915      595 3.1320068e-12 3.9271665e-05            0          400          195 
Loop time of 0.093015 on 4 procs for 1000 steps with 595 atoms

100.0% CPU use with 4 MPI tasks x no OpenMP threads
timestep 720
fix_modify k1 demflag 0
fix_modify d1 demflag 0
fix_modify vf1 demflag 0
Step CPU Atoms biomass c_myHeight c_myNtype[1] c_myNtype[2] c_myNtype[3] 
   30030            0      595 3.1320068e-12 3.9271665e-05            0          400          195 
number of iterations: 8814 
maxz = 5.447097e-05 
   30031   0.53942513      600 3.224276e-12 3.9072253e-05            0          400          200 
Loop time of 0.539443 on 4 procs for 1 steps with 600 atoms

99.8% CPU use with 4 MPI tasks x no OpenMP threads
fix_modify k1 demflag 1
fix_modify d1 demflag 1
fix_modify vf1 demflag 1
timestep 0.1
run 1000 pre no post no
Step CPU Atoms biomass c_myHeight c_myNtype[1] c_myNtype[2] c_myNtype[3] 
   30031            0      600 3.224276e-12 3.9072253e-05            0          400          200 
   31031  0.095465183      600 3.224276e-12 3.9244301e-05            0          400          200 
Loop time of 0.0954871 on 4 procs for 1000 steps with 600 atoms

100.0% CPU use with 4 MPI tasks x no OpenMP threads
timestep 720
fix_modify k1 demflag 0
fix_modify d1 demflag 0
fix_modify vf1 demflag 0
Step CPU Atoms biomass c_myHeight c_myNtype[1] c_myNtype[2] c_myNtype[3] 
   31031            0      600 3.224276e-12 3.9244301e-05            0          400          200 
number of iterations: 9198 
maxz = 5.461931e-05 
   31032   0.50188613      601 3.3198209e-12 3.9520262e-05            0          401          200 
Loop time of 0.501903 on 4 procs for 1 steps with 601 atoms

100.0% CPU use with 4 MPI tasks x no OpenMP threads
fix_modify k1 demflag 1
fix_modify d1 demflag 1
fix_modify vf1 demflag 1
timestep 0.1
run 1000 pre no post no
Step CPU Atoms biomass c_myHeight c_myNtype[1] c_myNtype[2] c_myNtype[3] 
   31032            0      601 3.3198209e-12 3.9520262e-05            0          401          200 
   32032  0.085975885      601 3.3198209e-12 3.9512543e-05            0          401          200 
Loop time of 0.086005 on 4 procs for 1000 steps with 601 atoms

100.0% CPU use with 4 MPI tasks x no OpenMP threads
timestep 720
fix_modify k1 demflag 0
fix_modify d1 demflag 0
fix_modify vf1 demflag 0
Step CPU Atoms biomass c_myHeight c_myNtype[1] c_myNtype[2] c_myNtype[3] 
   32032            0      601 3.3198209e-12 3.9512543e-05            0          401          200 
number of iterations: 9565 
maxz = 5.476289e-05 
   32033   0.53248191      605 3.4187464e-12 3.9343266e-05            0          405          200 
Loop time of 0.532502 on 4 procs for 1 steps with 605 atoms

100.0% CPU use with 4 MPI tasks x no OpenMP threads
fix_modify k1 demflag 1
fix_modify d1 demflag 1
fix_modify vf1 demflag 1
timestep 0.1
run 1000 pre no post no
Step CPU Atoms biomass c_myHeight c_myNtype[1] c_myNtype[2] c_myNtype[3] 
   32033            0      605 3.4187464e-12 3.9343266e-05            0          405          200 
   33033  0.095324039      605 3.4187464e-12 3.9429302e-05            0          405          200 
Loop time of 0.0953531 on 4 procs for 1000 steps with 605 atoms

100.0% CPU use with 4 MPI tasks x no OpenMP threads
timestep 720
fix_modify k1 demflag 0
fix_modify d1 demflag 0
fix_modify vf1 demflag 0
Step CPU Atoms biomass c_myHeight c_myNtype[1] c_myNtype[2] c_myNtype[3] 
   33033            0      605 3.4187464e-12 3.9429302e-05            0          405          200 
number of iterations: 9786 
maxz = 5.473094e-05 
   33034   0.49353004      613 3.5211642e-12 3.9569706e-05            0          413          200 
Loop time of 0.493544 on 4 procs for 1 steps with 613 atoms

100.0% CPU use with 4 MPI tasks x no OpenMP threads
fix_modify k1 demflag 1
fix_modify d1 demflag 1
fix_modify vf1 demflag 1
timestep 0.1
run 1000 pre no post no
Step CPU Atoms biomass c_myHeight c_myNtype[1] c_myNtype[2] c_myNtype[3] 
   33034            0      613 3.5211642e-12 3.9569706e-05            0          413          200 
   34034   0.10313606      613 3.5211642e-12 3.982451e-05            0          413          200 
Loop time of 0.103159 on 4 procs for 1000 steps with 613 atoms

100.0% CPU use with 4 MPI tasks x no OpenMP threads
timestep 720
fix_modify k1 demflag 0
fix_modify d1 demflag 0
fix_modify vf1 demflag 0
Step CPU Atoms biomass c_myHeight c_myNtype[1] c_myNtype[2] c_myNtype[3] 
   34034            0      613 3.5211642e-12 3.982451e-05            0          413          200 
number of iterations: 10004 
maxz = 5.757269e-05 
   34035   0.51065993      627 3.6271873e-12 3.9951847e-05            0          427          200 
Loop time of 0.510675 on 4 procs for 1 steps with 627 atoms

100.0% CPU use with 4 MPI tasks x no OpenMP threads
fix_modify k1 demflag 1
fix_modify d1 demflag 1
fix_modify vf1 demflag 1
timestep 0.1
run 1000 pre no post no
Step CPU Atoms biomass c_myHeight c_myNtype[1] c_myNtype[2] c_myNtype[3] 
   34035            0      627 3.6271873e-12 3.9951847e-05            0          427          200 
   35035   0.11044693      627 3.6271873e-12 4.0562803e-05            0          427          200 
Loop time of 0.11047 on 4 procs for 1000 steps with 627 atoms

100.0% CPU use with 4 MPI tasks x no OpenMP threads
timestep 720
fix_modify k1 demflag 0
fix_modify d1 demflag 0
fix_modify vf1 demflag 0
Step CPU Atoms biomass c_myHeight c_myNtype[1] c_myNtype[2] c_myNtype[3] 
   35035            0      627 3.6271873e-12 4.0562803e-05            0          427          200 
number of iterations: 10268 
maxz = 5.811692e-05 
   35036   0.60964513      650 3.7369291e-12 4.0724507e-05            0          450          200 
Loop time of 0.609676 on 4 procs for 1 steps with 650 atoms

100.0% CPU use with 4 MPI tasks x no OpenMP threads
fix_modify k1 demflag 1
fix_modify d1 demflag 1
fix_modify vf1 demflag 1
timestep 0.1
run 1000 pre no post no
Step CPU Atoms biomass c_myHeight c_myNtype[1] c_myNtype[2] c_myNtype[3] 
   35036            0      650 3.7369291e-12 4.0724507e-05            0          450          200 
   36036     0.135041      650 3.7369291e-12 4.1399362e-05            0          450          200 
Loop time of 0.135065 on 4 procs for 1000 steps with 650 atoms

100.0% CPU use with 4 MPI tasks x no OpenMP threads
timestep 720
fix_modify k1 demflag 0
fix_modify d1 demflag 0
fix_modify vf1 demflag 0
Step CPU Atoms biomass c_myHeight c_myNtype[1] c_myNtype[2] c_myNtype[3] 
   36036            0      650 3.7369291e-12 4.1399362e-05            0          450          200 
number of iterations: 10629 
maxz = 5.807030e-05 
   36037   0.65492105      667 3.850507e-12 4.1372676e-05            0          467          200 
Loop time of 0.654938 on 4 procs for 1 steps with 667 atoms

99.8% CPU use with 4 MPI tasks x no OpenMP threads
fix_modify k1 demflag 1
fix_modify d1 demflag 1
fix_modify vf1 demflag 1
timestep 0.1
run 1000 pre no post no
Step CPU Atoms biomass c_myHeight c_myNtype[1] c_myNtype[2] c_myNtype[3] 
   36037            0      667 3.850507e-12 4.1372676e-05            0          467          200 
   37037   0.12765408      667 3.850507e-12 4.1861615e-05            0          467          200 
Loop time of 0.127676 on 4 procs for 1000 steps with 667 atoms

100.0% CPU use with 4 MPI tasks x no OpenMP threads
timestep 720
fix_modify k1 demflag 0
fix_modify d1 demflag 0
fix_modify vf1 demflag 0
Step CPU Atoms biomass c_myHeight c_myNtype[1] c_myNtype[2] c_myNtype[3] 
   37037            0      667 3.850507e-12 4.1861615e-05            0          467          200 
number of iterations: 10986 
maxz = 5.822220e-05 
   37038     0.550946      693 3.968032e-12 4.2021763e-05            0          493          200 
Loop time of 0.55096 on 4 procs for 1 steps with 693 atoms

100.0% CPU use with 4 MPI tasks x no OpenMP threads
fix_modify k1 demflag 1
fix_modify d1 demflag 1
fix_modify vf1 demflag 1
timestep 0.1
run 1000 pre no post no
Step CPU Atoms biomass c_myHeight c_myNtype[1] c_myNtype[2] c_myNtype[3] 
   37038            0      693 3.968032e-12 4.2021763e-05            0          493          200 
   38038   0.13052988      693 3.968032e-12 4.2443422e-05            0          493          200 
Loop time of 0.130548 on 4 procs for 1000 steps with 693 atoms

100.0% CPU use with 4 MPI tasks x no OpenMP threads
timestep 720
fix_modify k1 demflag 0
fix_modify d1 demflag 0
fix_modify vf1 demflag 0
Step CPU Atoms biomass c_myHeight c_myNtype[1] c_myNtype[2] c_myNtype[3] 
   38038            0      693 3.968032e-12 4.2443422e-05            0          493          200 
number of iterations: 11175 
maxz = 5.837528e-05 
   38039   0.55090213      720 4.0896302e-12 4.2399774e-05            0          520          200 
Loop time of 0.550916 on 4 procs for 1 steps with 720 atoms

100.0% CPU use with 4 MPI tasks x no OpenMP threads
fix_modify k1 demflag 1
fix_modify d1 demflag 1
fix_modify vf1 demflag 1
timestep 0.1
run 1000 pre no post no
Step CPU Atoms biomass c_myHeight c_myNtype[1] c_myNtype[2] c_myNtype[3] 
   38039            0      720 4.0896302e-12 4.2399774e-05            0          520          200 
   39039   0.14317608      720 4.0896302e-12 4.3188585e-05            0          520          200 
Loop time of 0.143194 on 4 procs for 1000 steps with 720 atoms

100.0% CPU use with 4 MPI tasks x no OpenMP threads
timestep 720
fix_modify k1 demflag 0
fix_modify d1 demflag 0
fix_modify vf1 demflag 0
Step CPU Atoms biomass c_myHeight c_myNtype[1] c_myNtype[2] c_myNtype[3] 
   39039            0      720 4.0896302e-12 4.3188585e-05            0          520          200 
number of iterations: 11504 
maxz = 5.832900e-05 
   39040   0.55605698      750 4.215422e-12 4.3492115e-05            0          550          200 
Loop time of 0.556071 on 4 procs for 1 steps with 750 atoms

100.0% CPU use with 4 MPI tasks x no OpenMP threads
fix_modify k1 demflag 1
fix_modify d1 demflag 1
fix_modify vf1 demflag 1
timestep 0.1
run 1000 pre no post no
Step CPU Atoms biomass c_myHeight c_myNtype[1] c_myNtype[2] c_myNtype[3] 
   39040            0      750 4.215422e-12 4.3492115e-05            0          550          200 
   40040   0.15846491      750 4.215422e-12 4.4007749e-05            0          550          200 
Loop time of 0.158483 on 4 procs for 1000 steps with 750 atoms

100.0% CPU use with 4 MPI tasks x no OpenMP threads
timestep 720
fix_modify k1 demflag 0
fix_modify d1 demflag 0
fix_modify vf1 demflag 0
Step CPU Atoms biomass c_myHeight c_myNtype[1] c_myNtype[2] c_myNtype[3] 
   40040            0      750 4.215422e-12 4.4007749e-05            0          550          200 
number of iterations: 11824 
maxz = 5.848279e-05 
   40041   0.57154107      782 4.345529e-12 4.4351562e-05            0          582          200 
Loop time of 0.571557 on 4 procs for 1 steps with 782 atoms

100.0% CPU use with 4 MPI tasks x no OpenMP threads
fix_modify k1 demflag 1
fix_modify d1 demflag 1
fix_modify vf1 demflag 1
timestep 0.1
run 1000 pre no post no
Step CPU Atoms biomass c_myHeight c_myNtype[1] c_myNtype[2] c_myNtype[3] 
   40041            0      782 4.345529e-12 4.4351562e-05            0          582          200 
   41041   0.15903807      782 4.345529e-12 4.524491e-05            0          582          200 
Loop time of 0.159061 on 4 procs for 1000 steps with 782 atoms

99.4% CPU use with 4 MPI tasks x no OpenMP threads
timestep 720
fix_modify k1 demflag 0
fix_modify d1 demflag 0
fix_modify vf1 demflag 0
Step CPU Atoms biomass c_myHeight c_myNtype[1] c_myNtype[2] c_myNtype[3] 
   41041            0      782 4.345529e-12 4.524491e-05            0          582          200 
number of iterations: 12255 
maxz = 5.858363e-05 
   41042   0.59447598      822 4.4800652e-12 4.5379938e-05            0          622          200 
Loop time of 0.594489 on 4 procs for 1 steps with 822 atoms

100.0% CPU use with 4 MPI tasks x no OpenMP threads
fix_modify k1 demflag 1
fix_modify d1 demflag 1
fix_modify vf1 demflag 1
timestep 0.1
run 1000 pre no post no
Step CPU Atoms biomass c_myHeight c_myNtype[1] c_myNtype[2] c_myNtype[3] 
   41042            0      822 4.4800652e-12 4.5379938e-05            0          622          200 
   42042    0.1735189      822 4.4800652e-12 4.6175392e-05            0          622          200 
Loop time of 0.173538 on 4 procs for 1000 steps with 822 atoms

100.0% CPU use with 4 MPI tasks x no OpenMP threads
timestep 720
fix_modify k1 demflag 0
fix_modify d1 demflag 0
fix_modify vf1 demflag 0
Step CPU Atoms biomass c_myHeight c_myNtype[1] c_myNtype[2] c_myNtype[3] 
   42042            0      822 4.4800652e-12 4.6175392e-05            0          622          200 
number of iterations: 12452 
maxz = 6.003672e-05 
   42043   0.60808492      846 4.6191618e-12 4.627184e-05            0          646          200 
Loop time of 0.608098 on 4 procs for 1 steps with 846 atoms

99.9% CPU use with 4 MPI tasks x no OpenMP threads
fix_modify k1 demflag 1
fix_modify d1 demflag 1
fix_modify vf1 demflag 1
timestep 0.1
run 1000 pre no post no
Step CPU Atoms biomass c_myHeight c_myNtype[1] c_myNtype[2] c_myNtype[3] 
   42043            0      846 4.6191618e-12 4.627184e-05            0          646          200 
   43043   0.18138695      846 4.6191618e-12 4.7016011e-05            0          646          200 
Loop time of 0.181406 on 4 procs for 1000 steps with 846 atoms

100.0% CPU use with 4 MPI tasks x no OpenMP threads
timestep 720
fix_modify k1 demflag 0
fix_modify d1 demflag 0
fix_modify vf1 demflag 0
Step CPU Atoms biomass c_myHeight c_myNtype[1] c_myNtype[2] c_myNtype[3] 
   43043            0      846 4.6191618e-12 4.7016011e-05            0          646          200 
number of iterations: 12944 
maxz = 6.223179e-05 
   43044    0.6438539      884 4.7629267e-12 4.7196427e-05            0          684          200 
Loop time of 0.643871 on 4 procs for 1 steps with 884 atoms

100.0% CPU use with 4 MPI tasks x no OpenMP threads
fix_modify k1 demflag 1
fix_modify d1 demflag 1
fix_modify vf1 demflag 1
timestep 0.1
run 1000 pre no post no
Step CPU Atoms biomass c_myHeight c_myNtype[1] c_myNtype[2] c_myNtype[3] 
   43044            0      884 4.7629267e-12 4.7196427e-05            0          684          200 
   44044   0.19203091      884 4.7629267e-12 4.7929815e-05            0          684          200 
Loop time of 0.192049 on 4 procs for 1000 steps with 884 atoms

100.0% CPU use with 4 MPI tasks x no OpenMP threads
timestep 720
fix_modify k1 demflag 0
fix_modify d1 demflag 0
fix_modify vf1 demflag 0
Step CPU Atoms biomass c_myHeight c_myNtype[1] c_myNtype[2] c_myNtype[3] 
   44044            0      884 4.7629267e-12 4.7929815e-05            0          684          200 
number of iterations: 19973 
maxz = 6.284338e-05 
   44045    1.4802761      906 4.9111262e-12 4.8102877e-05            0          706          200 
Loop time of 1.48029 on 4 procs for 1 steps with 906 atoms

100.0% CPU use with 4 MPI tasks x no OpenMP threads
fix_modify k1 demflag 1
fix_modify d1 demflag 1
fix_modify vf1 demflag 1
timestep 0.1
run 1000 pre no post no
Step CPU Atoms biomass c_myHeight c_myNtype[1] c_myNtype[2] c_myNtype[3] 
   44045            0      906 4.9111262e-12 4.8102877e-05            0          706          200 
   45045   0.19355702      906 4.9111262e-12 4.8644203e-05            0          706          200 
Loop time of 0.193576 on 4 procs for 1000 steps with 906 atoms

100.0% CPU use with 4 MPI tasks x no OpenMP threads
timestep 720
fix_modify k1 demflag 0
fix_modify d1 demflag 0
fix_modify vf1 demflag 0
Step CPU Atoms biomass c_myHeight c_myNtype[1] c_myNtype[2] c_myNtype[3] 
   45045            0      906 4.9111262e-12 4.8644203e-05            0          706          200 
number of iterations: 15392 
maxz = 6.316105e-05 
   45046   0.79345202      931 5.064209e-12 4.8884331e-05            0          731          200 
Loop time of 0.793469 on 4 procs for 1 steps with 931 atoms

100.0% CPU use with 4 MPI tasks x no OpenMP threads
fix_modify k1 demflag 1
fix_modify d1 demflag 1
fix_modify vf1 demflag 1
timestep 0.1
run 1000 pre no post no
Step CPU Atoms biomass c_myHeight c_myNtype[1] c_myNtype[2] c_myNtype[3] 
   45046            0      931 5.064209e-12 4.8884331e-05            0          731          200 
   46046   0.20544791      931 5.064209e-12 4.9772737e-05            0          731          200 
Loop time of 0.205468 on 4 procs for 1000 steps with 931 atoms

100.0% CPU use with 4 MPI tasks x no OpenMP threads
timestep 720
fix_modify k1 demflag 0
fix_modify d1 demflag 0
fix_modify vf1 demflag 0
Step CPU Atoms biomass c_myHeight c_myNtype[1] c_myNtype[2] c_myNtype[3] 
   46046            0      931 5.064209e-12 4.9772737e-05            0          731          200 
number of iterations: 16111 
maxz = 6.416427e-05 
   46047   0.75010896      953 5.2222773e-12 4.9824449e-05            0          753          200 
Loop time of 0.750127 on 4 procs for 1 steps with 953 atoms

100.0% CPU use with 4 MPI tasks x no OpenMP threads
fix_modify k1 demflag 1
fix_modify d1 demflag 1
fix_modify vf1 demflag 1
timestep 0.1
run 1000 pre no post no
Step CPU Atoms biomass c_myHeight c_myNtype[1] c_myNtype[2] c_myNtype[3] 
   46047            0      953 5.2222773e-12 4.9824449e-05            0          753          200 
   47047   0.21733713      953 5.2222773e-12 5.075829e-05            0          753          200 
Loop time of 0.217356 on 4 procs for 1000 steps with 953 atoms

100.0% CPU use with 4 MPI tasks x no OpenMP threads
timestep 720
fix_modify k1 demflag 0
fix_modify d1 demflag 0
fix_modify vf1 demflag 0
Step CPU Atoms biomass c_myHeight c_myNtype[1] c_myNtype[2] c_myNtype[3] 
   47047            0      953 5.2222773e-12 5.075829e-05            0          753          200 
number of iterations: 16504 
maxz = 6.523943e-05 
   47048   0.78464293      973 5.3854363e-12 5.0838471e-05            0          773          200 
Loop time of 0.784657 on 4 procs for 1 steps with 973 atoms

100.0% CPU use with 4 MPI tasks x no OpenMP threads
fix_modify k1 demflag 1
fix_modify d1 demflag 1
fix_modify vf1 demflag 1
timestep 0.1
run 1000 pre no post no
Step CPU Atoms biomass c_myHeight c_myNtype[1] c_myNtype[2] c_myNtype[3] 
   47048            0      973 5.3854363e-12 5.0838471e-05            0          773          200 
   48048   0.22333002      973 5.3854363e-12 5.1335854e-05            0          773          200 
Loop time of 0.223348 on 4 procs for 1000 steps with 973 atoms

100.0% CPU use with 4 MPI tasks x no OpenMP threads
timestep 720
fix_modify k1 demflag 0
fix_modify d1 demflag 0
fix_modify vf1 demflag 0
Step CPU Atoms biomass c_myHeight c_myNtype[1] c_myNtype[2] c_myNtype[3] 
   48048            0      973 5.3854363e-12 5.1335854e-05            0          773          200 
number of iterations: 17074 
maxz = 6.576297e-05 
   48049   0.84733391      994 5.5537784e-12 5.1402462e-05            0          794          200 
Loop time of 0.847348 on 4 procs for 1 steps with 994 atoms

100.0% CPU use with 4 MPI tasks x no OpenMP threads
fix_modify k1 demflag 1
fix_modify d1 demflag 1
fix_modify vf1 demflag 1
timestep 0.1
run 1000 pre no post no
Step CPU Atoms biomass c_myHeight c_myNtype[1] c_myNtype[2] c_myNtype[3] 
   48049            0      994 5.5537784e-12 5.1402462e-05            0          794          200 
   49049   0.24698496      994 5.5537784e-12 5.253325e-05            0          794          200 
Loop time of 0.247004 on 4 procs for 1000 steps with 994 atoms

100.0% CPU use with 4 MPI tasks x no OpenMP threads
timestep 720
fix_modify k1 demflag 0
fix_modify d1 demflag 0
fix_modify vf1 demflag 0
Step CPU Atoms biomass c_myHeight c_myNtype[1] c_myNtype[2] c_myNtype[3] 
   49049            0      994 5.5537784e-12 5.253325e-05            0          794          200 
number of iterations: 17421 
maxz = 6.807185e-05 
   49050   0.87939906     1009 5.7274125e-12 5.2666658e-05            0          809          200 
Loop time of 0.879413 on 4 procs for 1 steps with 1009 atoms

100.0% CPU use with 4 MPI tasks x no OpenMP threads
fix_modify k1 demflag 1
fix_modify d1 demflag 1
fix_modify vf1 demflag 1
timestep 0.1
run 1000 pre no post no
Step CPU Atoms biomass c_myHeight c_myNtype[1] c_myNtype[2] c_myNtype[3] 
   49050            0     1009 5.7274125e-12 5.2666658e-05            0          809          200 
   50050   0.24749684     1009 5.7274125e-12 5.3596513e-05            0          809          200 
Loop time of 0.247515 on 4 procs for 1000 steps with 1009 atoms

100.0% CPU use with 4 MPI tasks x no OpenMP threads
timestep 720
fix_modify k1 demflag 0
fix_modify d1 demflag 0
fix_modify vf1 demflag 0
Step CPU Atoms biomass c_myHeight c_myNtype[1] c_myNtype[2] c_myNtype[3] 
   50050            0     1009 5.7274125e-12 5.3596513e-05            0          809          200 
number of iterations: 18001 
maxz = 6.907650e-05 
   50051   0.94377184     1027 5.9064136e-12 5.3582324e-05            0          827          200 
Loop time of 0.943786 on 4 procs for 1 steps with 1027 atoms

100.0% CPU use with 4 MPI tasks x no OpenMP threads
fix_modify k1 demflag 1
fix_modify d1 demflag 1
fix_modify vf1 demflag 1
timestep 0.1
run 1000 pre no post no
Step CPU Atoms biomass c_myHeight c_myNtype[1] c_myNtype[2] c_myNtype[3] 
   50051            0     1027 5.9064136e-12 5.3582324e-05            0          827          200 
   51051   0.26100707     1027 5.9064136e-12 5.4661593e-05            0          827          200 
Loop time of 0.261026 on 4 procs for 1000 steps with 1027 atoms

100.0% CPU use with 4 MPI tasks x no OpenMP threads
timestep 720
fix_modify k1 demflag 0
fix_modify d1 demflag 0
fix_modify vf1 demflag 0
Step CPU Atoms biomass c_myHeight c_myNtype[1] c_myNtype[2] c_myNtype[3] 
   51051            0     1027 5.9064136e-12 5.4661593e-05            0          827          200 
number of iterations: 18529 
maxz = 6.967200e-05 
   51052   0.96499419     1038 6.0908649e-12 5.4678159e-05            0          838          200 
Loop time of 0.965007 on 4 procs for 1 steps with 1038 atoms

100.0% CPU use with 4 MPI tasks x no OpenMP threads
fix_modify k1 demflag 1
fix_modify d1 demflag 1
fix_modify vf1 demflag 1
timestep 0.1
run 1000 pre no post no
Step CPU Atoms biomass c_myHeight c_myNtype[1] c_myNtype[2] c_myNtype[3] 
   51052            0     1038 6.0908649e-12 5.4678159e-05            0          838          200 
   52052   0.27446699     1038 6.0908649e-12 5.5628802e-05            0          838          200 
Loop time of 0.274486 on 4 procs for 1000 steps with 1038 atoms

100.0% CPU use with 4 MPI tasks x no OpenMP threads
timestep 720
fix_modify k1 demflag 0
fix_modify d1 demflag 0
fix_modify vf1 demflag 0
Step CPU Atoms biomass c_myHeight c_myNtype[1] c_myNtype[2] c_myNtype[3] 
   52052            0     1038 6.0908649e-12 5.5628802e-05            0          838          200 
number of iterations: 19192 
maxz = 7.376650e-05 
   52053    1.0405431     1072 6.2808225e-12 5.5665183e-05            0          872          200 
Loop time of 1.04056 on 4 procs for 1 steps with 1072 atoms

100.0% CPU use with 4 MPI tasks x no OpenMP threads
fix_modify k1 demflag 1
fix_modify d1 demflag 1
fix_modify vf1 demflag 1
timestep 0.1
run 1000 pre no post no
Step CPU Atoms biomass c_myHeight c_myNtype[1] c_myNtype[2] c_myNtype[3] 
   52053            0     1072 6.2808225e-12 5.5665183e-05            0          872          200 
   53053   0.29918885     1072 6.2808225e-12 5.6929258e-05            0          872          200 
Loop time of 0.299208 on 4 procs for 1000 steps with 1072 atoms

99.9% CPU use with 4 MPI tasks x no OpenMP threads
timestep 720
fix_modify k1 demflag 0
fix_modify d1 demflag 0
fix_modify vf1 demflag 0
Step CPU Atoms biomass c_myHeight c_myNtype[1] c_myNtype[2] c_myNtype[3] 
   53053            0     1072 6.2808225e-12 5.6929258e-05            0          872          200 
number of iterations: 29432 
maxz = 7.598533e-05 
   53054     2.232893     1097 6.4755285e-12 5.7053209e-05            0          897          200 
Loop time of 2.23291 on 4 procs for 1 steps with 1097 atoms

100.0% CPU use with 4 MPI tasks x no OpenMP threads
fix_modify k1 demflag 1
fix_modify d1 demflag 1
fix_modify vf1 demflag 1
timestep 0.1
run 1000 pre no post no
Step CPU Atoms biomass c_myHeight c_myNtype[1] c_myNtype[2] c_myNtype[3] 
   53054            0     1097 6.4755285e-12 5.7053209e-05            0          897          200 
   54054   0.30666018     1097 6.4755285e-12 5.7912925e-05            0          897          200 
Loop time of 0.30668 on 4 procs for 1000 steps with 1097 atoms

99.9% CPU use with 4 MPI tasks x no OpenMP threads
timestep 720
fix_modify k1 demflag 0
fix_modify d1 demflag 0
fix_modify vf1 demflag 0
Step CPU Atoms biomass c_myHeight c_myNtype[1] c_myNtype[2] c_myNtype[3] 
   54054            0     1097 6.4755285e-12 5.7912925e-05            0          897          200 
number of iterations: 22595 
maxz = 7.611849e-05 
   54055      1.18957     1134 6.675777e-12 5.801372e-05            0          934          200 
Loop time of 1.18959 on 4 procs for 1 steps with 1134 atoms

100.0% CPU use with 4 MPI tasks x no OpenMP threads
fix_modify k1 demflag 1
fix_modify d1 demflag 1
fix_modify vf1 demflag 1
timestep 0.1
run 1000 pre no post no
Step CPU Atoms biomass c_myHeight c_myNtype[1] c_myNtype[2] c_myNtype[3] 
   54055            0     1134 6.675777e-12 5.801372e-05            0          934          200 
   55055    0.3301158     1134 6.675777e-12 5.944476e-05            0          934          200 
Loop time of 0.330137 on 4 procs for 1000 steps with 1134 atoms

99.9% CPU use with 4 MPI tasks x no OpenMP threads
timestep 720
fix_modify k1 demflag 0
fix_modify d1 demflag 0
fix_modify vf1 demflag 0
Step CPU Atoms biomass c_myHeight c_myNtype[1] c_myNtype[2] c_myNtype[3] 
   55055            0     1134 6.675777e-12 5.944476e-05            0          934          200 
number of iterations: 23020 
maxz = 7.695003e-05 
   55056     1.221988     1162 6.8816182e-12 5.944878e-05            0          962          200 
Loop time of 1.222 on 4 procs for 1 steps with 1162 atoms

100.0% CPU use with 4 MPI tasks x no OpenMP threads
fix_modify k1 demflag 1
fix_modify d1 demflag 1
fix_modify vf1 demflag 1
timestep 0.1
run 1000 pre no post no
Step CPU Atoms biomass c_myHeight c_myNtype[1] c_myNtype[2] c_myNtype[3] 
   55056            0     1162 6.8816182e-12 5.944878e-05            0          962          200 
   56056   0.32873297     1162 6.8816182e-12 6.1114901e-05            0          962          200 
Loop time of 0.328753 on 4 procs for 1000 steps with 1162 atoms

99.9% CPU use with 4 MPI tasks x no OpenMP threads
timestep 720
fix_modify k1 demflag 0
fix_modify d1 demflag 0
fix_modify vf1 demflag 0
Step CPU Atoms biomass c_myHeight c_myNtype[1] c_myNtype[2] c_myNtype[3] 
   56056            0     1162 6.8816182e-12 6.1114901e-05            0          962          200 
number of iterations: 23806 
maxz = 7.975036e-05 
   56057    1.2517681     1201 7.0930691e-12  6.13384e-05            0         1001          200 
Loop time of 1.25178 on 4 procs for 1 steps with 1201 atoms

100.0% CPU use with 4 MPI tasks x no OpenMP threads
fix_modify k1 demflag 1
fix_modify d1 demflag 1
fix_modify vf1 demflag 1
timestep 0.1
run 1000 pre no post no
Step CPU Atoms biomass c_myHeight c_myNtype[1] c_myNtype[2] c_myNtype[3] 
   56057            0     1201 7.0930691e-12  6.13384e-05            0         1001          200 
   57057   0.33498693     1201 7.0930691e-12 6.3096238e-05            0         1001          200 
Loop time of 0.335008 on 4 procs for 1000 steps with 1201 atoms

99.9% CPU use with 4 MPI tasks x no OpenMP threads
timestep 720
fix_modify k1 demflag 0
fix_modify d1 demflag 0
fix_modify vf1 demflag 0
Step CPU Atoms biomass c_myHeight c_myNtype[1] c_myNtype[2] c_myNtype[3] 
   57057            0     1201 7.0930691e-12 6.3096238e-05            0         1001          200 
number of iterations: 24389 
maxz = 8.108365e-05 
   57058     1.369545     1243 7.310115e-12 6.3201251e-05            0         1043          200 
Loop time of 1.36956 on 4 procs for 1 steps with 1243 atoms

99.9% CPU use with 4 MPI tasks x no OpenMP threads
fix_modify k1 demflag 1
fix_modify d1 demflag 1
fix_modify vf1 demflag 1
timestep 0.1
run 1000 pre no post no
Step CPU Atoms biomass c_myHeight c_myNtype[1] c_myNtype[2] c_myNtype[3] 
   57058            0     1243 7.310115e-12 6.3201251e-05            0         1043          200 
   58058   0.35184813     1243 7.310115e-12 6.4794579e-05            0         1043          200 
Loop time of 0.351868 on 4 procs for 1000 steps with 1243 atoms

99.9% CPU use with 4 MPI tasks x no OpenMP threads
timestep 720
fix_modify k1 demflag 0
fix_modify d1 demflag 0
fix_modify vf1 demflag 0
Step CPU Atoms biomass c_myHeight c_myNtype[1] c_myNtype[2] c_myNtype[3] 
   58058            0     1243 7.310115e-12 6.4794579e-05            0         1043          200 
number of iterations: 37969 
maxz = 8.375291e-05 
   58059    2.9900289     1292 7.5312784e-12 6.4937748e-05            0         1092          200 
Loop time of 2.99005 on 4 procs for 1 steps with 1292 atoms

100.0% CPU use with 4 MPI tasks x no OpenMP threads
fix_modify k1 demflag 1
fix_modify d1 demflag 1
fix_modify vf1 demflag 1
timestep 0.1
run 1000 pre no post no
Step CPU Atoms biomass c_myHeight c_myNtype[1] c_myNtype[2] c_myNtype[3] 
   58059            0     1292 7.5312784e-12 6.4937748e-05            0         1092          200 
   59059   0.36683011     1292 7.5312784e-12 6.6649977e-05            0         1092          200 
Loop time of 0.366849 on 4 procs for 1000 steps with 1292 atoms

99.9% CPU use with 4 MPI tasks x no OpenMP threads
timestep 720
fix_modify k1 demflag 0
fix_modify d1 demflag 0
fix_modify vf1 demflag 0
Step CPU Atoms biomass c_myHeight c_myNtype[1] c_myNtype[2] c_myNtype[3] 
   59059            0     1292 7.5312784e-12 6.6649977e-05            0         1092          200 
number of iterations: 28214 
maxz = 8.756778e-05 
   59060    1.6618502     1341 7.7578335e-12 6.6777631e-05            0         1141          200 
Loop time of 1.66187 on 4 procs for 1 steps with 1341 atoms

99.9% CPU use with 4 MPI tasks x no OpenMP threads
fix_modify k1 demflag 1
fix_modify d1 demflag 1
fix_modify vf1 demflag 1
timestep 0.1
run 1000 pre no post no
Step CPU Atoms biomass c_myHeight c_myNtype[1] c_myNtype[2] c_myNtype[3] 
   59060            0     1341 7.7578335e-12 6.6777631e-05            0         1141          200 
   60060   0.38615489     1341 7.7578335e-12 6.8234799e-05            0         1141          200 
Loop time of 0.386175 on 4 procs for 1000 steps with 1341 atoms

99.9% CPU use with 4 MPI tasks x no OpenMP threads
timestep 720
fix_modify k1 demflag 0
fix_modify d1 demflag 0
fix_modify vf1 demflag 0
Step CPU Atoms biomass c_myHeight c_myNtype[1] c_myNtype[2] c_myNtype[3] 
   60060            0     1341 7.7578335e-12 6.8234799e-05            0         1141          200 
number of iterations: 29320 
maxz = 9.023801e-05 
   60061    1.6756539     1392  7.98964e-12 6.8326535e-05            0         1192          200 
Loop time of 1.67567 on 4 procs for 1 steps with 1392 atoms

99.9% CPU use with 4 MPI tasks x no OpenMP threads
fix_modify k1 demflag 1
fix_modify d1 demflag 1
fix_modify vf1 demflag 1
timestep 0.1
run 1000 pre no post no
Step CPU Atoms biomass c_myHeight c_myNtype[1] c_myNtype[2] c_myNtype[3] 
   60061            0     1392  7.98964e-12 6.8326535e-05            0         1192          200 
   61061   0.39652205     1392  7.98964e-12 7.0108235e-05            0         1192          200 
Loop time of 0.396541 on 4 procs for 1000 steps with 1392 atoms

99.7% CPU use with 4 MPI tasks x no OpenMP threads
timestep 720
fix_modify k1 demflag 0
fix_modify d1 demflag 0
fix_modify vf1 demflag 0
Step CPU Atoms biomass c_myHeight c_myNtype[1] c_myNtype[2] c_myNtype[3] 
   61061            0     1392  7.98964e-12 7.0108235e-05            0         1192          200 
number of iterations: 45828 
maxz = 9.160389e-05 
   61062     3.813591     1446 8.2245034e-12 7.0170076e-05            0         1246          200 
Loop time of 3.81361 on 4 procs for 1 steps with 1446 atoms

100.0% CPU use with 4 MPI tasks x no OpenMP threads
fix_modify k1 demflag 1
fix_modify d1 demflag 1
fix_modify vf1 demflag 1
timestep 0.1
run 1000 pre no post no
Step CPU Atoms biomass c_myHeight c_myNtype[1] c_myNtype[2] c_myNtype[3] 
   61062            0     1446 8.2245034e-12 7.0170076e-05            0         1246          200 
   62062   0.41405487     1446 8.2245034e-12 7.2015064e-05            0         1246          200 
Loop time of 0.414075 on 4 procs for 1000 steps with 1446 atoms

99.9% CPU use with 4 MPI tasks x no OpenMP threads
timestep 720
fix_modify k1 demflag 0
fix_modify d1 demflag 0
fix_modify vf1 demflag 0
Step CPU Atoms biomass c_myHeight c_myNtype[1] c_myNtype[2] c_myNtype[3] 
   62062            0     1446 8.2245034e-12 7.2015064e-05            0         1246          200 
number of iterations: 33186 
maxz = 9.213731e-05 
   62063    2.0505779     1498 8.464209e-12 7.2200738e-05            0         1298          200 
Loop time of 2.0506 on 4 procs for 1 steps with 1498 atoms

100.0% CPU use with 4 MPI tasks x no OpenMP threads
fix_modify k1 demflag 1
fix_modify d1 demflag 1
fix_modify vf1 demflag 1
timestep 0.1
run 1000 pre no post no
Step CPU Atoms biomass c_myHeight c_myNtype[1] c_myNtype[2] c_myNtype[3] 
   62063            0     1498 8.464209e-12 7.2200738e-05            0         1298          200 
   63063   0.44454694     1498 8.464209e-12 7.3599632e-05            0         1298          200 
Loop time of 0.44457 on 4 procs for 1000 steps with 1498 atoms

99.9% CPU use with 4 MPI tasks x no OpenMP threads
timestep 720
fix_modify k1 demflag 0
fix_modify d1 demflag 0
fix_modify vf1 demflag 0
Step CPU Atoms biomass c_myHeight c_myNtype[1] c_myNtype[2] c_myNtype[3] 
   63063            0     1498 8.464209e-12 7.3599632e-05            0         1298          200 
number of iterations: 34335 
maxz = 9.372329e-05 
   63064     2.152657     1542 8.7085221e-12 7.3684127e-05            0         1342          200 
Loop time of 2.15267 on 4 procs for 1 steps with 1542 atoms

100.0% CPU use with 4 MPI tasks x no OpenMP threads
fix_modify k1 demflag 1
fix_modify d1 demflag 1
fix_modify vf1 demflag 1
timestep 0.1
run 1000 pre no post no
Step CPU Atoms biomass c_myHeight c_myNtype[1] c_myNtype[2] c_myNtype[3] 
   63064            0     1542 8.7085221e-12 7.3684127e-05            0         1342          200 
   64064   0.43909097     1542 8.7085221e-12 7.5263901e-05            0         1342          200 
Loop time of 0.439112 on 4 procs for 1000 steps with 1542 atoms

99.9% CPU use with 4 MPI tasks x no OpenMP threads
timestep 720
fix_modify k1 demflag 0
fix_modify d1 demflag 0
fix_modify vf1 demflag 0
Step CPU Atoms biomass c_myHeight c_myNtype[1] c_myNtype[2] c_myNtype[3] 
   64064            0     1542 8.7085221e-12 7.5263901e-05            0         1342          200 
number of iterations: 34978 
maxz = 9.576067e-05 
   64065    2.1934221     1580 8.957249e-12 7.563605e-05            0         1380          200 
Loop time of 2.19344 on 4 procs for 1 steps with 1580 atoms

100.0% CPU use with 4 MPI tasks x no OpenMP threads
fix_modify k1 demflag 1
fix_modify d1 demflag 1
fix_modify vf1 demflag 1
timestep 0.1
run 1000 pre no post no
Step CPU Atoms biomass c_myHeight c_myNtype[1] c_myNtype[2] c_myNtype[3] 
   64065            0     1580 8.957249e-12 7.563605e-05            0         1380          200 
   65065   0.46564984     1580 8.957249e-12 7.7170655e-05            0         1380          200 
Loop time of 0.465672 on 4 procs for 1000 steps with 1580 atoms

99.9% CPU use with 4 MPI tasks x no OpenMP threads
timestep 720
fix_modify k1 demflag 0
fix_modify d1 demflag 0
fix_modify vf1 demflag 0
Step CPU Atoms biomass c_myHeight c_myNtype[1] c_myNtype[2] c_myNtype[3] 
   65065            0     1580 8.957249e-12 7.7170655e-05            0         1380          200 
number of iterations: 35690 
maxz = 9.729554e-05 
   65066    2.2500191     1624 9.210151e-12 7.727197e-05            0         1424          200 
Loop time of 2.25004 on 4 procs for 1 steps with 1624 atoms

100.0% CPU use with 4 MPI tasks x no OpenMP threads
fix_modify k1 demflag 1
fix_modify d1 demflag 1
fix_modify vf1 demflag 1
timestep 0.1
run 1000 pre no post no
Step CPU Atoms biomass c_myHeight c_myNtype[1] c_myNtype[2] c_myNtype[3] 
   65066            0     1624 9.210151e-12 7.727197e-05            0         1424          200 
   66066   0.50203919     1624 9.210151e-12 7.8950013e-05            0         1424          200 
Loop time of 0.502058 on 4 procs for 1000 steps with 1624 atoms

99.9% CPU use with 4 MPI tasks x no OpenMP threads
timestep 720
fix_modify k1 demflag 0
fix_modify d1 demflag 0
fix_modify vf1 demflag 0
Step CPU Atoms biomass c_myHeight c_myNtype[1] c_myNtype[2] c_myNtype[3] 
   66066            0     1624 9.210151e-12 7.8950013e-05            0         1424          200 
number of iterations: 35928 
maxz = 9.878944e-05 
   66067    2.3511982     1656  9.46708e-12 7.9172794e-05            0         1456          200 
Loop time of 2.35121 on 4 procs for 1 steps with 1656 atoms

99.9% CPU use with 4 MPI tasks x no OpenMP threads
fix_modify k1 demflag 1
fix_modify d1 demflag 1
fix_modify vf1 demflag 1
timestep 0.1
run 1000 pre no post no
Step CPU Atoms biomass c_myHeight c_myNtype[1] c_myNtype[2] c_myNtype[3] 
   66067            0     1656  9.46708e-12 7.9172794e-05            0         1456          200 
   67067   0.50317907     1656  9.46708e-12 8.0558363e-05            0         1456          200 
Loop time of 0.5032 on 4 procs for 1000 steps with 1656 atoms

99.9% CPU use with 4 MPI tasks x no OpenMP threads
timestep 720
fix_modify k1 demflag 0
fix_modify d1 demflag 0
fix_modify vf1 demflag 0
Step CPU Atoms biomass c_myHeight c_myNtype[1] c_myNtype[2] c_myNtype[3] 
   67067            0     1656  9.46708e-12 8.0558363e-05            0         1456          200 
number of iterations: 37331 
maxz = 1.005632e-04 
   67068    2.4227059     1702 9.7275316e-12 8.0664127e-05            0         1502          200 
Loop time of 2.42272 on 4 procs for 1 steps with 1702 atoms

99.9% CPU use with 4 MPI tasks x no OpenMP threads
fix_modify k1 demflag 1
fix_modify d1 demflag 1
fix_modify vf1 demflag 1
timestep 0.1
run 1000 pre no post no
Step CPU Atoms biomass c_myHeight c_myNtype[1] c_myNtype[2] c_myNtype[3] 
   67068            0     1702 9.7275316e-12 8.0664127e-05            0         1502          200 
   68068   0.52570009     1702 9.7275316e-12 8.2599205e-05            0         1502          200 
Loop time of 0.525721 on 4 procs for 1000 steps with 1702 atoms

99.9% CPU use with 4 MPI tasks x no OpenMP threads
timestep 720
fix_modify k1 demflag 0
fix_modify d1 demflag 0
fix_modify vf1 demflag 0
Step CPU Atoms biomass c_myHeight c_myNtype[1] c_myNtype[2] c_myNtype[3] 
   68068            0     1702 9.7275316e-12 8.2599205e-05            0         1502          200 
number of iterations: 59271 
maxz = 1.054816e-04 
   68069    5.0463052     1740 9.9868301e-12 8.2796517e-05            0         1540          200 
Loop time of 5.04632 on 4 procs for 1 steps with 1740 atoms

100.0% CPU use with 4 MPI tasks x no OpenMP threads
fix_modify k1 demflag 1
fix_modify d1 demflag 1
fix_modify vf1 demflag 1
timestep 0.1
run 1000 pre no post no
Step CPU Atoms biomass c_myHeight c_myNtype[1] c_myNtype[2] c_myNtype[3] 
   68069            0     1740 9.9868301e-12 8.2796517e-05            0         1540          200 
   69069   0.51447701     1740 9.9868301e-12 8.4565222e-05            0         1540          200 
Loop time of 0.514497 on 4 procs for 1000 steps with 1740 atoms

99.7% CPU use with 4 MPI tasks x no OpenMP threads
timestep 720
fix_modify k1 demflag 0
fix_modify d1 demflag 0
fix_modify vf1 demflag 0
Step CPU Atoms biomass c_myHeight c_myNtype[1] c_myNtype[2] c_myNtype[3] 
   69069            0     1740 9.9868301e-12 8.4565222e-05            0         1540          200 
number of iterations: 38771 
maxz = 1.066908e-04 
   69070    2.6731651     1773 1.0249147e-11 8.4648023e-05            0         1573          200 
Loop time of 2.67318 on 4 procs for 1 steps with 1773 atoms

99.9% CPU use with 4 MPI tasks x no OpenMP threads
fix_modify k1 demflag 1
fix_modify d1 demflag 1
fix_modify vf1 demflag 1
timestep 0.1
run 1000 pre no post no
Step CPU Atoms biomass c_myHeight c_myNtype[1] c_myNtype[2] c_myNtype[3] 
   69070            0     1773 1.0249147e-11 8.4648023e-05            0         1573          200 
   70070     0.528373     1773 1.0249147e-11 8.6439184e-05            0         1573          200 
Loop time of 0.528392 on 4 procs for 1000 steps with 1773 atoms

99.9% CPU use with 4 MPI tasks x no OpenMP threads
timestep 720
fix_modify k1 demflag 0
fix_modify d1 demflag 0
fix_modify vf1 demflag 0
Step CPU Atoms biomass c_myHeight c_myNtype[1] c_myNtype[2] c_myNtype[3] 
   70070            0     1773 1.0249147e-11 8.6439184e-05            0         1573          200 
number of iterations: 39247 
maxz = 1.076333e-04 
   70071    2.6658671     1807 1.0514186e-11 8.6342032e-05            0         1607          200 
Loop time of 2.66588 on 4 procs for 1 steps with 1807 atoms

99.9% CPU use with 4 MPI tasks x no OpenMP threads
fix_modify k1 demflag 1
fix_modify d1 demflag 1
fix_modify vf1 demflag 1
timestep 0.1
run 1000 pre no post no
Step CPU Atoms biomass c_myHeight c_myNtype[1] c_myNtype[2] c_myNtype[3] 
   70071            0     1807 1.0514186e-11 8.6342032e-05            0         1607          200 
   71071   0.55641794     1807 1.0514186e-11 8.7996429e-05            0         1607          200 
Loop time of 0.556438 on 4 procs for 1000 steps with 1807 atoms

100.0% CPU use with 4 MPI tasks x no OpenMP threads
timestep 720
fix_modify k1 demflag 0
fix_modify d1 demflag 0
fix_modify vf1 demflag 0
Step CPU Atoms biomass c_myHeight c_myNtype[1] c_myNtype[2] c_myNtype[3] 
   71071            0     1807 1.0514186e-11 8.7996429e-05            0         1607          200 
number of iterations: 39392 
maxz = 1.085428e-04 
   71072     2.719492     1842 1.0781699e-11 8.8200265e-05            0         1642          200 
Loop time of 2.71951 on 4 procs for 1 steps with 1842 atoms

100.0% CPU use with 4 MPI tasks x no OpenMP threads
fix_modify k1 demflag 1
fix_modify d1 demflag 1
fix_modify vf1 demflag 1
timestep 0.1
run 1000 pre no post no
Step CPU Atoms biomass c_myHeight c_myNtype[1] c_myNtype[2] c_myNtype[3] 
   71072            0     1842 1.0781699e-11 8.8200265e-05            0         1642          200 
   72072   0.59032488     1842 1.0781699e-11   8.9803e-05            0         1642          200 
Loop time of 0.590346 on 4 procs for 1000 steps with 1842 atoms

100.0% CPU use with 4 MPI tasks x no OpenMP threads
timestep 720
fix_modify k1 demflag 0
fix_modify d1 demflag 0
fix_modify vf1 demflag 0
Step CPU Atoms biomass c_myHeight c_myNtype[1] c_myNtype[2] c_myNtype[3] 
   72072            0     1842 1.0781699e-11   8.9803e-05            0         1642          200 
number of iterations: 39917 
maxz = 1.102204e-04 
   72073    2.8253241     1882 1.1051285e-11 8.9854753e-05            0         1682          200 
Loop time of 2.82534 on 4 procs for 1 steps with 1882 atoms

100.0% CPU use with 4 MPI tasks x no OpenMP threads
fix_modify k1 demflag 1
fix_modify d1 demflag 1
fix_modify vf1 demflag 1
timestep 0.1
run 1000 pre no post no
Step CPU Atoms biomass c_myHeight c_myNtype[1] c_myNtype[2] c_myNtype[3] 
   72073            0     1882 1.1051285e-11 8.9854753e-05            0         1682          200 
   73073   0.57624006     1882 1.1051285e-11 9.1945568e-05            0         1682          200 
Loop time of 0.57626 on 4 procs for 1000 steps with 1882 atoms

100.0% CPU use with 4 MPI tasks x no OpenMP threads
timestep 720
fix_modify k1 demflag 0
fix_modify d1 demflag 0
fix_modify vf1 demflag 0
Step CPU Atoms biomass c_myHeight c_myNtype[1] c_myNtype[2] c_myNtype[3] 
   73073            0     1882 1.1051285e-11 9.1945568e-05            0         1682          200 
number of iterations: 68135 
maxz = 1.128743e-04 
   73074    6.0442381     1921 1.1315382e-11 9.1974069e-05            0         1721          200 
Loop time of 6.04425 on 4 procs for 1 steps with 1921 atoms

99.9% CPU use with 4 MPI tasks x no OpenMP threads
fix_modify k1 demflag 1
fix_modify d1 demflag 1
fix_modify vf1 demflag 1
timestep 0.1
run 1000 pre no post no
Step CPU Atoms biomass c_myHeight c_myNtype[1] c_myNtype[2] c_myNtype[3] 
   73074            0     1921 1.1315382e-11 9.1974069e-05            0         1721          200 
   74074    0.5925169     1921 1.1315382e-11 9.3732535e-05            0         1721          200 
Loop time of 0.592539 on 4 procs for 1000 steps with 1921 atoms

100.0% CPU use with 4 MPI tasks x no OpenMP threads
timestep 720
fix_modify k1 demflag 0
fix_modify d1 demflag 0
fix_modify vf1 demflag 0
Step CPU Atoms biomass c_myHeight c_myNtype[1] c_myNtype[2] c_myNtype[3] 
   74074            0     1921 1.1315382e-11 9.3732535e-05            0         1721          200 
number of iterations: 35993 
maxz = 1.144941e-04 
   74075     2.636008     1953 1.158192e-11 9.3795624e-05            0         1753          200 
Loop time of 2.63602 on 4 procs for 1 steps with 1953 atoms

100.0% CPU use with 4 MPI tasks x no OpenMP threads
fix_modify k1 demflag 1
fix_modify d1 demflag 1
fix_modify vf1 demflag 1
timestep 0.1
run 1000 pre no post no
Step CPU Atoms biomass c_myHeight c_myNtype[1] c_myNtype[2] c_myNtype[3] 
   74075            0     1953 1.158192e-11 9.3795624e-05            0         1753          200 
   75075   0.60339308     1953 1.158192e-11 9.516059e-05            0         1753          200 
Loop time of 0.603413 on 4 procs for 1000 steps with 1953 atoms

99.8% CPU use with 4 MPI tasks x no OpenMP threads
timestep 720
fix_modify k1 demflag 0
fix_modify d1 demflag 0
fix_modify vf1 demflag 0
Step CPU Atoms biomass c_myHeight c_myNtype[1] c_myNtype[2] c_myNtype[3] 
   75075            0     1953 1.158192e-11 9.516059e-05            0         1753          200 
number of iterations: 37939 
maxz = 1.159744e-04 
[...]
S-nh4-base = 1.404929e-04

number of iterations: 96 
S-sub-bulk = 5.359265e-03
S-sub-base = 6.598616e-06
S-nh4-bulk = 5.231151e-04
S-nh4-base = 1.404825e-04

number of iterations: 95 
S-sub-bulk = 5.358984e-03
S-sub-base = 6.598606e-06
S-nh4-bulk = 5.231703e-04
S-nh4-base = 1.404722e-04

number of iterations: 94 
S-sub-bulk = 5.358704e-03
S-sub-base = 6.598595e-06
S-nh4-bulk = 5.232246e-04
S-nh4-base = 1.404621e-04

number of iterations: 93 
S-sub-bulk = 5.358424e-03
S-sub-base = 6.598584e-06
S-nh4-bulk = 5.232782e-04
S-nh4-base = 1.404520e-04

number of iterations: 92 
S-sub-bulk = 5.358145e-03
S-sub-base = 6.598574e-06
S-nh4-bulk = 5.233309e-04
S-nh4-base = 1.404421e-04

number of iterations: 91 
S-sub-bulk = 5.357867e-03
S-sub-base = 6.598563e-06
S-nh4-bulk = 5.233829e-04
S-nh4-base = 1.404323e-04

number of iterations: 90 
S-sub-bulk = 5.357590e-03
S-sub-base = 6.598553e-06
S-nh4-bulk = 5.234342e-04
S-nh4-base = 1.404226e-04

number of iterations: 90 
S-sub-bulk = 5.357314e-03
S-sub-base = 6.598543e-06
S-nh4-bulk = 5.234849e-04
S-nh4-base = 1.404129e-04

number of iterations: 88 
S-sub-bulk = 5.357039e-03
S-sub-base = 6.598533e-06
S-nh4-bulk = 5.235349e-04
S-nh4-base = 1.404035e-04

number of iterations: 88 
S-sub-bulk = 5.356763e-03
S-sub-base = 6.598522e-06
S-nh4-bulk = 5.235843e-04
S-nh4-base = 1.403941e-04

number of iterations: 87 
S-sub-bulk = 5.356489e-03
S-sub-base = 6.598512e-06
S-nh4-bulk = 5.236331e-04
S-nh4-base = 1.403847e-04

number of iterations: 87 
S-sub-bulk = 5.356215e-03
S-sub-base = 6.598502e-06
S-nh4-bulk = 5.236814e-04
S-nh4-base = 1.403754e-04

number of iterations: 86 
S-sub-bulk = 5.355942e-03
S-sub-base = 6.598492e-06
S-nh4-bulk = 5.237292e-04
S-nh4-base = 1.403662e-04

number of iterations: 85 
S-sub-bulk = 5.355671e-03
S-sub-base = 6.598482e-06
S-nh4-bulk = 5.237765e-04
S-nh4-base = 1.403571e-04

number of iterations: 85 
S-sub-bulk = 5.355400e-03
S-sub-base = 6.598472e-06
S-nh4-bulk = 5.238233e-04
S-nh4-base = 1.403481e-04

number of iterations: 84 
S-sub-bulk = 5.355129e-03
S-sub-base = 6.598462e-06
S-nh4-bulk = 5.238696e-04
S-nh4-base = 1.403391e-04

number of iterations: 83 
S-sub-bulk = 5.354860e-03
S-sub-base = 6.598452e-06
S-nh4-bulk = 5.239155e-04
S-nh4-base = 1.403303e-04

number of iterations: 83 
S-sub-bulk = 5.354591e-03
S-sub-base = 6.598442e-06
S-nh4-bulk = 5.239610e-04
S-nh4-base = 1.403214e-04

number of iterations: 82 
S-sub-bulk = 5.354323e-03
S-sub-base = 6.598432e-06
S-nh4-bulk = 5.240060e-04
S-nh4-base = 1.403127e-04

number of iterations: 82 
S-sub-bulk = 5.354056e-03
S-sub-base = 6.598423e-06
S-nh4-bulk = 5.240506e-04
S-nh4-base = 1.403040e-04

number of iterations: 82 
S-sub-bulk = 5.353788e-03
S-sub-base = 6.598412e-06
S-nh4-bulk = 5.240950e-04
S-nh4-base = 1.402953e-04

number of iterations: 81 
S-sub-bulk = 5.353520e-03
S-sub-base = 6.598403e-06
S-nh4-bulk = 5.241389e-04
S-nh4-base = 1.402867e-04

number of iterations: 80 
S-sub-bulk = 5.353254e-03
S-sub-base = 6.598393e-06
S-nh4-bulk = 5.241825e-04
S-nh4-base = 1.402782e-04

number of iterations: 80 
S-sub-bulk = 5.352988e-03
S-sub-base = 6.598384e-06
S-nh4-bulk = 5.242258e-04
S-nh4-base = 1.402697e-04

number of iterations: 80 
S-sub-bulk = 5.352723e-03
S-sub-base = 6.598374e-06
S-nh4-bulk = 5.242687e-04
S-nh4-base = 1.402613e-04

number of iterations: 79 
S-sub-bulk = 5.352458e-03
S-sub-base = 6.598365e-06
S-nh4-bulk = 5.243114e-04
S-nh4-base = 1.402529e-04

number of iterations: 79 
S-sub-bulk = 5.352194e-03
S-sub-base = 6.598355e-06
S-nh4-bulk = 5.243537e-04
S-nh4-base = 1.402446e-04

number of iterations: 79 
S-sub-bulk = 5.351931e-03
S-sub-base = 6.598346e-06
S-nh4-bulk = 5.243958e-04
S-nh4-base = 1.402362e-04

number of iterations: 78 
S-sub-bulk = 5.351669e-03
S-sub-base = 6.598337e-06
S-nh4-bulk = 5.244376e-04
S-nh4-base = 1.402280e-04

number of iterations: 78 
S-sub-bulk = 5.351407e-03
S-sub-base = 6.598328e-06
S-nh4-bulk = 5.244792e-04
S-nh4-base = 1.402198e-04

number of iterations: 78 
S-sub-bulk = 5.351146e-03
S-sub-base = 6.598318e-06
S-nh4-bulk = 5.245205e-04
S-nh4-base = 1.402116e-04

number of iterations: 77 
S-sub-bulk = 5.350886e-03
S-sub-base = 6.598309e-06
S-nh4-bulk = 5.245616e-04
S-nh4-base = 1.402035e-04

number of iterations: 77 
S-sub-bulk = 5.350626e-03
S-sub-base = 6.598300e-06
S-nh4-bulk = 5.246025e-04
S-nh4-base = 1.401954e-04

number of iterations: 77 
S-sub-bulk = 5.350367e-03
S-sub-base = 6.598291e-06
S-nh4-bulk = 5.246431e-04
S-nh4-base = 1.401873e-04

number of iterations: 76 
S-sub-bulk = 5.350108e-03
S-sub-base = 6.598282e-06
S-nh4-bulk = 5.246835e-04
S-nh4-base = 1.401793e-04

number of iterations: 76 
S-sub-bulk = 5.349850e-03
S-sub-base = 6.598273e-06
S-nh4-bulk = 5.247237e-04
S-nh4-base = 1.401714e-04

number of iterations: 76 
S-sub-bulk = 5.349592e-03
S-sub-base = 6.598264e-06
S-nh4-bulk = 5.247638e-04
S-nh4-base = 1.401634e-04

number of iterations: 76 
S-sub-bulk = 5.349335e-03
S-sub-base = 6.598256e-06
S-nh4-bulk = 5.248036e-04
S-nh4-base = 1.401555e-04

number of iterations: 75 
S-sub-bulk = 5.349079e-03
S-sub-base = 6.598247e-06
S-nh4-bulk = 5.248432e-04
S-nh4-base = 1.401476e-04

number of iterations: 76 
S-sub-bulk = 5.348823e-03
S-sub-base = 6.598238e-06
S-nh4-bulk = 5.248827e-04
S-nh4-base = 1.401397e-04

number of iterations: 75 
S-sub-bulk = 5.348568e-03
S-sub-base = 6.598229e-06
S-nh4-bulk = 5.249221e-04
S-nh4-base = 1.401318e-04

number of iterations: 75 
S-sub-bulk = 5.348312e-03
S-sub-base = 6.598220e-06
S-nh4-bulk = 5.249612e-04
S-nh4-base = 1.401240e-04

number of iterations: 75 
S-sub-bulk = 5.348056e-03
S-sub-base = 6.598212e-06
S-nh4-bulk = 5.250003e-04
S-nh4-base = 1.401162e-04

number of iterations: 74 
S-sub-bulk = 5.347801e-03
S-sub-base = 6.598203e-06
S-nh4-bulk = 5.250391e-04
S-nh4-base = 1.401085e-04

number of iterations: 74 
S-sub-bulk = 5.347547e-03
S-sub-base = 6.598195e-06
S-nh4-bulk = 5.250778e-04
S-nh4-base = 1.401008e-04

number of iterations: 74 
S-sub-bulk = 5.347294e-03
S-sub-base = 6.598186e-06
S-nh4-bulk = 5.251164e-04
S-nh4-base = 1.400931e-04

number of iterations: 74 
S-sub-bulk = 5.347041e-03
S-sub-base = 6.598178e-06
S-nh4-bulk = 5.251548e-04
S-nh4-base = 1.400854e-04

number of iterations: 74 
S-sub-bulk = 5.346789e-03
S-sub-base = 6.598169e-06
S-nh4-bulk = 5.251931e-04
S-nh4-base = 1.400777e-04

number of iterations: 73 
S-sub-bulk = 5.346538e-03
S-sub-base = 6.598161e-06
S-nh4-bulk = 5.252312e-04
S-nh4-base = 1.400701e-04

number of iterations: 74 
S-sub-bulk = 5.346287e-03
S-sub-base = 6.598153e-06
S-nh4-bulk = 5.252692e-04
S-nh4-base = 1.400625e-04

number of iterations: 73 
S-sub-bulk = 5.346035e-03
S-sub-base = 6.598144e-06
S-nh4-bulk = 5.253072e-04
S-nh4-base = 1.400549e-04

number of iterations: 73 
S-sub-bulk = 5.345784e-03
S-sub-base = 6.598136e-06
S-nh4-bulk = 5.253449e-04
S-nh4-base = 1.400473e-04

number of iterations: 73 
S-sub-bulk = 5.345534e-03
S-sub-base = 6.598128e-06
S-nh4-bulk = 5.253826e-04
S-nh4-base = 1.400398e-04

number of iterations: 73 
S-sub-bulk = 5.345285e-03
S-sub-base = 6.598120e-06
S-nh4-bulk = 5.254202e-04
S-nh4-base = 1.400322e-04

number of iterations: 73 
S-sub-bulk = 5.345036e-03
S-sub-base = 6.598112e-06
S-nh4-bulk = 5.254577e-04
S-nh4-base = 1.400247e-04

number of iterations: 72 
S-sub-bulk = 5.344785e-03
S-sub-base = 6.598103e-06
S-nh4-bulk = 5.254950e-04
S-nh4-base = 1.400173e-04

number of iterations: 73 
S-sub-bulk = 5.344532e-03
S-sub-base = 6.598095e-06
S-nh4-bulk = 5.255323e-04
S-nh4-base = 1.400097e-04

number of iterations: 72 
S-sub-bulk = 5.344277e-03
S-sub-base = 6.598086e-06
S-nh4-bulk = 5.255695e-04
S-nh4-base = 1.400023e-04

number of iterations: 72 
S-sub-bulk = 5.344021e-03
S-sub-base = 6.598077e-06
S-nh4-bulk = 5.256066e-04
S-nh4-base = 1.399949e-04

number of iterations: 72 
S-sub-bulk = 5.343763e-03
S-sub-base = 6.598069e-06
S-nh4-bulk = 5.256435e-04
S-nh4-base = 1.399875e-04

number of iterations: 72 
S-sub-bulk = 5.343503e-03
S-sub-base = 6.598060e-06
S-nh4-bulk = 5.256804e-04
S-nh4-base = 1.399801e-04

number of iterations: 72 
S-sub-bulk = 5.343242e-03
S-sub-base = 6.598051e-06
S-nh4-bulk = 5.257172e-04
S-nh4-base = 1.399727e-04

number of iterations: 72 
S-sub-bulk = 5.342979e-03
S-sub-base = 6.598043e-06
S-nh4-bulk = 5.257539e-04
S-nh4-base = 1.399653e-04

number of iterations: 71 
S-sub-bulk = 5.342714e-03
S-sub-base = 6.598034e-06
S-nh4-bulk = 5.257905e-04
S-nh4-base = 1.399580e-04

number of iterations: 72 
S-sub-bulk = 5.342448e-03
S-sub-base = 6.598026e-06
S-nh4-bulk = 5.258271e-04
S-nh4-base = 1.399506e-04

number of iterations: 71 
S-sub-bulk = 5.342182e-03
S-sub-base = 6.598017e-06
S-nh4-bulk = 5.258635e-04
S-nh4-base = 1.399434e-04

number of iterations: 72 
S-sub-bulk = 5.341913e-03
S-sub-base = 6.598008e-06
S-nh4-bulk = 5.259000e-04
S-nh4-base = 1.399360e-04

number of iterations: 71 
S-sub-bulk = 5.341643e-03
S-sub-base = 6.598000e-06
S-nh4-bulk = 5.259363e-04
S-nh4-base = 1.399287e-04

number of iterations: 71 
S-sub-bulk = 5.341371e-03
S-sub-base = 6.597991e-06
S-nh4-bulk = 5.259725e-04
S-nh4-base = 1.399215e-04

number of iterations: 71 
S-sub-bulk = 5.341098e-03
S-sub-base = 6.597983e-06
S-nh4-bulk = 5.260087e-04
S-nh4-base = 1.399142e-04

number of iterations: 71 
S-sub-bulk = 5.340824e-03
S-sub-base = 6.597974e-06
S-nh4-bulk = 5.260448e-04
S-nh4-base = 1.399069e-04

number of iterations: 71 
S-sub-bulk = 5.340547e-03
S-sub-base = 6.597965e-06
S-nh4-bulk = 5.260808e-04
S-nh4-base = 1.398997e-04

number of iterations: 71 
S-sub-bulk = 5.340269e-03
S-sub-base = 6.597957e-06
S-nh4-bulk = 5.261168e-04
S-nh4-base = 1.398925e-04

number of iterations: 71 
S-sub-bulk = 5.339990e-03
S-sub-base = 6.597948e-06
S-nh4-bulk = 5.261527e-04
S-nh4-base = 1.398852e-04

number of iterations: 70 
S-sub-bulk = 5.339709e-03
S-sub-base = 6.597939e-06
S-nh4-bulk = 5.261885e-04
S-nh4-base = 1.398781e-04

number of iterations: 71 
S-sub-bulk = 5.339426e-03
S-sub-base = 6.597931e-06
S-nh4-bulk = 5.262243e-04
S-nh4-base = 1.398709e-04

number of iterations: 70 
S-sub-bulk = 5.339141e-03
S-sub-base = 6.597922e-06
S-nh4-bulk = 5.262600e-04
S-nh4-base = 1.398638e-04

number of iterations: 71 
S-sub-bulk = 5.338854e-03
S-sub-base = 6.597913e-06
S-nh4-bulk = 5.262957e-04
S-nh4-base = 1.398565e-04

number of iterations: 70 
S-sub-bulk = 5.338566e-03
S-sub-base = 6.597905e-06
S-nh4-bulk = 5.263313e-04
S-nh4-base = 1.398494e-04

number of iterations: 70 
S-sub-bulk = 5.338276e-03
S-sub-base = 6.597896e-06
S-nh4-bulk = 5.263668e-04
S-nh4-base = 1.398423e-04

number of iterations: 71 
S-sub-bulk = 5.337983e-03
S-sub-base = 6.597887e-06
S-nh4-bulk = 5.264023e-04
S-nh4-base = 1.398351e-04

number of iterations: 70 
S-sub-bulk = 5.337689e-03
S-sub-base = 6.597879e-06
S-nh4-bulk = 5.264377e-04
S-nh4-base = 1.398280e-04

number of iterations: 70 
S-sub-bulk = 5.337393e-03
S-sub-base = 6.597870e-06
S-nh4-bulk = 5.264731e-04
S-nh4-base = 1.398209e-04

number of iterations: 70 
S-sub-bulk = 5.337095e-03
S-sub-base = 6.597862e-06
S-nh4-bulk = 5.265084e-04
S-nh4-base = 1.398139e-04

number of iterations: 70 
S-sub-bulk = 5.336795e-03
S-sub-base = 6.597853e-06
S-nh4-bulk = 5.265437e-04
S-nh4-base = 1.398068e-04

number of iterations: 70 
S-sub-bulk = 5.336493e-03
S-sub-base = 6.597844e-06
S-nh4-bulk = 5.265789e-04
S-nh4-base = 1.397997e-04

number of iterations: 70 
S-sub-bulk = 5.336189e-03
S-sub-base = 6.597836e-06
S-nh4-bulk = 5.266141e-04
S-nh4-base = 1.397926e-04

number of iterations: 70 
S-sub-bulk = 5.335882e-03
S-sub-base = 6.597827e-06
S-nh4-bulk = 5.266492e-04
S-nh4-base = 1.397856e-04

number of iterations: 70 
S-sub-bulk = 5.335573e-03
S-sub-base = 6.597819e-06
S-nh4-bulk = 5.266843e-04
S-nh4-base = 1.397785e-04

number of iterations: 69 
S-sub-bulk = 5.335262e-03
S-sub-base = 6.597810e-06
S-nh4-bulk = 5.267193e-04
S-nh4-base = 1.397716e-04

number of iterations: 70 
S-sub-bulk = 5.334948e-03
S-sub-base = 6.597801e-06
S-nh4-bulk = 5.267543e-04
S-nh4-base = 1.397645e-04

number of iterations: 70 
S-sub-bulk = 5.334632e-03
S-sub-base = 6.597793e-06
S-nh4-bulk = 5.267893e-04
S-nh4-base = 1.397575e-04

number of iterations: 69 
S-sub-bulk = 5.334313e-03
S-sub-base = 6.597784e-06
S-nh4-bulk = 5.268241e-04
S-nh4-base = 1.397505e-04

number of iterations: 70 
S-sub-bulk = 5.333992e-03
S-sub-base = 6.597776e-06
S-nh4-bulk = 5.268590e-04
S-nh4-base = 1.397435e-04

number of iterations: 69 
S-sub-bulk = 5.333667e-03
S-sub-base = 6.597767e-06
S-nh4-bulk = 5.268938e-04
S-nh4-base = 1.397365e-04

number of iterations: 70 
S-sub-bulk = 5.333340e-03
S-sub-base = 6.597758e-06
S-nh4-bulk = 5.269286e-04
S-nh4-base = 1.397295e-04

number of iterations: 69 
S-sub-bulk = 5.333010e-03
S-sub-base = 6.597750e-06
S-nh4-bulk = 5.269633e-04
S-nh4-base = 1.397226e-04

number of iterations: 69 
S-sub-bulk = 5.332678e-03
S-sub-base = 6.597741e-06
S-nh4-bulk = 5.269980e-04
S-nh4-base = 1.397157e-04

number of iterations: 69 
S-sub-bulk = 5.332342e-03
S-sub-base = 6.597733e-06
S-nh4-bulk = 5.270326e-04
S-nh4-base = 1.397088e-04

number of iterations: 69 
S-sub-bulk = 5.332003e-03
S-sub-base = 6.597724e-06
S-nh4-bulk = 5.270671e-04
S-nh4-base = 1.397018e-04

number of iterations: 69 
S-sub-bulk = 5.331661e-03
S-sub-base = 6.597716e-06
S-nh4-bulk = 5.271016e-04
S-nh4-base = 1.396949e-04

number of iterations: 69 
S-sub-bulk = 5.331316e-03
S-sub-base = 6.597707e-06
S-nh4-bulk = 5.271361e-04
S-nh4-base = 1.396880e-04

number of iterations: 69 
S-sub-bulk = 5.330967e-03
S-sub-base = 6.597699e-06
S-nh4-bulk = 5.271705e-04
S-nh4-base = 1.396811e-04

number of iterations: 69 
S-sub-bulk = 5.330615e-03
S-sub-base = 6.597690e-06
S-nh4-bulk = 5.272049e-04
S-nh4-base = 1.396742e-04

number of iterations: 69 
S-sub-bulk = 5.330259e-03
S-sub-base = 6.597682e-06
S-nh4-bulk = 5.272392e-04
S-nh4-base = 1.396674e-04

number of iterations: 69 
S-sub-bulk = 5.329900e-03
S-sub-base = 6.597674e-06
S-nh4-bulk = 5.272736e-04
S-nh4-base = 1.396605e-04

number of iterations: 69 
S-sub-bulk = 5.329536e-03
S-sub-base = 6.597665e-06
S-nh4-bulk = 5.273078e-04
S-nh4-base = 1.396536e-04

number of iterations: 69 
S-sub-bulk = 5.329168e-03
S-sub-base = 6.597657e-06
S-nh4-bulk = 5.273421e-04
S-nh4-base = 1.396467e-04

number of iterations: 69 
S-sub-bulk = 5.328797e-03
S-sub-base = 6.597649e-06
S-nh4-bulk = 5.273764e-04
S-nh4-base = 1.396399e-04

number of iterations: 69 
S-sub-bulk = 5.328421e-03
S-sub-base = 6.597641e-06
S-nh4-bulk = 5.274106e-04
S-nh4-base = 1.396330e-04

number of iterations: 68 
S-sub-bulk = 5.328041e-03
S-sub-base = 6.597632e-06
S-nh4-bulk = 5.274447e-04
S-nh4-base = 1.396262e-04

number of iterations: 69 
S-sub-bulk = 5.327658e-03
S-sub-base = 6.597624e-06
S-nh4-bulk = 5.274788e-04
S-nh4-base = 1.396194e-04

number of iterations: 69 
S-sub-bulk = 5.327270e-03
S-sub-base = 6.597616e-06
S-nh4-bulk = 5.275130e-04
S-nh4-base = 1.396125e-04

number of iterations: 68 
S-sub-bulk = 5.326878e-03
S-sub-base = 6.597608e-06
S-nh4-bulk = 5.275470e-04
S-nh4-base = 1.396058e-04

number of iterations: 69 
S-sub-bulk = 5.326480e-03
S-sub-base = 6.597601e-06
S-nh4-bulk = 5.275810e-04
S-nh4-base = 1.395989e-04

number of iterations: 68 
S-sub-bulk = 5.326078e-03
S-sub-base = 6.597593e-06
S-nh4-bulk = 5.276150e-04
S-nh4-base = 1.395922e-04

number of iterations: 69 
S-sub-bulk = 5.325670e-03
S-sub-base = 6.597585e-06
S-nh4-bulk = 5.276489e-04
S-nh4-base = 1.395853e-04

number of iterations: 68 
S-sub-bulk = 5.325258e-03
S-sub-base = 6.597577e-06
S-nh4-bulk = 5.276828e-04
S-nh4-base = 1.395786e-04

number of iterations: 69 
S-sub-bulk = 5.324840e-03
S-sub-base = 6.597570e-06
S-nh4-bulk = 5.277167e-04
S-nh4-base = 1.395718e-04

number of iterations: 68 
S-sub-bulk = 5.324417e-03
S-sub-base = 6.597562e-06
S-nh4-bulk = 5.277506e-04
S-nh4-base = 1.395651e-04

number of iterations: 68 
S-sub-bulk = 5.323989e-03
S-sub-base = 6.597555e-06
S-nh4-bulk = 5.277844e-04
S-nh4-base = 1.395583e-04

number of iterations: 69 
S-sub-bulk = 5.323555e-03
S-sub-base = 6.597548e-06
S-nh4-bulk = 5.278182e-04
S-nh4-base = 1.395515e-04

number of iterations: 68 
S-sub-bulk = 5.323116e-03
S-sub-base = 6.597541e-06
S-nh4-bulk = 5.278519e-04
S-nh4-base = 1.395448e-04

number of iterations: 68 
S-sub-bulk = 5.322671e-03
S-sub-base = 6.597534e-06
S-nh4-bulk = 5.278856e-04
S-nh4-base = 1.395381e-04

number of iterations: 68 
S-sub-bulk = 5.322220e-03
S-sub-base = 6.597528e-06
S-nh4-bulk = 5.279193e-04
S-nh4-base = 1.395314e-04

number of iterations: 68 
S-sub-bulk = 5.321762e-03
S-sub-base = 6.597521e-06
S-nh4-bulk = 5.279529e-04
S-nh4-base = 1.395247e-04

number of iterations: 68 
S-sub-bulk = 5.321298e-03
S-sub-base = 6.597515e-06
S-nh4-bulk = 5.279865e-04
S-nh4-base = 1.395180e-04

number of iterations: 68 
S-sub-bulk = 5.320828e-03
S-sub-base = 6.597509e-06
S-nh4-bulk = 5.280200e-04
S-nh4-base = 1.395113e-04

number of iterations: 68 
S-sub-bulk = 5.320351e-03
S-sub-base = 6.597503e-06
S-nh4-bulk = 5.280535e-04
S-nh4-base = 1.395046e-04

number of iterations: 68 
S-sub-bulk = 5.319867e-03
S-sub-base = 6.597497e-06
S-nh4-bulk = 5.280870e-04
S-nh4-base = 1.394979e-04

number of iterations: 68 
S-sub-bulk = 5.319376e-03
S-sub-base = 6.597492e-06
S-nh4-bulk = 5.281205e-04
S-nh4-base = 1.394913e-04

number of iterations: 68 
S-sub-bulk = 5.318878e-03
S-sub-base = 6.597487e-06
S-nh4-bulk = 5.281539e-04
S-nh4-base = 1.394846e-04

number of iterations: 68 
S-sub-bulk = 5.318373e-03
S-sub-base = 6.597482e-06
S-nh4-bulk = 5.281873e-04
S-nh4-base = 1.394779e-04

number of iterations: 68 
S-sub-bulk = 5.317861e-03
S-sub-base = 6.597478e-06
S-nh4-bulk = 5.282207e-04
S-nh4-base = 1.394712e-04

number of iterations: 68 
S-sub-bulk = 5.317342e-03
S-sub-base = 6.597474e-06
S-nh4-bulk = 5.282541e-04
S-nh4-base = 1.394646e-04

number of iterations: 68 
S-sub-bulk = 5.316815e-03
S-sub-base = 6.597470e-06
S-nh4-bulk = 5.282875e-04
S-nh4-base = 1.394579e-04

number of iterations: 67 
S-sub-bulk = 5.316281e-03
S-sub-base = 6.597467e-06
S-nh4-bulk = 5.283207e-04
S-nh4-base = 1.394514e-04

number of iterations: 68 
S-sub-bulk = 5.315740e-03
S-sub-base = 6.597464e-06
S-nh4-bulk = 5.283540e-04
S-nh4-base = 1.394447e-04

number of iterations: 70 
S-sub-bulk = 5.315190e-03
S-sub-base = 6.597462e-06
S-nh4-bulk = 5.283873e-04
S-nh4-base = 1.394381e-04

number of iterations: 71 
S-sub-bulk = 5.314633e-03
S-sub-base = 6.597460e-06
S-nh4-bulk = 5.284204e-04
S-nh4-base = 1.394315e-04

number of iterations: 72 
S-sub-bulk = 5.314068e-03
S-sub-base = 6.597459e-06
S-nh4-bulk = 5.284536e-04
S-nh4-base = 1.394249e-04

number of iterations: 74 
S-sub-bulk = 5.313496e-03
S-sub-base = 6.597458e-06
S-nh4-bulk = 5.284868e-04
S-nh4-base = 1.394182e-04

number of iterations: 76 
S-sub-bulk = 5.312915e-03
S-sub-base = 6.597458e-06
S-nh4-bulk = 5.285199e-04
S-nh4-base = 1.394117e-04

number of iterations: 76 
S-sub-bulk = 5.312328e-03
S-sub-base = 6.597459e-06
S-nh4-bulk = 5.285530e-04
S-nh4-base = 1.394051e-04

number of iterations: 79 
S-sub-bulk = 5.311732e-03
S-sub-base = 6.597460e-06
S-nh4-bulk = 5.285860e-04
S-nh4-base = 1.393985e-04

number of iterations: 80 
S-sub-bulk = 5.311128e-03
S-sub-base = 6.597462e-06
S-nh4-bulk = 5.286191e-04
S-nh4-base = 1.393919e-04

number of iterations: 81 
S-sub-bulk = 5.310517e-03
S-sub-base = 6.597465e-06
S-nh4-bulk = 5.286521e-04
S-nh4-base = 1.393854e-04

number of iterations: 83 
S-sub-bulk = 5.309899e-03
S-sub-base = 6.597469e-06
S-nh4-bulk = 5.286851e-04
S-nh4-base = 1.393788e-04

number of iterations: 84 
S-sub-bulk = 5.309274e-03
S-sub-base = 6.597473e-06
S-nh4-bulk = 5.287180e-04
S-nh4-base = 1.393723e-04

number of iterations: 85 
S-sub-bulk = 5.308643e-03
S-sub-base = 6.597478e-06
S-nh4-bulk = 5.287509e-04
S-nh4-base = 1.393658e-04

number of iterations: 87 
S-sub-bulk = 5.308005e-03
S-sub-base = 6.597485e-06
S-nh4-bulk = 5.287838e-04
S-nh4-base = 1.393592e-04

number of iterations: 89 
S-sub-bulk = 5.307360e-03
S-sub-base = 6.597492e-06
S-nh4-bulk = 5.288167e-04
S-nh4-base = 1.393526e-04

ERROR: Stop here (../fix_bio_verify.cpp:288)
