ITEM: TIMESTEP
0
ITEM: NUMBER OF ATOMS
82
ITEM: BOX BOUNDS ff ff ff
0.0000000000000000e+00 1.3600000000000000e-04
0.0000000000000000e+00 1.3600000000000000e-04
0.0000000000000000e+00 1.3600000000000000e-04
ITEM: ATOMS id type diameter x y z 
1 1 1e-06 5e-06 5e-06 1e-06 
41 2 1e-06 6e-06 5e-06 1e-06 
2 1 1e-06 1.5e-05 5e-06 1e-06 
42 2 1e-06 1.6e-05 5e-06 1e-06 
3 1 1e-06 2.5e-05 5e-06 1e-06 
43 2 1e-06 2.6e-05 5e-06 1e-06 
4 1 1e-06 3.5e-05 5e-06 1e-06 
44 2 1e-06 3.6e-05 5e-06 1e-06 
5 1 1e-06 4.5e-05 5e-06 1e-06 
45 2 1e-06 4.6e-05 5e-06 1e-06 
6 1 1e-06 5.5e-05 5e-06 1e-06 
46 2 1e-06 5.6e-05 5e-06 1e-06 
7 1 1e-06 6.5e-05 5e-06 1e-06 
47 2 1e-06 6.6e-05 5e-06 1e-06 
8 1 1e-06 7.5e-05 5e-06 1e-06 
48 2 1e-06 7.6e-05 5e-06 1e-06 
9 1 1e-06 8.5e-05 5e-06 1e-06 
49 2 1e-06 8.6e-05 5e-06 1e-06 
10 1 1e-06 9.5e-05 5e-06 1e-06 
50 2 1e-06 9.6e-05 5e-06 1e-06 
11 1 1e-06 5e-06 1.5e-05 1e-06 
51 2 1e-06 6e-06 1.5e-05 1e-06 
12 1 1e-06 1.5e-05 1.5e-05 1e-06 
52 2 1e-06 1.6e-05 1.5e-05 1e-06 
13 1 1e-06 2.5e-05 1.5e-05 1e-06 
53 2 1e-06 2.6e-05 1.5e-05 1e-06 
14 1 1e-06 3.5e-05 1.5e-05 1e-06 
54 2 1e-06 3.6e-05 1.5e-05 1e-06 
15 1 1e-06 4.5e-05 1.5e-05 1e-06 
55 2 1e-06 4.6e-05 1.5e-05 1e-06 
16 1 1e-06 5.5e-05 1.5e-05 1e-06 
56 2 1e-06 5.6e-05 1.5e-05 1e-06 
17 1 1e-06 6.5e-05 1.5e-05 1e-06 
57 2 1e-06 6.6e-05 1.5e-05 1e-06 
18 1 1e-06 7.5e-05 1.5e-05 1e-06 
58 2 1e-06 7.6e-05 1.5e-05 1e-06 
19 1 1e-06 8.5e-05 1.5e-05 1e-06 
59 2 1e-06 8.6e-05 1.5e-05 1e-06 
20 1 1e-06 9.5e-05 1.5e-05 1e-06 
60 2 1e-06 9.6e-05 1.5e-05 1e-06 
21 1 1e-06 5e-06 2.5e-05 1e-06 
61 2 1e-06 6e-06 2.5e-05 1e-06 
22 1 1e-06 1.5e-05 2.5e-05 1e-06 
62 2 1e-06 1.6e-05 2.5e-05 1e-06 
23 1 1e-06 2.5e-05 2.5e-05 1e-06 
63 2 1e-06 2.6e-05 2.5e-05 1e-06 
24 1 1e-06 3.5e-05 2.5e-05 1e-06 
64 2 1e-06 3.6e-05 2.5e-05 1e-06 
25 1 1e-06 4.5e-05 2.5e-05 1e-06 
65 2 1e-06 4.6e-05 2.5e-05 1e-06 
26 1 1e-06 5.5e-05 2.5e-05 1e-06 
66 2 1e-06 5.6e-05 2.5e-05 1e-06 
27 1 1e-06 6.5e-05 2.5e-05 1e-06 
67 2 1e-06 6.6e-05 2.5e-05 1e-06 
28 1 1e-06 7.5e-05 2.5e-05 1e-06 
68 2 1e-06 7.6e-05 2.5e-05 1e-06 
29 1 1e-06 8.5e-05 2.5e-05 1e-06 
69 2 1e-06 8.6e-05 2.5e-05 1e-06 
30 1 1e-06 9.5e-05 2.5e-05 1e-06 
70 2 1e-06 9.6e-05 2.5e-05 1e-06 
31 1 1e-06 5e-06 3.5e-05 1e-06 
71 2 1e-06 6e-06 3.5e-05 1e-06 
32 1 1e-06 1.5e-05 3.5e-05 1e-06 
72 2 1e-06 1.6e-05 3.5e-05 1e-06 
33 1 1e-06 2.5e-05 3.5e-05 1e-06 
73 2 1e-06 2.6e-05 3.5e-05 1e-06 
34 1 1e-06 3.5e-05 3.5e-05 1e-06 
74 2 1e-06 3.6e-05 3.5e-05 1e-06 
35 1 1e-06 4.5e-05 3.5e-05 1e-06 
75 2 1e-06 4.6e-05 3.5e-05 1e-06 
36 1 1e-06 5.5e-05 3.5e-05 1e-06 
76 2 1e-06 5.6e-05 3.5e-05 1e-06 
37 1 1e-06 6.5e-05 3.5e-05 1e-06 
77 2 1e-06 6.6e-05 3.5e-05 1e-06 
38 1 1e-06 7.5e-05 3.5e-05 1e-06 
78 2 1e-06 7.6e-05 3.5e-05 1e-06 
39 1 1e-06 8.5e-05 3.5e-05 1e-06 
79 2 1e-06 8.6e-05 3.5e-05 1e-06 
82 4 1e-08 8.8e-05 3.5e-05 1e-06 
40 1 1e-06 9.5e-05 3.5e-05 1e-06 
80 2 1e-06 9.6e-05 3.5e-05 1e-06 
81 3 1e-08 9.8e-05 3.5e-05 1e-06 
ITEM: TIMESTEP
1000
ITEM: NUMBER OF ATOMS
122
ITEM: BOX BOUNDS ff ff ff
0.0000000000000000e+00 1.3600000000000000e-04
0.0000000000000000e+00 1.3600000000000000e-04
0.0000000000000000e+00 1.3600000000000000e-04
ITEM: ATOMS id type diameter x y z 
5 1 1.25487e-06 4.47097e-05 4.49941e-06 7.19676e-07 
83 1 1.23672e-06 4.44296e-06 4.83506e-06 6.7799e-07 
7 1 1.18988e-06 6.4088e-05 4.7627e-06 9.89203e-07 
47 2 1.03606e-06 6.6396e-05 4.96005e-06 9.98182e-07 
90 1 1.18129e-06 7.50601e-05 4.5235e-06 9.35168e-07 
84 1 1.25763e-06 1.45382e-05 5.38652e-06 6.79428e-07 
85 1 1.23582e-06 2.50916e-05 5.19546e-06 5.67911e-07 
4 1 1.18004e-06 3.50552e-05 5.22942e-06 5.40875e-07 
88 1 1.26275e-06 5.50843e-05 5.4906e-06 8.58308e-07 
91 1 1.17476e-06 8.51737e-05 5.03347e-06 6.21419e-07 
10 1 1.20408e-06 9.5095e-05 5.19553e-06 5.50526e-07 
101 1 1.24265e-06 8.45824e-05 1.44851e-05 8.6466e-07 
95 1 1.12331e-06 2.50776e-05 1.49397e-05 5.12775e-07 
96 1 1.13107e-06 3.50191e-05 1.47997e-05 5.15361e-07 
18 1 1.11891e-06 7.52423e-05 1.48031e-05 8.16137e-07 
102 1 1.16383e-06 9.5332e-05 1.48933e-05 9.61924e-07 
11 1 1.15246e-06 5.00925e-06 1.54429e-05 7.29276e-07 
94 1 1.21853e-06 1.50711e-05 1.52274e-05 5.57477e-07 
15 1 1.1822e-06 4.53066e-05 1.52358e-05 8.32293e-07 
55 2 1.03606e-06 4.62e-05 1.5e-05 1e-06 
98 1 1.26474e-06 5.51955e-05 1.52801e-05 6.63634e-07 
56 2 1.03606e-06 5.62e-05 1.5e-05 1e-06 
99 1 1.27155e-06 6.53134e-05 1.52207e-05 8.15338e-07 
57 2 1.03606e-06 6.62e-05 1.5e-05 1e-06 
58 2 1.03606e-06 7.62e-05 1.5e-05 1e-06 
23 1 1.26645e-06 2.45666e-05 2.45116e-05 7.75191e-07 
111 1 1.23944e-06 8.50031e-05 2.48084e-05 5.67437e-07 
103 1 1.24025e-06 4.8729e-06 2.54789e-05 6.8381e-07 
104 1 1.16141e-06 1.46189e-05 2.54557e-05 8.11332e-07 
106 1 1.23478e-06 3.50878e-05 2.52456e-05 5.66151e-07 
25 1 1.20386e-06 4.42963e-05 2.52273e-05 9.28685e-07 
108 1 1.25686e-06 5.48986e-05 2.53888e-05 5.80366e-07 
110 1 1.23046e-06 7.50881e-05 2.5195e-05 5.63343e-07 
30 1 1.17148e-06 9.51134e-05 2.50064e-05 5.34594e-07 
27 1 1.25097e-06 6.47707e-05 2.55673e-05 8.87749e-07 
31 1 1.25929e-06 4.84011e-06 3.44284e-05 8.95804e-07 
115 1 1.16534e-06 2.49026e-05 3.47491e-05 5.31979e-07 
34 1 1.14542e-06 3.40974e-05 3.48123e-05 9.35753e-07 
74 2 1.03606e-06 3.63967e-05 3.49656e-05 9.88212e-07 
39 1 1.22351e-06 8.47687e-05 3.45424e-05 6.67868e-07 
122 1 1.20634e-06 9.4397e-05 3.46792e-05 7.84414e-07 
32 1 1.12078e-06 1.51359e-05 3.51537e-05 5.97568e-07 
35 1 1.26222e-06 4.46492e-05 3.53173e-05 5.8236e-07 
118 1 1.2205e-06 5.43809e-05 3.51868e-05 6.70555e-07 
37 1 1.18155e-06 6.50978e-05 3.51412e-05 5.3892e-07 
38 1 1.26196e-06 7.49407e-05 3.55229e-05 7.81098e-07 
2 1 1.13005e-06 1.50971e-05 4.65269e-06 1.28805e-06 
6 1 1.12364e-06 5.4547e-05 4.56345e-06 1.12608e-06 
9 1 1.2189e-06 8.45361e-05 4.97897e-06 1.49816e-06 
49 2 1.03606e-06 8.61883e-05 4.99608e-06 1.04676e-06 
50 2 1.03606e-06 9.61932e-05 4.98465e-06 1.03279e-06 
1 1 1.15496e-06 5.30076e-06 5.15404e-06 1.30072e-06 
41 2 1.03606e-06 6.11348e-06 5e-06 1e-06 
42 2 1.03606e-06 1.61674e-05 5e-06 1e-06 
43 2 1.03606e-06 2.62e-05 5e-06 1e-06 
44 2 1.03606e-06 3.62e-05 5e-06 1e-06 
87 1 1.13344e-06 4.48816e-05 5.45215e-06 1.2532e-06 
45 2 1.03606e-06 4.62e-05 5e-06 1e-06 
46 2 1.03606e-06 5.62e-05 5e-06 1e-06 
89 1 1.20451e-06 6.53124e-05 5.26606e-06 1.01211e-06 
8 1 1.21277e-06 7.45329e-05 5.4892e-06 1.06656e-06 
48 2 1.03606e-06 7.62e-05 5e-06 1e-06 
93 1 1.23889e-06 4.75458e-06 1.45239e-05 1.29103e-06 
52 2 1.03606e-06 1.61603e-05 1.49816e-05 1.03228e-06 
97 1 1.21191e-06 4.41122e-05 1.47358e-05 1.18786e-06 
16 1 1.12111e-06 5.44471e-05 1.47946e-05 1.32018e-06 
17 1 1.11234e-06 6.43509e-05 1.4807e-05 1.16154e-06 
51 2 1.03606e-06 6.11348e-06 1.5e-05 1e-06 
53 2 1.03606e-06 2.62e-05 1.5e-05 1e-06 
54 2 1.03606e-06 3.62e-05 1.5e-05 1e-06 
100 1 1.26647e-06 7.42994e-05 1.52229e-05 1.20811e-06 
19 1 1.14809e-06 8.5001e-05 1.54757e-05 1.12504e-06 
59 2 1.03606e-06 8.62e-05 1.5e-05 1e-06 
20 1 1.22888e-06 9.40398e-05 1.51075e-05 1.03838e-06 
60 2 1.03606e-06 9.63991e-05 1.50174e-05 1.00622e-06 
109 1 1.1382e-06 6.48266e-05 2.44839e-05 1.10213e-06 
21 1 1.15088e-06 4.89916e-06 2.45556e-05 1.29341e-06 
22 1 1.23104e-06 1.50592e-05 2.4517e-05 1.19998e-06 
64 2 1.03606e-06 3.6193e-05 2.4981e-05 1.03133e-06 
107 1 1.19054e-06 4.52981e-05 2.47752e-05 1.07053e-06 
68 2 1.03606e-06 7.61937e-05 2.49849e-05 1.0316e-06 
61 2 1.03606e-06 6.11348e-06 2.5e-05 1e-06 
62 2 1.03606e-06 1.61674e-05 2.5e-05 1e-06 
105 1 1.11894e-06 2.50063e-05 2.54315e-05 1.19862e-06 
63 2 1.03606e-06 2.62e-05 2.5e-05 1e-06 
65 2 1.03606e-06 4.62e-05 2.5e-05 1e-06 
66 2 1.03606e-06 5.62e-05 2.5e-05 1e-06 
67 2 1.03606e-06 6.62e-05 2.5e-05 1e-06 
69 2 1.03606e-06 8.62e-05 2.5e-05 1e-06 
70 2 1.03606e-06 9.62e-05 2.5e-05 1e-06 
72 2 1.03606e-06 1.61537e-05 3.49826e-05 1.04753e-06 
36 1 1.17303e-06 5.52028e-05 3.48204e-05 1.31663e-06 
77 2 1.03606e-06 6.61934e-05 3.49887e-05 1.03382e-06 
120 1 1.12464e-06 7.46746e-05 3.4534e-05 1.19508e-06 
71 2 1.03606e-06 6.11348e-06 3.5e-05 1e-06 
73 2 1.03606e-06 2.62e-05 3.5e-05 1e-06 
116 1 1.24492e-06 3.51735e-05 3.52178e-05 1.07456e-06 
75 2 1.03606e-06 4.62e-05 3.5e-05 1e-06 
76 2 1.03606e-06 5.62e-05 3.5e-05 1e-06 
78 2 1.03606e-06 7.62e-05 3.5e-05 1e-06 
121 1 1.16976e-06 8.48299e-05 3.54375e-05 1.31754e-06 
79 2 1.03606e-06 8.62e-05 3.5e-05 1e-06 
82 4 1e-08 8.8e-05 3.5e-05 1e-06 
40 1 1.188e-06 9.51968e-05 3.53159e-05 1.21231e-06 
80 2 1.03606e-06 9.62e-05 3.5e-05 1e-06 
81 3 1e-08 9.8e-05 3.5e-05 1e-06 
113 1 1.12798e-06 4.92809e-06 3.5512e-05 1.09333e-06 
3 1 1.15599e-06 2.46129e-05 4.82239e-06 1.68696e-06 
86 1 1.21395e-06 3.4644e-05 4.78506e-06 1.71304e-06 
92 1 1.19032e-06 9.45468e-05 4.86737e-06 1.69305e-06 
12 1 1.17516e-06 1.46461e-05 1.48996e-05 1.71137e-06 
13 1 1.26301e-06 2.4563e-05 1.50614e-05 1.7462e-06 
14 1 1.2568e-06 3.47745e-05 1.50811e-05 1.77493e-06 
24 1 1.15718e-06 3.45107e-05 2.48288e-05 1.65311e-06 
26 1 1.13099e-06 5.47816e-05 2.46149e-05 1.61136e-06 
28 1 1.16206e-06 7.44857e-05 2.48618e-05 1.65224e-06 
112 1 1.22193e-06 9.47717e-05 2.49983e-05 1.76188e-06 
29 1 1.15182e-06 8.47744e-05 2.50783e-05 1.72622e-06 
114 1 1.265e-06 1.4591e-05 3.48895e-05 1.52177e-06 
117 1 1.12431e-06 4.50236e-05 3.46935e-05 1.61183e-06 
119 1 1.21253e-06 6.44971e-05 3.49316e-05 1.69405e-06 
33 1 1.22752e-06 2.48136e-05 3.51284e-05 1.75575e-06 
ITEM: TIMESTEP
2000
ITEM: NUMBER OF ATOMS
287
ITEM: BOX BOUNDS ff ff ff
0.0000000000000000e+00 1.3600000000000000e-04
0.0000000000000000e+00 1.3600000000000000e-04
0.0000000000000000e+00 1.3600000000000000e-04
ITEM: ATOMS id type diameter x y z 
215 1 1.13136e-06 6.38154e-05 3.97262e-06 8.66774e-07 
159 1 1.19648e-06 7.57747e-05 3.87101e-06 5.74145e-07 
249 1 1.13704e-06 4.20214e-06 4.08165e-06 6.13376e-07 
136 1 1.09048e-06 2.52863e-05 4.22442e-06 8.72447e-07 
86 1 1.18395e-06 3.47404e-05 4.10439e-06 9.02055e-07 
133 1 1.3189e-06 4.46915e-05 4.25882e-06 6.13946e-07 
90 1 1.37441e-06 7.44501e-05 4.45448e-06 8.14442e-07 
251 1 1.19711e-06 8.48284e-05 4.45537e-06 5.74445e-07 
41 2 1.07343e-06 6.29367e-06 4.96052e-06 9.23424e-07 
135 1 1.14225e-06 1.39998e-05 4.93949e-06 5.90521e-07 
214 1 1.28699e-06 1.50491e-05 4.76294e-06 6.73448e-07 
160 1 1.22111e-06 6.31303e-05 4.98373e-06 6.25011e-07 
47 2 1.07343e-06 6.6396e-05 4.96005e-06 9.98182e-07 
163 1 1.17382e-06 9.52238e-05 4.76489e-06 7.42951e-07 
213 1 1.17332e-06 3.57018e-06 5.0793e-06 5.35528e-07 
42 2 1.07343e-06 1.63296e-05 5.0447e-06 9.70212e-07 
250 1 1.16694e-06 2.51796e-05 5.27277e-06 5.99001e-07 
204 1 1.16923e-06 5.49956e-05 5.15499e-06 5.6905e-07 
216 1 1.18691e-06 9.40619e-05 5.16619e-06 5.69688e-07 
197 1 1.3357e-06 4.94764e-06 5.51663e-06 9.91704e-07 
85 1 1.27646e-06 2.45595e-05 5.81988e-06 5.8587e-07 
87 1 1.30145e-06 4.45786e-05 5.76937e-06 8.28488e-07 
218 1 1.1444e-06 6.60498e-05 5.89559e-06 5.2487e-07 
8 1 1.23268e-06 7.46359e-05 5.88405e-06 5.65976e-07 
162 1 1.35643e-06 8.55385e-05 5.84955e-06 6.71623e-07 
10 1 1.39291e-06 9.55699e-05 5.90439e-06 7.1928e-07 
266 1 1.12592e-06 1.42179e-05 6.41972e-06 9.11269e-07 
161 1 1.35373e-06 3.48589e-05 6.11177e-06 7.04949e-07 
220 1 1.16527e-06 4.1124e-06 1.37852e-05 6.98574e-07 
181 1 1.3331e-06 7.51651e-05 1.3735e-05 6.23721e-07 
148 1 1.22694e-06 4.98613e-06 1.44648e-05 6.15052e-07 
96 1 1.41636e-06 3.55123e-05 1.41275e-05 6.9352e-07 
137 1 1.13658e-06 8.44349e-05 1.44009e-05 5.45399e-07 
95 1 1.26946e-06 2.50012e-05 1.47963e-05 6.5183e-07 
182 1 1.28572e-06 3.42681e-05 1.45311e-05 6.0293e-07 
230 1 1.19774e-06 4.40111e-05 1.49723e-05 6.38673e-07 
55 2 1.07343e-06 4.63895e-05 1.49511e-05 9.59502e-07 
253 1 1.20377e-06 5.49622e-05 1.4717e-05 5.77645e-07 
189 1 1.38459e-06 6.36878e-05 1.48999e-05 7.86934e-07 
99 1 1.15646e-06 6.49126e-05 1.4949e-05 5.27459e-07 
20 1 1.17589e-06 9.36635e-05 1.48775e-05 8.39459e-07 
102 1 1.39035e-06 9.54784e-05 1.49328e-05 7.31263e-07 
124 1 1.0972e-06 5.57239e-05 1.54969e-05 7.71475e-07 
224 1 1.14018e-06 7.45635e-05 1.50303e-05 5.34071e-07 
58 2 1.07343e-06 7.63867e-05 1.50369e-05 9.79451e-07 
11 1 1.35341e-06 5.36369e-06 1.59037e-05 6.35308e-07 
94 1 1.3906e-06 1.57861e-05 1.58826e-05 7.06266e-07 
190 1 1.3675e-06 8.53573e-05 1.59768e-05 6.59941e-07 
150 1 1.20444e-06 9.49523e-05 1.56182e-05 8.44239e-07 
222 1 1.20511e-06 1.39281e-05 1.60945e-05 5.64002e-07 
15 1 1.39864e-06 4.53403e-05 1.61493e-05 5.75362e-07 
98 1 1.28819e-06 5.4385e-05 1.62329e-05 5.92892e-07 
100 1 1.22248e-06 7.41955e-05 1.61835e-05 7.33289e-07 
254 1 1.08861e-06 9.40288e-05 1.61695e-05 5.87099e-07 
125 1 1.19158e-06 6.5382e-05 1.68061e-05 5.79672e-07 
23 1 1.05456e-06 2.39232e-05 2.35967e-05 5.47458e-07 
106 1 1.16291e-06 3.50192e-05 2.39387e-05 7.9683e-07 
107 1 1.11089e-06 4.57564e-05 2.3786e-05 8.24688e-07 
151 1 1.25916e-06 1.54454e-05 2.41091e-05 5.62162e-07 
167 1 1.19687e-06 4.4187e-05 2.44388e-05 9.22587e-07 
109 1 1.37361e-06 6.53067e-05 2.42965e-05 6.35692e-07 
111 1 1.17358e-06 8.4247e-05 2.40053e-05 6.70156e-07 
139 1 1.38678e-06 8.53843e-05 2.42533e-05 6.72676e-07 
66 2 1.07343e-06 5.63066e-05 2.48384e-05 8.64914e-07 
68 2 1.07343e-06 7.63716e-05 2.48949e-05 9.90382e-07 
103 1 1.1977e-06 4.13381e-06 2.53517e-05 5.47386e-07 
104 1 1.34019e-06 1.4029e-05 2.53333e-05 8.58084e-07 
62 2 1.07343e-06 1.65159e-05 2.5212e-05 9.94121e-07 
126 1 1.21394e-06 2.52681e-05 2.50593e-05 6.25634e-07 
225 1 1.2378e-06 3.48229e-05 2.50626e-05 5.95764e-07 
256 1 1.06611e-06 4.48623e-05 2.51388e-05 5.11587e-07 
65 2 1.07343e-06 4.62e-05 2.5e-05 1e-06 
227 1 1.25968e-06 7.51663e-05 2.53168e-05 5.34973e-07 
142 1 1.1344e-06 5.69383e-06 2.59229e-05 8.82263e-07 
25 1 1.11255e-06 4.37872e-05 2.5896e-05 9.59812e-07 
143 1 1.39959e-06 5.4561e-05 2.58532e-05 6.62093e-07 
27 1 1.41836e-06 6.38831e-05 2.56125e-05 9.26497e-07 
168 1 1.31719e-06 9.44411e-05 2.57007e-05 8.05407e-07 
166 1 1.11204e-06 1.54058e-05 2.61258e-05 5.33624e-07 
105 1 1.34824e-06 2.49436e-05 2.61992e-05 9.42872e-07 
259 1 1.09013e-06 3.53417e-05 2.6236e-05 5.23112e-07 
141 1 1.10355e-06 7.45539e-05 2.63342e-05 6.94114e-07 
30 1 1.1872e-06 9.59869e-05 2.61728e-05 5.69693e-07 
207 1 1.17692e-06 6.55694e-05 2.65306e-05 5.48408e-07 
169 1 1.38891e-06 2.4782e-05 3.35581e-05 7.20739e-07 
179 1 1.13155e-06 5.5142e-05 3.39609e-05 9.39384e-07 
260 1 1.16142e-06 8.37756e-05 3.37496e-05 7.80182e-07 
127 1 1.29644e-06 4.71752e-06 3.44761e-05 5.97845e-07 
34 1 1.39816e-06 3.39063e-05 3.43648e-05 6.47516e-07 
193 1 1.26679e-06 7.52588e-05 3.42463e-05 8.86659e-07 
122 1 1.42043e-06 9.46582e-05 3.41667e-05 6.89728e-07 
235 1 1.11562e-06 1.39881e-05 3.47311e-05 9.61801e-07 
32 1 1.37302e-06 1.52838e-05 3.47527e-05 7.11366e-07 
115 1 1.40148e-06 2.50651e-05 3.49814e-05 6.8854e-07 
152 1 1.17297e-06 3.54955e-05 3.49971e-05 8.12512e-07 
74 2 1.07343e-06 3.6573e-05 3.49126e-05 9.13144e-07 
77 2 1.07343e-06 6.61905e-05 3.49635e-05 9.77968e-07 
39 1 1.11525e-06 8.43241e-05 3.4675e-05 5.60685e-07 
71 2 1.07343e-06 6.26991e-06 3.51022e-05 9.45181e-07 
128 1 1.28316e-06 4.49261e-05 3.51577e-05 6.63963e-07 
146 1 1.12096e-06 5.31293e-05 3.5004e-05 5.38381e-07 
262 1 1.09262e-06 5.44808e-05 3.51108e-05 8.1354e-07 
118 1 1.22377e-06 5.55099e-05 3.54967e-05 6.13742e-07 
76 2 1.07343e-06 5.6374e-05 3.50489e-05 9.1448e-07 
121 1 1.36143e-06 8.50956e-05 3.5442e-05 7.71278e-07 
79 2 1.07343e-06 8.62481e-05 3.5166e-05 9.01049e-07 
185 1 1.30921e-06 1.52735e-05 3.58601e-05 7.75538e-07 
35 1 1.41448e-06 4.37542e-05 3.58022e-05 7.28902e-07 
263 1 1.14058e-06 6.48206e-05 3.57857e-05 5.4732e-07 
129 1 1.20021e-06 7.42233e-05 3.57705e-05 7.64457e-07 
38 1 1.22737e-06 7.54853e-05 3.58838e-05 5.8997e-07 
194 1 1.13968e-06 4.48402e-06 3.61334e-05 5.69938e-07 
209 1 1.25141e-06 4.55255e-05 3.61729e-05 8.47817e-07 
237 1 1.15099e-06 9.54266e-05 3.61369e-05 5.25757e-07 
5 1 1.18897e-06 4.52663e-05 3.97959e-06 1.49646e-06 
248 1 1.10493e-06 7.54059e-05 3.89297e-06 1.1585e-06 
134 1 1.17547e-06 5.18708e-06 4.30302e-06 1.08733e-06 
186 1 1.31354e-06 5.38391e-05 4.45534e-06 1.18686e-06 
43 2 1.07343e-06 2.63763e-05 4.99006e-06 1.09939e-06 
44 2 1.07343e-06 3.61914e-05 4.96628e-06 1.02263e-06 
203 1 1.16691e-06 4.38132e-05 4.66553e-06 1.39438e-06 
46 2 1.07343e-06 5.61851e-05 4.94947e-06 1.01459e-06 
154 1 1.40902e-06 8.37254e-05 4.90066e-06 1.16058e-06 
91 1 1.1062e-06 8.51806e-05 4.65745e-06 1.24893e-06 
49 2 1.07343e-06 8.63362e-05 4.89359e-06 1.12191e-06 
50 2 1.07343e-06 9.61911e-05 4.96471e-06 1.0213e-06 
45 2 1.07343e-06 4.62e-05 5e-06 1e-06 
48 2 1.07343e-06 7.6188e-05 5.04714e-06 1.00641e-06 
4 1 1.21493e-06 3.54286e-05 5.58193e-06 1.17976e-06 
88 1 1.29269e-06 5.40144e-05 5.82983e-06 1.12602e-06 
123 1 1.19991e-06 5.49464e-05 6.16622e-06 1.1693e-06 
267 1 1.12531e-06 5.60183e-05 6.37394e-06 1.42521e-06 
180 1 1.41271e-06 2.51187e-05 1.36086e-05 1.05359e-06 
239 1 1.18581e-06 8.40347e-05 1.36141e-05 1.08701e-06 
177 1 1.33793e-06 1.48382e-05 1.43522e-05 1.27083e-06 
229 1 1.21798e-06 2.41185e-05 1.40979e-05 1.35327e-06 
149 1 1.40602e-06 4.34877e-05 1.40645e-05 1.35797e-06 
51 2 1.07343e-06 6.07428e-06 1.49254e-05 1.02719e-06 
52 2 1.07343e-06 1.63306e-05 1.48967e-05 1.09774e-06 
16 1 1.25886e-06 5.40276e-05 1.49411e-05 1.05962e-06 
56 2 1.07343e-06 5.65397e-05 1.4942e-05 1.19873e-06 
57 2 1.07343e-06 6.64802e-05 1.47424e-05 1.03531e-06 
59 2 1.07343e-06 8.61583e-05 1.49233e-05 1.02671e-06 
131 1 1.14739e-06 2.3787e-05 1.52893e-05 1.25551e-06 
53 2 1.07343e-06 2.61928e-05 1.50189e-05 1.03205e-06 
54 2 1.07343e-06 3.63224e-05 1.51718e-05 1.08409e-06 
165 1 1.0851e-06 4.53886e-05 1.53158e-05 1.18794e-06 
252 1 1.16959e-06 8.41635e-05 1.52152e-05 1.03186e-06 
60 2 1.07343e-06 9.65764e-05 1.50585e-05 1.08817e-06 
183 1 1.40522e-06 4.19297e-06 1.55633e-05 1.34865e-06 
138 1 1.20987e-06 1.47869e-05 1.55734e-05 1.38913e-06 
155 1 1.23738e-06 3.46681e-05 1.55182e-05 1.48613e-06 
223 1 1.23377e-06 6.5676e-05 1.57557e-05 1.0938e-06 
198 1 1.36392e-06 4.56844e-06 2.39703e-05 1.15809e-06 
268 1 1.18024e-06 3.41016e-05 2.37966e-05 1.17011e-06 
255 1 1.19902e-06 2.38131e-05 2.43512e-05 1.32192e-06 
26 1 1.37947e-06 5.47339e-05 2.42414e-05 1.2782e-06 
112 1 1.41767e-06 9.44134e-05 2.44168e-05 1.35401e-06 
63 2 1.07343e-06 2.63701e-05 2.4988e-05 1.12481e-06 
64 2 1.07343e-06 3.61942e-05 2.49931e-05 1.03275e-06 
70 2 1.07343e-06 9.64697e-05 2.47566e-05 1.20208e-06 
61 2 1.07343e-06 6.11348e-06 2.5e-05 1e-06 
205 1 1.2258e-06 1.52069e-05 2.50889e-05 1.41105e-06 
206 1 1.31743e-06 2.42536e-05 2.50992e-05 1.0482e-06 
67 2 1.07343e-06 6.62e-05 2.5e-05 1e-06 
281 1 1.10101e-06 8.49011e-05 2.51246e-05 1.48169e-06 
69 2 1.07343e-06 8.63208e-05 2.51756e-05 1.10033e-06 
258 1 1.16836e-06 1.46452e-05 2.59784e-05 1.1307e-06 
108 1 1.32945e-06 5.57786e-05 2.55917e-05 1.43356e-06 
144 1 1.30764e-06 6.53108e-05 2.55315e-05 1.33506e-06 
280 1 1.14936e-06 7.56554e-05 2.56386e-05 1.31183e-06 
257 1 1.15972e-06 9.55413e-05 2.5623e-05 1.11733e-06 
29 1 1.16154e-06 8.50745e-05 2.61909e-05 1.3282e-06 
208 1 1.21127e-06 3.91897e-06 3.35547e-05 1.03924e-06 
117 1 1.33977e-06 4.5321e-05 3.42313e-05 1.32728e-06 
119 1 1.35487e-06 6.38823e-05 3.44695e-05 1.45209e-06 
72 2 1.07343e-06 1.63262e-05 3.49178e-05 1.12568e-06 
170 1 1.15692e-06 9.42549e-05 3.48989e-05 1.43775e-06 
73 2 1.07343e-06 2.63906e-05 3.50277e-05 1.05907e-06 
75 2 1.07343e-06 4.63607e-05 3.50082e-05 1.01095e-06 
261 1 1.19227e-06 5.40243e-05 3.54743e-05 1.00987e-06 
78 2 1.07343e-06 7.62e-05 3.5e-05 1e-06 
82 4 1e-08 8.8e-05 3.5e-05 1e-06 
272 1 1.17236e-06 9.327e-05 3.53746e-05 1.18176e-06 
80 2 1.07343e-06 9.62e-05 3.5e-05 1e-06 
81 3 1e-08 9.8e-05 3.5e-05 1e-06 
114 1 1.23379e-06 1.40245e-05 3.57925e-05 1.40134e-06 
116 1 1.16216e-06 3.51356e-05 3.57709e-05 1.24398e-06 
37 1 1.14487e-06 6.56152e-05 3.59253e-05 1.06466e-06 
264 1 1.12033e-06 5.45393e-06 3.62774e-05 1.04582e-06 
158 1 1.2282e-06 2.49278e-05 3.61193e-05 1.34482e-06 
273 1 1.14184e-06 3.43857e-05 3.6577e-05 1.09394e-06 
228 1 1.14402e-06 7.53202e-05 3.68116e-05 1.42916e-06 
195 1 1.33446e-06 1.51966e-05 3.82189e-06 1.52545e-06 
265 1 1.10076e-06 3.48785e-05 3.51951e-06 1.82557e-06 
6 1 1.37563e-06 5.4732e-05 3.82844e-06 1.58751e-06 
92 1 1.32527e-06 9.46097e-05 4.28351e-06 1.97801e-06 
83 1 1.2126e-06 3.6979e-06 4.78016e-06 1.67367e-06 
3 1 1.33562e-06 2.38017e-05 4.7681e-06 1.71213e-06 
275 1 1.10829e-06 2.54088e-05 4.86107e-06 1.53412e-06 
7 1 1.35964e-06 6.40966e-05 4.63111e-06 1.98265e-06 
89 1 1.39853e-06 6.5446e-05 5.17132e-06 1.74471e-06 
238 1 1.15645e-06 9.38195e-05 5.04208e-06 1.78695e-06 
84 1 1.21148e-06 1.43541e-05 5.84382e-06 1.87068e-06 
187 1 1.40839e-06 4.52333e-05 5.58913e-06 1.82451e-06 
283 1 1.19866e-06 5.85835e-06 6.23757e-06 1.71962e-06 
217 1 1.14796e-06 2.45836e-05 6.25337e-06 1.71003e-06 
172 1 1.20832e-06 6.56875e-05 6.41371e-06 1.54468e-06 
219 1 1.18742e-06 7.42901e-05 6.43286e-06 1.67488e-06 
188 1 1.41643e-06 5.49976e-05 1.44826e-05 1.89842e-06 
17 1 1.27438e-06 6.3885e-05 1.44889e-05 1.9694e-06 
164 1 1.39646e-06 9.52715e-05 1.43501e-05 1.75877e-06 
284 1 1.20046e-06 4.32222e-06 1.46903e-05 1.87516e-06 
221 1 1.24723e-06 6.51451e-05 1.46729e-05 1.79338e-06 
18 1 1.34611e-06 7.52266e-05 1.48059e-05 1.5473e-06 
231 1 1.19501e-06 9.33604e-05 1.49926e-05 1.83937e-06 
277 1 1.21377e-06 3.50238e-05 1.50357e-05 1.64817e-06 
97 1 1.17246e-06 4.4091e-05 1.54553e-05 1.62043e-06 
19 1 1.38155e-06 8.47763e-05 1.54745e-05 1.96239e-06 
244 1 1.22236e-06 7.38673e-05 1.5689e-05 1.86256e-06 
210 1 1.20303e-06 5.49364e-05 1.60468e-05 1.69413e-06 
22 1 1.36892e-06 1.45911e-05 2.39195e-05 1.59429e-06 
232 1 1.25716e-06 4.50107e-05 2.3616e-05 1.60963e-06 
191 1 1.35165e-06 6.4307e-05 2.39698e-05 1.56659e-06 
21 1 1.39163e-06 5.33127e-06 2.43379e-05 1.95095e-06 
28 1 1.13193e-06 7.42795e-05 2.43083e-05 1.62788e-06 
211 1 1.31079e-06 8.41162e-05 2.4191e-05 1.93218e-06 
24 1 1.09904e-06 3.39727e-05 2.47914e-05 1.6197e-06 
173 1 1.34521e-06 4.53036e-05 2.49522e-05 1.79665e-06 
226 1 1.19066e-06 4.47509e-06 2.52228e-05 1.75192e-06 
192 1 1.33098e-06 2.5032e-05 2.54257e-05 1.90778e-06 
269 1 1.19002e-06 4.36208e-05 2.54198e-05 1.94907e-06 
178 1 1.31986e-06 7.44312e-05 2.54337e-05 1.79417e-06 
270 1 1.18937e-06 4.96085e-06 2.64688e-05 1.53083e-06 
140 1 1.19286e-06 3.53604e-05 2.62822e-05 1.59153e-06 
31 1 1.14097e-06 5.92619e-06 3.39082e-05 1.55164e-06 
120 1 1.41773e-06 7.40116e-05 3.3948e-05 1.62762e-06 
132 1 1.17464e-06 1.47548e-05 3.44372e-05 1.93676e-06 
271 1 1.19646e-06 5.4635e-05 3.41053e-05 1.93067e-06 
145 1 1.15537e-06 8.60662e-05 3.41403e-05 1.5298e-06 
282 1 1.12218e-06 5.09901e-06 3.45373e-05 1.885e-06 
234 1 1.24941e-06 3.51723e-05 3.45802e-05 1.97381e-06 
36 1 1.33488e-06 5.55069e-05 3.49858e-05 1.91482e-06 
171 1 1.38857e-06 6.52905e-05 3.46715e-05 1.72795e-06 
233 1 1.21432e-06 8.49653e-05 3.45016e-05 1.62939e-06 
174 1 1.35353e-06 9.49614e-05 3.4999e-05 1.97329e-06 
113 1 1.26819e-06 4.57464e-06 3.52921e-05 1.60645e-06 
184 1 1.34349e-06 3.39962e-05 3.51776e-05 1.81608e-06 
236 1 1.22162e-06 7.4711e-05 3.50563e-05 1.72312e-06 
40 1 1.20519e-06 9.58121e-05 3.58965e-05 1.63029e-06 
274 1 1.06816e-06 4.49013e-05 4.30801e-06 2.46797e-06 
242 1 1.17258e-06 8.4964e-05 4.37287e-06 2.18532e-06 
287 1 1.11155e-06 3.43416e-05 4.77669e-06 2.00091e-06 
2 1 1.37098e-06 1.52366e-05 5.00828e-06 2.1117e-06 
276 1 1.10958e-06 3.52517e-05 5.2721e-06 2.24249e-06 
147 1 1.37071e-06 7.43972e-05 5.13691e-06 2.12669e-06 
9 1 1.21785e-06 8.47032e-05 5.47169e-06 2.07595e-06 
176 1 1.24171e-06 9.45883e-05 5.72837e-06 2.14651e-06 
101 1 1.22778e-06 8.46897e-05 1.33612e-05 2.19487e-06 
93 1 1.10999e-06 5.23996e-06 1.42775e-05 2.35358e-06 
14 1 1.1029e-06 3.48725e-05 1.41327e-05 2.28835e-06 
12 1 1.13085e-06 1.48649e-05 1.4638e-05 2.11753e-06 
13 1 1.18611e-06 2.41871e-05 1.49839e-05 2.42187e-06 
130 1 1.22468e-06 7.39612e-05 1.46587e-05 2.46092e-06 
278 1 1.18346e-06 4.55767e-05 1.51105e-05 2.24596e-06 
243 1 1.24493e-06 2.51667e-05 1.561e-05 2.28491e-06 
199 1 1.32774e-06 5.4683e-05 2.43502e-05 2.37929e-06 
279 1 1.17848e-06 7.3302e-05 2.41439e-05 2.13668e-06 
200 1 1.32896e-06 3.46729e-05 2.50725e-05 2.17573e-06 
245 1 1.1613e-06 9.52848e-05 2.53766e-05 2.42303e-06 
110 1 1.15314e-06 7.60744e-05 2.58296e-05 2.32225e-06 
201 1 1.35237e-06 4.48457e-05 3.46523e-05 2.24364e-06 
286 1 1.16628e-06 8.40219e-05 3.5655e-05 2.08376e-06 
175 1 1.11447e-06 8.50691e-05 3.59901e-05 2.11124e-06 
241 1 1.19887e-06 2.40951e-05 3.60666e-05 2.03345e-06 
196 1 1.15937e-06 2.516e-05 4.48275e-06 2.52958e-06 
1 1 1.0576e-06 5.38066e-06 5.88254e-06 2.63053e-06 
285 1 1.2003e-06 1.40745e-05 1.50685e-05 2.79126e-06 
240 1 1.21412e-06 3.43323e-05 1.59001e-05 2.50042e-06 
156 1 1.22693e-06 9.43735e-05 2.47691e-05 2.70969e-06 
202 1 1.32825e-06 8.45115e-05 2.5005e-05 2.6841e-06 
212 1 1.199e-06 5.52977e-05 2.55358e-05 2.52232e-06 
246 1 1.27258e-06 1.4187e-05 3.42489e-05 2.83217e-06 
33 1 1.40489e-06 2.47712e-05 3.53492e-05 2.82828e-06 
157 1 1.17219e-06 6.43872e-05 3.5084e-05 2.61244e-06 
153 1 1.21051e-06 3.41151e-05 4.60111e-06 3.08344e-06 
247 1 1.26436e-06 6.36426e-05 3.43468e-05 3.21267e-06 
ITEM: TIMESTEP
3000
ITEM: NUMBER OF ATOMS
844
ITEM: BOX BOUNDS ff ff ff
0.0000000000000000e+00 1.3600000000000000e-04
0.0000000000000000e+00 1.3600000000000000e-04
0.0000000000000000e+00 1.3600000000000000e-04
ITEM: ATOMS id type diameter x y z 
653 1 1.17405e-06 2.30288e-05 4.74899e-06 4.89294e-07 
651 1 1.26153e-06 1.49947e-05 2.39816e-06 8.98548e-07 
414 1 1.39652e-06 7.59114e-05 2.67399e-06 7.15511e-07 
342 1 1.21204e-06 1.46266e-05 3.49027e-06 7.20138e-07 
415 1 1.18084e-06 3.5966e-05 3.33034e-06 7.81476e-07 
133 1 1.30149e-06 4.42106e-05 3.0624e-06 7.91762e-07 
288 1 1.33775e-06 7.36229e-05 3.44924e-06 7.1073e-07 
628 1 1.17172e-06 7.4948e-05 3.45591e-06 6.28253e-07 
249 1 1.28535e-06 3.13442e-06 3.74492e-06 6.34862e-07 
486 1 1.11357e-06 4.19088e-06 3.59863e-06 5.34355e-07 
134 1 1.34355e-06 5.52142e-06 4.42994e-06 6.23145e-07 
136 1 1.26123e-06 2.54639e-05 4.31921e-06 5.8205e-07 
86 1 1.38074e-06 3.43693e-05 4.00549e-06 7.07833e-07 
325 1 1.22578e-06 4.46898e-05 4.05026e-06 9.17972e-07 
186 1 1.28739e-06 5.451e-05 4.11155e-06 6.80269e-07 
485 1 1.30775e-06 6.34496e-05 4.04607e-06 5.8148e-07 
583 1 1.30349e-06 6.55589e-05 4.21297e-06 7.29699e-07 
746 1 1.17478e-06 7.64464e-05 4.21714e-06 5.63728e-07 
417 1 1.12703e-06 9.55211e-05 4.02262e-06 5.40814e-07 
135 1 1.36197e-06 1.37852e-05 4.8363e-06 6.29458e-07 
749 1 1.13074e-06 2.44256e-05 4.91035e-06 5.42593e-07 
43 2 1.11214e-06 2.70331e-05 4.69564e-06 9.94521e-07 
44 2 1.11214e-06 3.66281e-05 4.86203e-06 9.20816e-07 
45 2 1.11214e-06 4.61367e-05 4.91418e-06 9.64107e-07 
750 1 1.20392e-06 5.54746e-05 4.99479e-06 6.00412e-07 
748 1 1.19963e-06 8.43032e-05 4.52301e-06 5.75652e-07 
418 1 1.33933e-06 3.31444e-06 5.13992e-06 6.88637e-07 
41 2 1.11214e-06 6.34837e-06 5.02902e-06 9.70626e-07 
214 1 1.28615e-06 1.50332e-05 5.35711e-06 6.0232e-07 
42 2 1.11214e-06 1.63267e-05 5.0083e-06 9.13142e-07 
683 1 1.17108e-06 4.42809e-05 5.04509e-06 6.06271e-07 
160 1 1.19134e-06 6.37521e-05 5.40234e-06 9.73888e-07 
7 1 1.2996e-06 6.46956e-05 5.1231e-06 5.64891e-07 
489 1 1.3299e-06 6.5931e-05 5.40185e-06 6.15394e-07 
90 1 1.34657e-06 7.40593e-05 5.06442e-06 7.01328e-07 
48 2 1.11214e-06 7.62679e-05 5.31161e-06 9.55919e-07 
162 1 1.32741e-06 8.55327e-05 5.08169e-06 5.9579e-07 
421 1 1.33206e-06 9.44266e-05 5.07064e-06 6.34795e-07 
490 1 1.40648e-06 9.58785e-05 5.43851e-06 7.40114e-07 
419 1 1.35596e-06 2.6031e-05 5.51365e-06 7.08511e-07 
560 1 1.31026e-06 3.47437e-05 5.52684e-06 6.02427e-07 
784 1 1.21141e-06 3.5868e-05 5.63263e-06 5.81304e-07 
584 1 1.21688e-06 5.26938e-05 5.5709e-06 6.43426e-07 
420 1 1.08527e-06 5.46603e-05 5.69147e-06 8.6557e-07 
751 1 1.07872e-06 6.28493e-05 5.59192e-06 5.17634e-07 
514 1 1.32616e-06 8.35136e-05 5.74545e-06 7.67005e-07 
684 1 1.14338e-06 9.30897e-05 5.54032e-06 5.22984e-07 
685 1 1.18551e-06 4.1103e-06 6.0548e-06 8.09124e-07 
197 1 1.19679e-06 5.2856e-06 6.25714e-06 6.22114e-07 
266 1 1.32883e-06 1.3848e-05 6.10146e-06 5.98382e-07 
360 1 1.11262e-06 2.3049e-05 6.07916e-06 5.33901e-07 
686 1 1.19215e-06 4.32024e-05 6.22766e-06 5.49867e-07 
654 1 1.31521e-06 4.50614e-05 6.03149e-06 6.89098e-07 
655 1 1.28869e-06 4.63287e-05 6.18675e-06 7.73385e-07 
785 1 1.17619e-06 6.50683e-05 6.29918e-06 7.36514e-07 
379 1 1.41244e-06 7.51129e-05 6.14727e-06 7.3509e-07 
559 1 1.27086e-06 8.65419e-05 6.04466e-06 7.76601e-07 
289 1 1.32287e-06 9.49896e-05 6.33383e-06 6.93165e-07 
753 1 1.16057e-06 5.28477e-05 6.72342e-06 6.93744e-07 
371 1 1.12477e-06 5.39357e-05 6.88712e-06 7.58928e-07 
123 1 1.37551e-06 5.49172e-05 6.7199e-06 7.01996e-07 
10 1 1.31389e-06 9.65728e-05 6.53523e-06 6.60156e-07 
491 1 1.36687e-06 1.45459e-05 7.23064e-06 7.78901e-07 
629 1 1.28962e-06 2.44591e-05 7.26384e-06 6.21967e-07 
96 1 1.27491e-06 3.55537e-05 1.2712e-05 9.45333e-07 
239 1 1.41206e-06 8.40725e-05 1.29856e-05 7.18601e-07 
220 1 1.37602e-06 4.16811e-06 1.30572e-05 9.2818e-07 
493 1 1.37036e-06 4.30289e-05 1.30628e-05 8.77265e-07 
181 1 1.23155e-06 7.52166e-05 1.30098e-05 8.14632e-07 
229 1 1.18691e-06 2.33751e-05 1.35614e-05 5.69546e-07 
755 1 1.17949e-06 2.54129e-05 1.37707e-05 5.6599e-07 
630 1 1.27719e-06 3.62112e-05 1.37522e-05 6.2056e-07 
757 1 1.12554e-06 4.46189e-05 1.35298e-05 8.07077e-07 
165 1 1.36072e-06 4.56309e-05 1.35653e-05 6.96735e-07 
687 1 1.21436e-06 5.42502e-05 1.39343e-05 6.35194e-07 
20 1 1.31416e-06 9.3875e-05 1.37691e-05 7.91071e-07 
423 1 1.41392e-06 3.6694e-06 1.43975e-05 6.41305e-07 
562 1 1.30171e-06 1.45198e-05 1.44197e-05 5.51696e-07 
756 1 1.23495e-06 3.37314e-05 1.43046e-05 5.92602e-07 
149 1 1.34198e-06 4.25588e-05 1.43807e-05 6.21152e-07 
230 1 1.14683e-06 4.38579e-05 1.42942e-05 6.13531e-07 
495 1 1.35239e-06 7.41308e-05 1.43371e-05 7.05488e-07 
561 1 1.40085e-06 7.57703e-05 1.40226e-05 6.5596e-07 
137 1 1.32424e-06 8.47692e-05 1.4452e-05 6.83999e-07 
148 1 1.40412e-06 5.30434e-06 1.45302e-05 6.85919e-07 
633 1 1.29606e-06 2.42808e-05 1.45617e-05 7.06626e-07 