ITEM: TIMESTEP
0
ITEM: NUMBER OF ATOMS
5
ITEM: BOX BOUNDS ff ff ff
0 0.0001
0 0.0001
0 0.0001
ITEM: ATOMS id type diameter x y z vx vy vz fx fy fz 
2 2 1.2839e-06 5e-05 4.9e-05 2e-06 0 0 0 -7.678e-05 0 0 
5 5 1.4839e-06 5.1e-05 4.9e-05 2e-06 0 0 0 7.678e-05 -5.122e-05 0 
4 4 1.0539e-06 4.9e-05 5e-05 2e-06 0 0 0 0 0 0 
3 3 1.0283e-06 5.1e-05 5e-05 2e-06 0 0 0 0 5.122e-05 0 
1 1 1.0839e-06 5e-05 5.1e-05 2e-06 0 0 0 0 0 0 
ITEM: TIMESTEP
500
ITEM: NUMBER OF ATOMS
6
ITEM: BOX BOUNDS ff ff ff
0 0.0001
0 0.0001
0 0.0001
ITEM: ATOMS id type diameter x y z vx vy vz fx fy fz 
2 2 1.35581e-06 4.97002e-05 5.37074e-05 2e-06 0 1e-09 0 0 7.66695e-12 0 
5 5 1.4839e-06 5.12791e-05 5.36191e-05 2e-06 0 1e-09 0 0 8.39126e-12 0 
4 4 1.05045e-06 4.9e-05 5.49e-05 2e-06 0 1e-09 0 0 5.94015e-12 0 
3 3 1.07736e-06 5.09757e-05 5.49893e-05 2e-06 0 1e-09 0 0 6.09232e-12 0 
1 1 1.22057e-06 5e-05 5.59e-05 2e-06 0 1e-09 0 0 6.90218e-12 0 
6 4 9.07185e-07 4.99096e-05 5.68556e-05 2.55415e-06 0 1e-09 0 0 6.5514e-12 0 
ITEM: TIMESTEP
1000
ITEM: NUMBER OF ATOMS
8
ITEM: BOX BOUNDS ff ff ff
0 0.0001
0 0.0001
0 0.0001
ITEM: ATOMS id type diameter x y z vx vy vz fx fy fz 
2 2 1.05921e-06 4.98081e-05 5.8233e-05 1.57528e-06 0 1e-09 0 0 4.71772e-12 0 
5 5 1.4839e-06 5.1283e-05 5.85795e-05 1.99997e-06 1.6924e-81 1e-09 -1.11196e-83 0 8.39115e-12 0 
4 4 1.04701e-06 4.89506e-05 5.98768e-05 1.96539e-06 0 1e-09 0 0 5.81823e-12 0 
3 3 1.12876e-06 5.10185e-05 5.98913e-05 2.00171e-06 -1.08073e-82 1e-09 7.1007e-85 0 6.38843e-12 0 
1 1 1.37448e-06 4.99434e-05 6.07398e-05 1.96275e-06 -3.30957e-81 1e-09 -1.19407e-82 0 7.62777e-12 0 
6 4 9.04215e-07 4.99038e-05 6.1846e-05 2.58915e-06 0 1e-09 0 0 6.61943e-12 0 
7 2 1.2043e-06 4.9585e-05 5.90511e-05 2.47875e-06 0 1e-09 0 0 8.44036e-12 0 
8 4 9.86742e-07 4.94848e-05 6.17285e-05 1.2796e-06 0 1e-09 0 0 3.57001e-12 0 
ITEM: TIMESTEP
1500
ITEM: NUMBER OF ATOMS
9
ITEM: BOX BOUNDS ff ff ff
0 0.0001
0 0.0001
0 0.0001
ITEM: ATOMS id type diameter x y z vx vy vz fx fy fz 
1 1 1.20586e-06 5.01185e-05 6.52825e-05 1.31922e-06 0 1e-09 0 0 4.49783e-12 0 
8 4 9.83512e-07 4.94848e-05 6.67285e-05 1.2796e-06 0 1e-09 0 0 3.55832e-12 0 
2 2 1.11854e-06 4.98081e-05 6.3233e-05 1.57528e-06 0 1e-09 0 0 4.98197e-12 0 
5 5 1.4839e-06 5.1383e-05 6.34795e-05 1.99711e-06 0 1e-09 0 0 8.37914e-12 0 
4 4 1.04358e-06 4.89506e-05 6.48768e-05 1.96539e-06 0 1e-09 0 0 5.79918e-12 0 
7 2 1.27176e-06 4.9585e-05 6.40511e-05 2.47875e-06 0 1e-09 0 0 8.91313e-12 0 
3 3 1.18261e-06 5.09941e-05 6.47609e-05 2.03198e-06 0 1e-09 0 0 6.79441e-12 0 
9 1 1.25031e-06 4.96825e-05 6.56334e-05 2.57554e-06 0 1e-09 0 0 9.105e-12 0 
6 4 9.01254e-07 4.99475e-05 6.68317e-05 2.61102e-06 0 1e-09 0 0 6.65349e-12 0 
ITEM: TIMESTEP
2000
ITEM: NUMBER OF ATOMS
11
ITEM: BOX BOUNDS ff ff ff
0 0.0001
0 0.0001
0 0.0001
ITEM: ATOMS id type diameter x y z vx vy vz fx fy fz 
1 1 1.35791e-06 5.00837e-05 7.02537e-05 1.29026e-06 0 1e-09 0 0 4.95382e-12 0 
8 4 9.80292e-07 4.94848e-05 7.17285e-05 1.2796e-06 0 1e-09 0 0 3.54667e-12 0 
2 2 1.18119e-06 4.97701e-05 6.80628e-05 1.59005e-06 0 1e-09 0 0 5.31033e-12 0 
5 5 1.4839e-06 5.14004e-05 6.83621e-05 1.99555e-06 0 1e-09 0 0 8.37259e-12 0 
4 4 1.04017e-06 4.88729e-05 6.97769e-05 1.90248e-06 0 1e-09 0 0 5.59518e-12 0 
7 2 1.34299e-06 4.96627e-05 6.89512e-05 2.54166e-06 0 1e-09 0 0 9.65125e-12 0 
3 3 1.23903e-06 5.10115e-05 6.9687e-05 2.06249e-06 0 1e-09 0 0 7.22546e-12 0 
9 1 1.40797e-06 4.96825e-05 7.06334e-05 2.57554e-06 0 1e-09 0 0 1.02531e-11 0 
6 4 8.98304e-07 4.99475e-05 7.18317e-05 2.61102e-06 0 1e-09 0 0 6.6317e-12 0 
10 4 9.33059e-07 5.02577e-05 6.90924e-05 1.40061e-06 0 1e-09 0 0 3.69504e-12 0 
11 4 9.71209e-07 5.01533e-05 7.02325e-05 3.64289e-06 0 1e-09 0 0 1.00035e-11 0 
ITEM: TIMESTEP
2500
ITEM: NUMBER OF ATOMS
16
ITEM: BOX BOUNDS ff ff ff
0 0.0001
0 0.0001
0 0.0001
ITEM: ATOMS id type diameter x y z vx vy vz fx fy fz 
10 4 9.30005e-07 5.0652e-05 7.18403e-05 2.40835e-06 4.89463e-26 1e-09 3.14885e-25 0 6.33281e-12 0 
1 1 1.13523e-06 4.99171e-05 7.48219e-05 1.75438e-06 8.4958e-25 1e-09 -9.44677e-25 0 5.63119e-12 0 
8 4 9.77082e-07 4.94848e-05 7.67285e-05 1.2796e-06 0 1e-09 0 0 3.53506e-12 0 
2 2 1.24735e-06 4.93749e-05 7.20143e-05 1.64715e-06 -1.22806e-52 1e-09 2.51011e-53 0 5.80916e-12 0 
5 5 1.4839e-06 5.17815e-05 7.27292e-05 2.12257e-06 5.17448e-24 1e-09 2.4361e-24 0 8.90553e-12 0 
4 4 1.03676e-06 4.88037e-05 7.44751e-05 1.76819e-06 0 1e-09 0 0 5.18321e-12 0 
3 3 1.29814e-06 5.11842e-05 7.44433e-05 2.10827e-06 8.24811e-254 1e-09 2.17323e-254 0 7.73818e-12 0 
12 1 1.18352e-06 4.9169e-05 7.51309e-05 2.65893e-06 0 1e-09 0 0 8.89767e-12 0 
7 2 1.06289e-06 4.96595e-05 7.36457e-05 2.04087e-06 -6.40205e-25 1e-09 7.11866e-25 0 6.13333e-12 0 
9 1 1.32533e-06 5.03866e-05 7.57356e-05 2.64921e-06 7.24948e-25 1e-09 -3.08733e-24 0 9.92734e-12 0 
6 4 8.95363e-07 4.98184e-05 7.67251e-05 2.57348e-06 0 1e-09 0 0 6.51496e-12 0 
11 4 9.6803e-07 5.01336e-05 7.50817e-05 3.7267e-06 -5.4987e-26 1e-09 2.34172e-25 0 1.02001e-11 0 
13 1 1.28311e-06 5.05225e-05 7.2556e-05 1.52984e-06 3.30419e-10 2.57653e-15 9.43834e-10 7.11754e-07 5.55011e-12 2.03311e-06 
14 2 1.18208e-06 4.9578e-05 7.38089e-05 3.27136e-06 -8.52269e-289 1e-09 1.10652e-287 0 1.09337e-11 0 
15 4 9.14351e-07 4.9221e-05 7.52639e-05 1.12544e-06 0 1e-09 0 0 2.90956e-12 0 
16 4 9.33621e-07 5.01604e-05 7.26179e-05 4.95557e-07 -3.30419e-10 6.07283e-16 -9.43834e-10 -7.11754e-07 1.30815e-12 -2.03311e-06 
ITEM: TIMESTEP
3000
ITEM: NUMBER OF ATOMS
20
ITEM: BOX BOUNDS ff ff ff
0 0.0001
0 0.0001
0 0.0001
ITEM: ATOMS id type diameter x y z vx vy vz fx fy fz 
10 4 9.2696e-07 5.06794e-05 7.6578e-05 2.58444e-06 0 1e-09 0 0 6.77361e-12 0 
1 1 1.27838e-06 4.99928e-05 7.93682e-05 1.6556e-06 9.32514e-110 1e-09 -1.05616e-109 0 5.9842e-12 0 
8 4 9.73884e-07 4.94848e-05 8.17285e-05 1.2796e-06 0 1e-09 0 0 3.52348e-12 0 
2 2 1.31722e-06 4.92295e-05 7.68444e-05 1.6583e-06 0 1e-09 0 0 6.17608e-12 0 
5 5 1.4839e-06 5.18882e-05 7.76335e-05 2.17169e-06 0 1e-09 0 0 9.11159e-12 0 
4 4 1.03337e-06 4.8774e-05 7.94405e-05 1.76831e-06 0 1e-09 0 0 5.1666e-12 0 
3 3 1.36007e-06 5.12807e-05 7.93434e-05 2.13448e-06 0 1e-09 0 0 8.20816e-12 0 
12 1 1.33276e-06 4.9169e-05 8.01309e-05 2.65893e-06 0 1e-09 0 0 1.00196e-11 0 
7 2 1.12242e-06 4.95569e-05 7.82748e-05 2.14926e-06 -2.50427e-111 1e-09 2.83632e-111 0 6.82084e-12 0 
9 1 1.1443e-06 5.06749e-05 8.05664e-05 3.21419e-06 0 1e-09 0 0 1.03993e-11 0 
6 4 8.92431e-07 4.97193e-05 8.16251e-05 2.56026e-06 0 1e-09 0 0 6.46029e-12 0 
11 4 9.6486e-07 5.00295e-05 7.97707e-05 3.82522e-06 0 1e-09 0 0 1.04355e-11 0 
13 1 1.13243e-06 5.056e-05 7.66594e-05 1.12493e-06 0 1e-09 0 0 3.60187e-12 0 
14 2 1.24829e-06 4.9834e-05 7.84287e-05 3.37032e-06 0 1e-09 0 0 1.18954e-11 0 
15 4 9.11357e-07 4.9174e-05 8.02238e-05 1.08299e-06 0 1e-09 0 0 2.79065e-12 0 
16 4 9.30564e-07 5.01065e-05 7.73335e-05 4.73653e-07 0 1e-09 0 0 1.24623e-12 0 
17 4 1.02375e-06 4.88058e-05 7.88103e-05 2.97287e-06 0 1e-09 0 0 8.60524e-12 0 
18 4 1.01947e-06 5.15038e-05 8.08133e-05 1.8426e-06 0 1e-09 0 0 5.31126e-12 0 
19 1 1.22224e-06 5.03922e-05 8.06263e-05 2.0033e-06 1.19129e-139 1e-09 6.97825e-140 0 6.92303e-12 0 
20 1 1.16085e-06 5.05288e-05 7.75596e-05 2.16539e-06 0 1e-09 0 0 7.10733e-12 0 
ITEM: TIMESTEP
3500
ITEM: NUMBER OF ATOMS
28
ITEM: BOX BOUNDS ff ff ff
0 0.0001
0 0.0001
0 0.0001
ITEM: ATOMS id type diameter x y z vx vy vz fx fy fz 
16 4 9.27518e-07 5.01089e-05 8.227e-05 4.95885e-07 0 1e-09 0 0 1.30045e-12 0 
13 1 1.27522e-06 5.05926e-05 8.13688e-05 1.06716e-06 7.95191e-166 1e-09 -1.23081e-164 0 3.84774e-12 0 
15 4 9.08373e-07 4.90854e-05 8.51932e-05 1.05333e-06 -4.2681e-266 1e-09 -1.41659e-266 0 2.70533e-12 0 
8 4 9.70695e-07 4.94848e-05 8.67285e-05 1.2796e-06 0 1e-09 0 0 3.51195e-12 0 
2 2 1.0562e-06 4.9307e-05 8.17414e-05 1.07794e-06 -2.87829e-138 1e-09 -5.90844e-138 0 3.21908e-12 0 
4 4 1.02998e-06 4.85674e-05 8.4018e-05 1.72062e-06 -1.2289e-284 1e-09 6.48003e-285 0 5.0108e-12 0 
1 1 1.20493e-06 4.96214e-05 8.41278e-05 1.22196e-06 3.14328e-10 1.28024e-13 -9.49314e-10 1.02213e-08 4.16305e-12 -3.08697e-08 
18 4 1.01613e-06 5.16091e-05 8.57294e-05 1.82679e-06 0 1e-09 0 0 5.24846e-12 0 
20 1 1.30723e-06 5.0516e-05 8.19765e-05 2.21908e-06 -1.43701e-168 1e-09 -3.36275e-168 0 8.20197e-12 0 
5 5 1.4839e-06 5.19676e-05 8.25621e-05 2.17412e-06 0 1e-09 0 0 9.1218e-12 0 
7 2 1.18529e-06 4.93006e-05 8.23099e-05 2.66134e-06 1.13977e-111 1e-09 1.41635e-111 0 8.91906e-12 0 
3 3 1.1733e-06 5.12354e-05 8.40545e-05 1.55681e-06 1.44197e-224 1e-09 -4.78387e-225 0 5.16459e-12 0 
19 1 1.37636e-06 5.05208e-05 8.51789e-05 1.94669e-06 9.83422e-225 1e-09 -4.83273e-224 0 7.5757e-12 0 
10 4 9.23925e-07 5.07278e-05 8.0991e-05 2.71475e-06 1.79273e-180 1e-09 4.19517e-180 0 7.09184e-12 0 
17 4 1.0204e-06 4.87297e-05 8.36009e-05 2.91333e-06 -1.00524e-272 1e-09 -6.63624e-272 0 8.40529e-12 0 
12 1 1.20364e-06 4.88095e-05 8.4695e-05 3.44017e-06 8.7831e-260 1e-09 5.79829e-259 0 1.17077e-11 0 
6 4 8.8951e-07 4.94649e-05 8.64473e-05 2.48409e-06 -1.51167e-241 1e-09 -4.47754e-242 0 6.24755e-12 0 
14 2 1.31821e-06 4.99052e-05 8.3325e-05 3.39819e-06 0 1e-09 0 0 1.26656e-11 0 
9 1 1.28859e-06 5.08388e-05 8.51663e-05 3.33626e-06 2.38835e-228 1e-09 -1.46098e-228 0 1.21554e-11 0 
11 4 9.61701e-07 4.99341e-05 8.4552e-05 3.8897e-06 -1.58551e-243 1e-09 9.69875e-244 0 1.05767e-11 0 
21 3 1.08525e-06 5.16413e-05 8.37629e-05 2.69931e-06 1.13991e-258 1e-09 2.67459e-258 0 8.2828e-12 0 
22 1 1.17848e-06 4.92918e-05 8.46936e-05 2.21744e-06 -3.14328e-10 2.27219e-13 9.49314e-10 -1.02213e-08 7.38869e-12 3.08697e-08 
23 2 1.14805e-06 4.88806e-05 8.12485e-05 2.13946e-06 -3.35951e-111 1e-09 -4.17473e-111 0 6.94477e-12 0 
24 1 1.07258e-06 5.05551e-05 8.31933e-05 1.83047e-06 2.31738e-170 1e-09 -2.42971e-169 0 5.55118e-12 0 
25 4 1.04959e-06 4.96892e-05 8.0751e-05 1.55068e-06 1.1589e-266 1e-09 -1.03596e-266 0 4.60187e-12 0 
26 4 1.00453e-06 4.95467e-05 8.27081e-05 1.5402e-06 1.57547e-146 1e-09 -5.32255e-146 0 4.37454e-12 0 
27 4 1.01852e-06 5.09693e-05 8.49557e-05 7.76342e-07 0 1e-09 0 0 2.23572e-12 0 
28 4 1.0019e-06 5.03622e-05 8.61006e-05 2.72611e-06 -1.97697e-241 1e-09 9.71521e-241 0 7.72256e-12 0 
ITEM: TIMESTEP
4000
ITEM: NUMBER OF ATOMS
36
ITEM: BOX BOUNDS ff ff ff
0 0.0001
0 0.0001
0 0.0001
ITEM: ATOMS id type diameter x y z vx vy vz fx fy fz 
16 4 9.24481e-07 5.01066e-05 8.69185e-05 4.75103e-07 0 1e-09 0 0 1.24188e-12 0 
13 1 1.17374e-06 5.07728e-05 8.56583e-05 1.68956e-06 0 1e-09 0 0 5.60709e-12 0 
15 4 9.05399e-07 4.91029e-05 9.01304e-05 1.18957e-06 0 1e-09 0 0 3.04525e-12 0 
8 4 9.67517e-07 4.94848e-05 9.17285e-05 1.2796e-06 0 1e-09 0 0 3.50045e-12 0 
2 2 1.11536e-06 4.92328e-05 8.6606e-05 1.055e-06 0 1e-09 0 0 3.32707e-12 0 
4 4 1.02661e-06 4.84227e-05 8.867e-05 1.61549e-06 -5.51001e-111 1e-09 -4.04909e-111 0 4.68923e-12 0 
1 1 1.35687e-06 4.97435e-05 8.85659e-05 1.16069e-06 3.07201e-80 1e-09 2.56318e-80 0 4.45292e-12 0 
18 4 1.01281e-06 5.16091e-05 9.07294e-05 1.82679e-06 0 1e-09 0 0 5.23128e-12 0 
20 1 1.23503e-06 4.99382e-05 8.60045e-05 2.51267e-06 0 1e-09 0 0 8.77412e-12 0 
5 5 1.4839e-06 5.20247e-05 8.74311e-05 2.13438e-06 0 1e-09 0 0 8.95505e-12 0 
7 2 1.25169e-06 4.9223e-05 8.70921e-05 2.77726e-06 0 1e-09 0 0 9.82887e-12 0 
3 3 1.22927e-06 5.13949e-05 8.87427e-05 1.44323e-06 1.657e-166 1e-09 -1.50858e-166 0 5.01622e-12 0 
19 1 1.18448e-06 5.05146e-05 8.92437e-05 2.28245e-06 5.09019e-111 1e-09 2.4277e-112 0 7.64401e-12 0 
10 4 9.209e-07 5.07866e-05 8.54255e-05 2.84095e-06 0 1e-09 0 0 7.39722e-12 0 
17 4 1.01706e-06 4.83909e-05 8.80985e-05 2.85922e-06 -1.5655e-117 1e-09 -2.44206e-118 0 8.22216e-12 0 
12 1 1.35542e-06 4.87762e-05 8.96132e-05 3.52337e-06 0 1e-09 0 0 1.35028e-11 0 
6 4 8.86597e-07 4.94649e-05 9.14473e-05 2.48409e-06 0 1e-09 0 0 6.2271e-12 0 
14 2 1.39205e-06 5.01684e-05 8.76691e-05 3.60452e-06 1.26417e-111 1e-09 9.54445e-112 0 1.41871e-11 0 
9 1 1.20573e-06 5.08782e-05 8.90129e-05 3.46492e-06 0 1e-09 0 0 1.18123e-11 0 
11 4 9.58553e-07 4.98814e-05 8.94695e-05 3.9071e-06 0 1e-09 0 0 1.05892e-11 0 
21 3 1.13703e-06 5.16928e-05 8.86174e-05 2.67897e-06 0 1e-09 0 0 8.61256e-12 0 
22 1 1.32708e-06 4.92183e-05 8.93584e-05 2.22062e-06 -3.02973e-110 1e-09 -1.44499e-111 0 8.3323e-12 0 
23 2 1.21236e-06 4.87199e-05 8.60246e-05 2.0602e-06 0 1e-09 0 0 7.06208e-12 0 
24 1 1.20783e-06 5.06122e-05 8.78879e-05 1.86983e-06 0 1e-09 0 0 6.38559e-12 0 
25 4 1.04616e-06 4.9618e-05 8.54055e-05 1.41636e-06 0 1e-09 0 0 4.1895e-12 0 
26 4 1.00124e-06 4.93407e-05 8.75312e-05 1.66817e-06 0 1e-09 0 0 4.72249e-12 0 
27 4 1.01519e-06 5.11385e-05 8.95573e-05 5.92172e-07 0 1e-09 0 0 1.69976e-12 0 
28 4 9.98621e-07 5.03622e-05 9.11006e-05 2.72611e-06 0 1e-09 0 0 7.69727e-12 0 
29 1 1.27269e-06 5.02943e-05 9.00127e-05 1.2222e-06 0 1e-09 0 0 4.39803e-12 0 
30 4 1.01951e-06 4.90151e-05 8.93404e-05 5.52956e-07 -2.36567e-83 1e-09 -1.97383e-83 0 1.59395e-12 0 
31 4 1.01646e-06 4.80485e-05 8.92839e-05 2.5115e-06 0 1e-09 0 0 7.21796e-12 0 
32 4 9.8837e-07 4.94608e-05 8.85169e-05 3.02612e-06 7.05041e-118 1e-09 1.09982e-118 0 8.45665e-12 0 
33 4 8.78896e-07 5.01237e-05 8.68835e-05 1.42794e-06 0 1e-09 0 0 3.54847e-12 0 
34 1 1.10365e-06 5.07338e-05 8.40004e-05 5.45605e-07 0 1.36883e-15 1e-09 0 1.70256e-12 1.2438e-06 
35 1 1.09312e-06 5.11787e-05 8.63886e-05 2.48028e-06 0 1e-09 0 0 7.66585e-12 0 
36 1 1.09211e-06 5.10445e-05 9.03931e-05 3.96905e-06 0 1e-09 0 0 1.22559e-11 0 
ITEM: TIMESTEP
4500
ITEM: NUMBER OF ATOMS
50
ITEM: BOX BOUNDS ff ff ff
0 0.0001
0 0.0001
0 0.0001
ITEM: ATOMS id type diameter x y z vx vy vz fx fy fz 
16 4 9.21454e-07 5.00051e-05 8.96133e-05 4.82036e-07 3.68539e-25 1e-09 1.08564e-24 0 1.25587e-12 0 
34 1 1.24281e-06 5.05114e-05 8.39717e-05 1.5717e-06 -1.16723e-24 1e-09 5.31211e-24 0 5.52292e-12 0 
30 4 1.01617e-06 4.90151e-05 9.43404e-05 5.52956e-07 0 1e-09 0 0 1.58873e-12 0 
27 4 1.01187e-06 5.10644e-05 9.40533e-05 5.20946e-07 4.13374e-171 1e-09 2.99968e-171 0 1.49042e-12 0 
25 4 1.04273e-06 4.95566e-05 9.02083e-05 1.42878e-06 -5.04274e-25 1e-09 5.93592e-25 0 4.21241e-12 0 
2 2 1.17784e-06 4.90624e-05 9.13297e-05 1.04117e-06 -2.53578e-278 1e-09 9.3591e-279 0 3.46734e-12 0 
33 4 8.76018e-07 5.00912e-05 9.10724e-05 1.70045e-06 1.02222e-147 1e-09 5.38957e-148 0 4.21181e-12 0 
1 1 1.24013e-06 5.02484e-05 9.06597e-05 6.14521e-07 -2.93734e-10 1.8572e-15 9.55887e-10 -3.40795e-07 2.15475e-12 1.10903e-06 
3 3 1.28792e-06 5.16025e-05 9.28408e-05 1.45187e-06 1.46514e-52 1e-09 -1.69391e-52 0 5.28698e-12 0 
15 4 9.02435e-07 4.91029e-05 9.51304e-05 1.18957e-06 0 1e-09 0 0 3.03528e-12 0 
29 1 1.1191e-06 4.99999e-05 9.48185e-05 1.96457e-06 3.61038e-169 1e-09 -3.929e-169 0 6.21626e-12 0 
8 4 9.64349e-07 4.94848e-05 9.67285e-05 1.2796e-06 0 1e-09 0 0 3.48899e-12 0 
13 1 1.32174e-06 5.09667e-05 9.01544e-05 1.63616e-06 3.17003e-24 1e-09 4.49253e-24 0 6.11454e-12 0 
26 4 9.97963e-07 4.92758e-05 9.22309e-05 1.71836e-06 -3.3594e-86 1e-09 3.42265e-86 0 4.84866e-12 0 
24 1 1.36013e-06 5.04869e-05 9.21776e-05 1.73227e-06 2.75853e-166 1e-09 6.76794e-168 0 6.66175e-12 0 
4 4 1.02325e-06 4.81342e-05 9.28266e-05 1.13362e-06 -5.72341e-53 1e-09 -1.19755e-52 0 3.27976e-12 0 
18 4 1.00949e-06 5.16091e-05 9.57294e-05 1.82679e-06 0 1e-09 0 0 5.21415e-12 0 
23 2 1.28026e-06 4.85874e-05 9.06584e-05 1.99909e-06 -2.3226e-139 1e-09 -4.53859e-139 0 7.23641e-12 0 
35 1 1.23095e-06 5.11136e-05 9.11344e-05 2.54673e-06 2.908e-140 1e-09 -1.57039e-140 0 8.86375e-12 0 
5 5 1.4839e-06 5.22013e-05 9.15595e-05 1.80514e-06 1.65113e-24 1e-09 -4.21258e-24 0 7.57371e-12 0 
22 1 1.25429e-06 4.86297e-05 9.30465e-05 2.17037e-06 2.73984e-53 1e-09 5.73276e-53 0 7.69706e-12 0 
19 1 1.33384e-06 5.08058e-05 9.35009e-05 2.37302e-06 -4.11659e-53 1e-09 4.75937e-53 0 8.94946e-12 0 
6 4 8.83695e-07 4.94649e-05 9.64473e-05 2.48409e-06 0 1e-09 0 0 6.20671e-12 0 
10 4 9.17885e-07 5.08789e-05 9.00979e-05 2.90044e-06 -8.70806e-243 1e-09 1.33734e-242 0 7.52739e-12 0 
20 1 1.39076e-06 4.98185e-05 9.05583e-05 2.67992e-06 -3.56011e-140 1e-09 -5.5774e-140 0 1.05381e-11 0 
7 2 1.3218e-06 4.89756e-05 9.17067e-05 2.75776e-06 2.28048e-140 1e-09 4.45627e-140 0 1.03066e-11 0 
17 4 1.01373e-06 4.8236e-05 9.25516e-05 3.15967e-06 -1.53496e-56 1e-09 4.01221e-56 0 9.0564e-12 0 
21 3 1.19128e-06 5.18727e-05 9.25636e-05 2.64349e-06 -7.26657e-25 1e-09 1.85394e-24 0 8.90394e-12 0 
31 4 1.01313e-06 4.76681e-05 9.38079e-05 2.49961e-06 0 1e-09 0 0 7.16027e-12 0 
28 4 9.95352e-07 5.03622e-05 9.61006e-05 2.72611e-06 0 1e-09 0 0 7.67207e-12 0 
14 2 1.23959e-06 5.02683e-05 9.19264e-05 3.0032e-06 -7.87311e-141 1e-09 4.25166e-141 0 1.05258e-11 0 
32 4 9.85134e-07 4.94821e-05 9.29985e-05 3.21265e-06 -3.88168e-88 1e-09 4.24578e-87 0 8.94853e-12 0 
9 1 1.35776e-06 5.11084e-05 9.29507e-05 3.66293e-06 -1.59978e-24 1e-09 2.14023e-24 0 1.40619e-11 0 
11 4 9.55415e-07 5.02407e-05 9.36536e-05 4.21183e-06 -2.01839e-25 1e-09 1.31336e-25 0 1.13777e-11 0 
12 1 1.28514e-06 4.91905e-05 9.39888e-05 3.69433e-06 2.45203e-24 1e-09 3.50993e-25 0 1.34239e-11 0 
36 1 1.22982e-06 5.10445e-05 9.53931e-05 3.96905e-06 0 1e-09 0 0 1.38013e-11 0 
37 2 1.08348e-06 5.01208e-05 9.24664e-05 4.35388e-06 -1.15871e-291 1e-09 8.51208e-292 0 1.33379e-11 0 
38 1 1.18406e-06 4.96334e-05 9.32947e-05 1.35399e-06 1.85565e-81 1e-09 -1.89059e-81 0 4.53295e-12 0 
39 1 1.10906e-06 4.95741e-05 9.37466e-05 2.46492e-06 1.64516e-53 1e-09 5.0636e-54 0 7.72949e-12 0 
40 1 1.1275e-06 4.79023e-05 9.40842e-05 3.50994e-06 -1.98653e-24 1e-09 -2.8436e-25 0 1.11894e-11 0 
41 1 1.15534e-06 5.017e-05 9.465e-05 8.44747e-07 -1.64644e-164 1e-09 -6.27622e-165 0 2.75949e-12 0 
42 4 9.12532e-07 5.07529e-05 8.40703e-05 5.08964e-07 -1.56605e-25 1e-09 1.81e-24 0 1.31319e-12 0 
43 4 8.76188e-07 5.04694e-05 9.46416e-05 2.82779e-06 1.02894e-304 1e-09 6.32807e-305 0 7.00547e-12 0 
44 4 1.06651e-06 5.08359e-05 8.91506e-05 9.20247e-07 1.96172e-54 1e-09 1.08578e-54 0 2.77499e-12 0 
45 4 9.77065e-07 5.23234e-05 9.08491e-05 2.86534e-06 1.73879e-180 1e-09 1.47127e-179 0 7.91576e-12 0 
46 4 1.09611e-06 5.20065e-05 9.38667e-05 2.58024e-06 6.33433e-240 1e-09 -1.0424e-240 0 7.99663e-12 0 
47 4 1.13379e-06 5.00133e-05 8.92752e-05 2.98515e-06 1.92561e-148 1e-09 3.01674e-148 0 9.56951e-12 0 
48 4 9.89204e-07 5.09522e-05 9.16671e-05 3.97052e-06 1.54552e-274 1e-09 2.16884e-274 0 1.11052e-11 0 
49 4 9.83974e-07 5.19149e-05 9.46046e-05 4.00686e-06 0 1e-09 0 0 1.11476e-11 0 
50 4 8.81823e-07 5.18841e-05 9.3587e-05 6.73494e-07 1.33427e-173 1e-09 2.74089e-174 0 1.67922e-12 0 
ITEM: TIMESTEP
5000
ITEM: NUMBER OF ATOMS
66
ITEM: BOX BOUNDS ff ff ff
0 0.0001
0 0.0001
0 0.0001
ITEM: ATOMS id type diameter x y z vx vy vz fx fy fz 
16 4 9.18437e-07 4.91968e-05 9.12335e-05 4.61577e-07 -2.38391e-171 1e-09 -4.6644e-172 0 1.19863e-12 0 
34 1 1.39952e-06 5.04751e-05 8.88055e-05 1.72728e-06 -2.22383e-81 1e-09 9.38367e-81 0 6.83494e-12 0 
30 4 1.01285e-06 4.88773e-05 9.87818e-05 5.09873e-07 -6.37778e-172 1e-09 -6.04904e-171 0 1.46015e-12 0 
27 4 1.00855e-06 5.11451e-05 9.82388e-05 5.14219e-07 -1.78316e-24 1e-09 1.21917e-24 0 1.46636e-12 0 
25 4 1.03932e-06 4.92848e-05 9.41311e-05 1.51253e-06 -7.8572e-146 1e-09 3.81792e-147 0 4.44473e-12 0 
2 2 1.24381e-06 4.87843e-05 9.52586e-05 7.73265e-07 -2.96884e-81 1e-09 -1.31269e-79 0 2.71941e-12 0 
33 4 8.7315e-07 4.98999e-05 9.48684e-05 1.48412e-06 -5.23738e-25 1e-09 -9.72941e-27 0 3.66395e-12 0 
1 1 1.39651e-06 5.03727e-05 9.10993e-05 6.91648e-07 -9.39449e-250 2.06707e-15 1e-09 -1.24119e-246 2.73099e-12 1.32119e-06 
3 3 1.34936e-06 5.19723e-05 9.73884e-05 1.26492e-06 -1.70902e-109 1e-09 -2.00206e-108 0 4.82597e-12 0 
15 4 8.99481e-07 4.88097e-05 9.88865e-05 1.4639e-06 -1.48399e-55 1e-09 6.82879e-56 0 3.72303e-12 0 
29 1 1.26021e-06 5.0036e-05 9.89281e-05 1.90345e-06 7.09118e-10 1.00837e-14 -7.05089e-10 4.76954e-07 6.78233e-12 -4.74244e-07 
8 4 9.61192e-07 4.9451e-05 9.95115e-05 1.13219e-06 -4.69311e-25 1e-09 -6.18696e-25 0 3.07697e-12 0 
13 1 1.15336e-06 5.16753e-05 9.36766e-05 2.0604e-06 5.65818e-140 1e-09 3.90969e-140 0 6.71905e-12 0 
26 4 9.94696e-07 4.87857e-05 9.59373e-05 1.70242e-06 -4.19874e-25 1e-09 1.2782e-25 0 4.78795e-12 0 
24 1 1.1705e-06 4.99861e-05 9.57439e-05 2.00561e-06 -7.64066e-25 1e-09 -3.7173e-24 0 6.6376e-12 0 
4 4 1.0199e-06 4.80908e-05 9.76218e-05 9.20045e-07 0 1e-09 0 0 2.65313e-12 0 
18 4 1.00619e-06 5.16091e-05 9.94694e-05 1.82679e-06 -4.66603e-10 5.46335e-15 -8.84467e-10 -4.43863e-07 5.19708e-12 -8.41361e-07 
23 2 1.35197e-06 4.81952e-05 9.48803e-05 2.04713e-06 -9.77083e-225 1e-09 2.07197e-224 0 7.82538e-12 0 
35 1 1.38617e-06 5.13823e-05 9.53648e-05 2.60321e-06 9.50293e-82 1e-09 -5.16836e-82 0 1.02028e-11 0 
5 5 1.4839e-06 5.23771e-05 9.59639e-05 1.68163e-06 7.27819e-109 1e-09 -6.7195e-109 0 7.05551e-12 0 
22 1 1.41245e-06 4.8086e-05 9.71257e-05 2.03427e-06 -3.74863e-81 1e-09 -2.7532e-81 0 8.12408e-12 0 
19 1 1.16614e-06 5.10043e-05 9.82041e-05 1.63698e-06 7.38474e-53 1e-09 -2.05057e-53 0 5.39742e-12 0 
6 4 8.80801e-07 4.93534e-05 9.94764e-05 2.51447e-06 -7.45135e-10 1.32074e-14 6.66914e-10 -3.53293e-07 6.26206e-12 3.16206e-07 
10 4 9.1488e-07 5.08021e-05 9.44098e-05 2.99578e-06 -1.35639e-118 1e-09 9.31724e-119 0 7.74937e-12 0 
20 1 1.18561e-06 4.95359e-05 9.46933e-05 2.44415e-06 1.34688e-24 1e-09 -7.75862e-25 0 8.19336e-12 0 
7 2 1.10258e-06 4.84138e-05 9.50026e-05 3.32281e-06 -1.09073e-24 1e-09 1.05317e-24 0 1.03587e-11 0 
17 4 1.01041e-06 4.79958e-05 9.69977e-05 3.29534e-06 -2.51301e-25 1e-09 -2.11826e-25 0 9.41436e-12 0 
21 3 1.24811e-06 5.21298e-05 9.71464e-05 2.58958e-06 3.11024e-111 1e-09 -3.03991e-111 0 9.13847e-12 0 
31 4 1.00981e-06 4.76689e-05 9.85836e-05 2.4188e-06 0 1e-09 0 0 6.9061e-12 0 
28 4 9.92093e-07 5.04675e-05 9.94766e-05 2.82374e-06 1.3628e-25 1e-09 2.649e-26 0 7.92081e-12 0 
14 2 1.30902e-06 5.02411e-05 9.5732e-05 3.23459e-06 5.67217e-10 4.90706e-14 -8.23569e-10 1.38384e-07 1.19718e-11 -2.00926e-07 
32 4 9.81909e-07 4.96738e-05 9.66364e-05 3.67612e-06 -1.42235e-25 1e-09 1.13642e-25 0 1.0206e-11 0 
9 1 1.18341e-06 5.13213e-05 9.66279e-05 3.43849e-06 8.8293e-25 1e-09 -1.65014e-24 0 1.15052e-11 0 
11 4 9.52287e-07 5.02152e-05 9.8036e-05 4.57536e-06 2.94246e-182 1e-09 5.14838e-182 0 1.23193e-11 0 
12 1 1.10222e-06 4.88456e-05 9.92217e-05 4.24201e-06 0 1e-09 0 0 1.32201e-11 0 
36 1 1.38489e-06 5.10163e-05 9.93174e-05 3.96782e-06 -2.36203e-83 1e-09 -1.02595e-84 -3.66984e-85 1.55368e-11 -1.594e-86 
37 2 1.14417e-06 5.02775e-05 9.68444e-05 4.63462e-06 8.16364e-25 1e-09 1.31004e-24 0 1.49932e-11 0 
38 1 1.33337e-06 4.95654e-05 9.68129e-05 1.45725e-06 -3.87239e-10 1.60363e-14 9.21979e-10 -1.32663e-07 5.49382e-12 3.15858e-07 
39 1 1.24891e-06 4.97199e-05 9.77859e-05 2.30745e-06 -5.81262e-11 1.03719e-14 -9.98309e-10 -4.56634e-08 8.14806e-12 -7.84264e-07 
40 1 1.26967e-06 4.77788e-05 9.88944e-05 3.55845e-06 0 1e-09 0 0 1.27745e-11 0 
41 1 1.30102e-06 5.00237e-05 9.8494e-05 6.43717e-07 -3.18917e-26 1.74285e-15 1e-09 -4.33299e-23 2.36795e-12 1.35866e-06 
42 4 9.09544e-07 5.07481e-05 8.87166e-05 5.4833e-07 -1.37285e-54 1e-09 4.50755e-54 0 1.41013e-12 0 
43 4 8.73319e-07 5.05364e-05 9.85423e-05 2.85253e-06 2.29709e-26 1e-09 6.98741e-27 0 7.04361e-12 0 
44 4 1.06302e-06 5.14616e-05 9.27758e-05 1.22761e-06 0 1e-09 0 0 3.68974e-12 0 
45 4 9.73866e-07 5.24845e-05 9.55914e-05 3.01171e-06 0 1e-09 0 0 8.29286e-12 0 
46 4 1.09252e-06 5.20065e-05 9.88667e-05 2.58024e-06 4.66603e-10 8.37881e-15 8.84467e-10 4.43863e-07 7.97045e-12 8.41361e-07 
47 4 1.13007e-06 5.00434e-05 9.35472e-05 2.8015e-06 7.8858e-271 1e-09 -6.3013e-270 0 8.95137e-12 0 
48 4 9.85965e-07 5.08639e-05 9.59691e-05 4.29325e-06 -9.81727e-26 1e-09 1.83478e-25 0 1.19685e-11 0 
49 4 9.80753e-07 5.21946e-05 9.91058e-05 4.019e-06 1.25707e-87 1e-09 5.46011e-89 0 1.11447e-11 0 
50 4 8.78936e-07 5.21093e-05 9.83245e-05 6.67776e-07 3.45992e-84 1e-09 5.80295e-85 0 1.65951e-12 0 
51 1 1.25769e-06 5.08853e-05 9.6699e-05 1.58079e-06 -5.19709e-139 1e-09 4.5144e-138 0 5.62135e-12 0 
52 1 1.21709e-06 5.08821e-05 9.7444e-05 2.61774e-06 2.91432e-24 1e-09 8.03454e-25 0 9.00825e-12 0 
53 1 1.29559e-06 4.99333e-05 9.45514e-05 3.68153e-06 -5.67217e-10 5.52778e-14 8.23569e-10 -1.38384e-07 1.34861e-11 2.00926e-07 
54 1 1.24225e-06 5.1691e-05 9.7922e-05 4.15531e-06 1.81569e-24 1e-09 9.20561e-25 0 1.4595e-11 0 
55 4 1.04488e-06 4.98414e-05 9.48773e-05 5.24682e-07 1.25579e-113 1e-09 3.53438e-112 0 1.55009e-12 0 
56 4 8.9451e-07 5.11047e-05 9.56341e-05 1.45994e-06 0 1e-09 0 0 3.69244e-12 0 
57 4 9.94821e-07 4.99661e-05 9.73418e-05 5.03141e-07 3.87239e-10 4.131e-15 -9.21979e-10 1.32663e-07 1.41523e-12 -3.15858e-07 
58 4 9.55411e-07 5.10116e-05 9.68888e-05 4.83763e-07 8.84445e-143 1e-09 -7.68265e-142 0 1.30682e-12 0 
59 1 1.20807e-06 5.09217e-05 9.44261e-05 1.5031e-06 4.94965e-24 1e-09 9.1949e-26 0 5.13421e-12 0 
60 2 1.11312e-06 4.90262e-05 9.57626e-05 2.7315e-06 1.35235e-24 1e-09 -1.30578e-24 0 8.59678e-12 0 
61 1 1.19157e-06 4.96199e-05 9.78788e-05 3.51526e-06 -8.24918e-11 1.25255e-14 9.96592e-10 -7.7998e-08 1.18432e-11 9.42302e-07 
62 4 1.10893e-06 4.90793e-05 9.68835e-05 2.79148e-06 -2.6783e-25 1e-09 -3.93554e-25 0 8.75246e-12 0 
63 4 8.40226e-07 4.8641e-05 9.95264e-05 5.20182e-06 0 1e-09 0 0 1.23579e-11 0 
64 4 9.92434e-07 4.87361e-05 9.72992e-05 3.91942e-06 2.03836e-25 1e-09 1.71817e-25 0 1.09981e-11 0 
65 4 1.02009e-06 4.72434e-05 9.94865e-05 2.6758e-06 0 1e-09 0 0 7.71765e-12 0 
66 4 8.88016e-07 5.06546e-05 9.81217e-05 3.62204e-06 2.34323e-25 1e-09 2.4182e-26 0 9.09424e-12 0 
ITEM: TIMESTEP
5500
ITEM: NUMBER OF ATOMS
99
ITEM: BOX BOUNDS ff ff ff
0 0.0001
0 0.0001
0 0.0001
ITEM: ATOMS id type diameter x y z vx vy vz fx fy fz 
16 4 9.1543e-07 4.90186e-05 9.58066e-05 4.62601e-07 7.57552e-25 1e-09 1.1165e-24 0 1.19736e-12 0 
58 4 9.52283e-07 5.12274e-05 9.85066e-05 4.86907e-07 9.98403e-10 4.11249e-15 -5.64846e-11 3.18277e-07 1.311e-12 -1.80065e-08 
57 4 9.91564e-07 5.0175e-05 9.75485e-05 5.1119e-07 5.20795e-25 1e-09 1.18543e-24 0 1.43316e-12 0 
42 4 9.06567e-07 5.10687e-05 9.25101e-05 4.75127e-07 0 1e-09 0 0 1.21787e-12 0 
68 1 1.24219e-06 4.99808e-05 9.1009e-05 6.18691e-07 0 4.52209e-15 1e-09 0 2.17297e-12 4.80523e-07 
55 4 1.04146e-06 4.94864e-05 9.67289e-05 5.54615e-07 9.78637e-25 1e-09 2.02474e-25 0 1.63316e-12 0 
2 2 1.31348e-06 4.82157e-05 9.69978e-05 6.67194e-07 -6.47758e-24 1e-09 -1.182e-23 0 2.47781e-12 0 
4 4 1.01656e-06 4.74714e-05 9.94756e-05 7.67584e-07 7.61948e-166 1e-09 -1.88641e-166 0 2.20623e-12 0 
41 1 1.12733e-06 5.04169e-05 9.83383e-05 1.19399e-06 -4.74573e-10 6.48994e-15 -8.80216e-10 -2.78296e-07 3.80579e-12 -5.1617e-07 
27 4 1.00525e-06 5.08791e-05 9.94163e-05 5.0661e-07 9.96323e-10 4.01019e-15 8.56742e-11 3.57747e-07 1.43993e-12 3.07628e-08 
50 4 8.76058e-07 5.27422e-05 9.95499e-05 8.74211e-07 9.143e-10 2.83055e-15 4.05037e-10 6.99455e-07 2.16542e-12 3.0986e-07 
30 4 1.00953e-06 4.84797e-05 9.94913e-05 5.07555e-07 -5.29801e-10 1.8581e-15 -8.48122e-10 -4.13084e-07 1.44875e-12 -6.61279e-07 
67 1 1.24818e-06 5.05836e-05 9.26884e-05 1.67167e-06 0 1e-09 0 0 5.89958e-12 0 
1 1 1.2541e-06 5.10601e-05 9.4927e-05 1.52686e-06 1.64658e-24 1e-09 3.52726e-24 0 5.41407e-12 0 
44 4 1.05954e-06 5.19307e-05 9.6597e-05 1.03425e-06 0 1e-09 0 0 3.09837e-12 0 
33 4 8.70291e-07 4.96857e-05 9.60047e-05 1.31077e-06 -9.32255e-26 1e-09 -2.90513e-25 0 3.22539e-12 0 
56 4 8.91581e-07 5.16032e-05 9.76113e-05 5.33577e-07 6.45883e-25 1e-09 1.05682e-25 0 1.34509e-12 0 
38 1 1.25623e-06 4.98606e-05 9.6998e-05 1.8171e-06 -7.59411e-10 1.51652e-14 -6.50611e-10 -3.23199e-07 6.45418e-12 -2.76895e-07 
3 3 1.08774e-06 5.35235e-05 9.94559e-05 1.51424e-06 2.25132e-24 1e-09 -2.16982e-24 0 4.65706e-12 0 
15 4 8.96536e-07 4.83663e-05 9.95309e-05 1.52607e-06 -3.83412e-87 1e-09 2.65549e-87 0 3.86842e-12 0 
8 4 9.58045e-07 4.9447e-05 9.95156e-05 1.33982e-06 6.47844e-10 3.97148e-15 7.61773e-10 5.92029e-07 3.62932e-12 6.96143e-07 
25 4 1.03591e-06 4.87051e-05 9.64707e-05 1.60262e-06 3.08328e-25 1e-09 5.89589e-25 0 4.69404e-12 0 
59 1 1.36041e-06 5.06656e-05 9.59321e-05 6.81619e-07 5.4e-49 1e-09 -1.27747e-19 0 2.62182e-12 -3.34969e-22 
69 1 1.24523e-06 5.24607e-05 9.74791e-05 1.70109e-06 4.16456e-24 1e-09 -2.1807e-24 0 5.98924e-12 0 
26 4 9.91439e-07 4.80153e-05 9.72203e-05 2.14513e-06 -3.88351e-25 1e-09 2.84469e-25 0 6.0133e-12 0 
5 5 1.4839e-06 5.35409e-05 9.80237e-05 9.38514e-07 1.15717e-23 1e-09 3.34643e-24 0 3.93765e-12 0 
51 1 1.05842e-06 5.09302e-05 9.72214e-05 1.20153e-06 3.64212e-24 1e-09 3.36892e-24 0 3.59571e-12 0 
70 1 1.30039e-06 4.79871e-05 9.83753e-05 1.94609e-06 -7.19867e-10 3.55022e-15 6.94112e-10 -1.45087e-06 7.15533e-12 1.39896e-06 
19 1 1.31319e-06 5.15759e-05 9.84929e-05 1.58664e-06 3.94421e-24 1e-09 -3.03093e-24 0 5.89113e-12 0 
29 1 1.18592e-06 5.06232e-05 9.94017e-05 1.57663e-06 9.35699e-10 3.38215e-15 -3.52801e-10 1.46257e-06 5.28659e-12 -5.51457e-07 
18 4 1.00289e-06 5.21792e-05 9.94821e-05 1.77891e-06 3.24169e-25 1e-09 9.95328e-26 0 5.04428e-12 0 
34 1 1.25354e-06 5.0363e-05 9.35408e-05 2.68921e-06 0 1e-09 0 0 9.53139e-12 0 
13 1 1.29879e-06 5.20442e-05 9.59829e-05 2.25918e-06 1.73762e-24 1e-09 1.03831e-25 0 8.29624e-12 0 
23 2 1.19937e-06 4.72668e-05 9.72733e-05 2.96063e-06 7.81135e-25 1e-09 7.67791e-25 0 1.00399e-11 0 
20 1 1.33511e-06 4.91273e-05 9.60235e-05 2.63188e-06 -1.58591e-24 1e-09 -1.05447e-24 0 9.93516e-12 0 
24 1 1.31809e-06 5.07144e-05 9.63763e-05 2.54856e-06 7.59411e-10 2.23173e-14 6.50611e-10 3.23199e-07 9.49805e-12 2.76895e-07 
39 1 1.10183e-06 4.95225e-05 9.81774e-05 2.26837e-06 1.86241e-24 1e-09 6.63356e-25 0 7.06676e-12 0 
31 4 1.00651e-06 4.77374e-05 9.94806e-05 2.26126e-06 -1.05018e-25 1e-09 1.3401e-25 0 6.43517e-12 0 
47 4 1.12637e-06 5.02678e-05 9.53851e-05 3.25896e-06 -1.48733e-25 1e-09 2.36618e-25 0 1.0379e-11 0 
10 4 9.11885e-07 5.08122e-05 9.64348e-05 3.66733e-06 1.85235e-26 1e-09 -8.05738e-26 0 9.45545e-12 0 
60 2 1.17547e-06 4.84627e-05 9.71321e-05 3.12807e-06 -1.27697e-24 1e-09 -4.1645e-25 0 1.03963e-11 0 
22 1 1.22203e-06 4.69073e-05 9.83889e-05 2.61738e-06 6.91973e-10 1.01326e-13 -7.21924e-10 6.17606e-08 9.0436e-12 -6.44338e-08 
62 4 1.1053e-06 4.79581e-05 9.82655e-05 3.15881e-06 -4.22323e-25 1e-09 -6.70869e-26 0 9.87175e-12 0 