LAMMPS (5 Nov 2016)
# NUFEB simulation

atom_style	bio
atom_modify	map array sort 1000 5.0e-7
boundary	ff ff ff
newton		off
#processors  2 1 1

comm_modify	vel yes
read_data_bio atom.in
  orthogonal box = (0 0 0) to (0.0001 0.0001 0.0001)
  1 by 1 by 1 MPI processor grid
  reading atoms ...
  3 atoms
  10 nutrients

group AOB type 1
1 atoms in group AOB
group NOB type 2
1 atoms in group NOB
group COMM type 3
1 atoms in group COMM

neighbor	5.0e-7 bin
neigh_modify	delay 0 one 5000

#pair_style none
pair_style  gran/hooke/history 0.000200 NULL 0.000050 NULL 0.0 1

pair_coeff  * *
timestep 36

fix 1 all nve/limit 1e-8

#fix	 2 all gravity 1.47 vector 0 0 -1 # spherical 90.0 -180.0
#fix     3 all fdrag
fix 10 all viscous 0.1


fix xw all wall/gran hooke/history 2000 NULL 500.0 NULL 1.5 0 xplane  0.0   1.0e-04
fix yw all wall/gran hooke/history 2000 NULL 500.0 NULL 1.5 0 yplane  0.0   1.0e-04
fix zw all wall/gran hooke/history 2000 NULL 500.0 NULL 1.5 0 zplane  0.0   1.0e-04

variable kanc equal 50

fix xwa all walladh v_kanc xplane  0.0   1.0e-04
fix ywa all walladh v_kanc yplane  0.0   1.0e-04
fix zwa all walladh v_kanc zplane  0.0   1.0e-04

##############Ibm Variable Definitions##############

#Defining EPS density and ratio variables
variable EPSdens equal 30
variable EPSratio equal 1.25

variable ke equal 5e+10

#Defining kinetics variables
variable temp equal 298.15
variable gasTran equal 0.08205746
variable gvol equal 8e-14
variable rth equal 0.0083144
variable pressure equal 1
variable ph equal 7.0

#Defining diffusion variables
variable diffT equal 1e-6
variable tol equal 8e-12

##############Ibm functions##############

fix k1 all kinetics 25 25 25 v_temp v_rth v_gvol v_gasTran v_ph
fix g1 all diffusion exp v_diffT v_tol pp pp nd
#fix ki3 all kinetics/ph 1
fix ki2 all kinetics/thermo 1 fix open v_pressure
fix ki1 all kinetics/monod 1 v_EPSdens
fix d1 all divide 1 v_EPSdens 1 31231

#fix j1 all epsadh 1 v_ke 1
#fix e1 HET eps_extract 16 v_EPSratio v_EPSdens 1242242

##############Ibm compute##############

compute myMass all biomass
compute myNtypes all ntypes

##############Simulation outputs##############

#dump		id all custom 250 snapshot.bubblemd id type diameter x y z
dump            d0 all bio 500 biomass
thermo_style    custom step cpu atoms biomass c_myNtypes[*] c_myMass[2]
thermo		5
thermo_modify	lost ignore

run  5000
Neighbor list info ...
  2 neighbor list requests
  update every 1 steps, delay 0 steps, check yes
  max neighbors/atom: 5000, page size: 100000
  master list distance cutoff = 1.466e-06
  ghost atom cutoff = 1.466e-06
  binsize = 7.33e-07 -> bins = 137 137 137
Memory usage per processor = 18.9946 Mbytes
Step CPU Atoms biomass c_myNtypes[1] c_myNtypes[2] c_myNtypes[3] c_myMass[2] 
       0            0        3 4.1062866e-16            1            1            1 1.3687622e-16 
       5    4717.1508        3 4.1160973e-16            1            1            1 1.3690175e-16 
      10    4775.6335        3 4.1257608e-16            1            1            1 1.3690922e-16 
      15    4834.7129        3 4.1353061e-16            1            1            1 1.3690151e-16 
      20    4908.3153        3 4.1452498e-16            1            1            1 1.369303e-16 
      25    4965.5265        3 4.1549278e-16            1            1            1 1.3692913e-16 
      30    5034.0325        3 4.1650028e-16            1            1            1 1.3696429e-16 
      35    5088.5622        3 4.1747805e-16            1            1            1 1.3696632e-16 
      40    5153.3429        3 4.1849634e-16            1            1            1 1.3700546e-16 
      45    5206.3741        3 4.1948323e-16            1            1            1 1.3700979e-16 
      50     5268.595        3 4.2051147e-16            1            1            1 1.3705202e-16 
      55     5320.272        3 4.2150712e-16            1            1            1 1.3705823e-16 
      60    5380.8796        3 4.225449e-16            1            1            1 1.3710311e-16 
      65    5431.7048        3 4.2354912e-16            1            1            1 1.3711097e-16 
      70    5490.6677        3 4.2459619e-16            1            1            1 1.371582e-16 
      75     5540.682        3 4.2560886e-16            1            1            1 1.3716753e-16 
      80    5598.6742        3 4.2666508e-16            1            1            1 1.3721691e-16 
      85    5647.9602        3 4.2768615e-16            1            1            1 1.3722762e-16 
      90    5703.7339        3 4.2875141e-16            1            1            1  1.37279e-16 
      95    5752.0428        3 4.2978083e-16            1            1            1  1.37291e-16 
     100    5806.5633        3 4.3085507e-16            1            1            1 1.3734426e-16 
     105    5854.5649        3 4.3189281e-16            1            1            1 1.3735746e-16 
     110    5908.0064        3 4.3297599e-16            1            1            1 1.3741251e-16 
     115    5955.3941        3 4.3402206e-16            1            1            1 1.3742687e-16 
     120    6008.0743        3 4.3511414e-16            1            1            1 1.3748363e-16 
     125    6055.1138        3 4.3616853e-16            1            1            1 1.3749909e-16 
     130    6107.0006        3 4.372695e-16            1            1            1 1.3755751e-16 
     135    6153.7141        3 4.3833223e-16            1            1            1 1.3757403e-16 
     140    6205.3081        3 4.3944208e-16            1            1            1 1.3763403e-16 
     145    6251.9608        3 4.4051316e-16            1            1            1 1.3765159e-16 
     150    6303.0682        4 4.416319e-16            2            1            1 1.3771314e-16 
     155    6349.5453        5 4.4271135e-16            2            1            2 1.377317e-16 
     160    6400.3342        5 4.4383899e-16            2            1            2 1.3779475e-16 
     165     6447.003        5 4.4492684e-16            2            1            2 1.3781428e-16 
     170    6497.7597        5 4.4606339e-16            2            1            2 1.3787878e-16 
     175    6544.3553        5 4.4715966e-16            2            1            2 1.3789927e-16 
     180    6594.7354        5 4.4830514e-16            2            1            2 1.379652e-16 
     185    6641.1696        5 4.4940987e-16            2            1            2 1.3798661e-16 
     190    6691.1346        5 4.505643e-16            2            1            2 1.3805395e-16 
     195    6737.6335        5 4.5167751e-16            2            1            2 1.3807627e-16 
     200    6787.4049        5 4.5284093e-16            2            1            2 1.3814498e-16 
     205     6833.786        5 4.5396267e-16            2            1            2 1.381682e-16 
     210    6883.5015        5 4.551351e-16            2            1            2 1.3823826e-16 
     215    6929.9676        5 4.562654e-16            2            1            2 1.3826235e-16 
     220    6980.4545        5 4.5744686e-16            2            1            2 1.3833373e-16 
     225    7026.9187        5 4.5858577e-16            2            1            2 1.3835868e-16 
     230    7076.3435        5 4.597763e-16            2            1            2 1.3843137e-16 
     235    7122.5609        5 4.6092384e-16            2            1            2 1.3845717e-16 
     240     7171.641        5 4.6212349e-16            2            1            2 1.3853115e-16 
     245    7217.8305        5 4.6327973e-16            2            1            2 1.3855779e-16 
     250     7267.032        5 4.6448852e-16            2            1            2 1.3863304e-16 
     255    7313.5708        5 4.6565348e-16            2            1            2 1.386605e-16 
     260    7362.5677        5 4.6687146e-16            2            1            2 1.3873701e-16 
     265    7408.8722        5 4.6804519e-16            2            1            2 1.3876528e-16 
     270    7457.6632        5 4.692724e-16            2            1            2 1.3884303e-16 
     275    7503.9728        5 4.7045495e-16            2            1            2 1.388721e-16 
     280    7553.5223        5 4.7169142e-16            2            1            2 1.3895107e-16 
     285    7600.7215        5 4.7288284e-16            2            1            2 1.3898095e-16 
     290    7650.5017        5 4.7412862e-16            2            1            2 1.3906112e-16 
     295    7696.9465        5 4.7532895e-16            2            1            2 1.3909178e-16 
     300    7746.2168        5 4.7658408e-16            2            1            2 1.3917316e-16 
     305    7792.9281        5 4.7779337e-16            2            1            2 1.3920459e-16 
     310    7841.8482        5 4.7905791e-16            2            1            2 1.3928716e-16 
     315    7888.6333        5 4.8027621e-16            2            1            2 1.3931936e-16 
     320    7937.7864        5 4.8155019e-16            2            1            2 1.394031e-16 
     325    7984.7427        5 4.8277755e-16            2            1            2 1.3943607e-16 
     330    8033.8065        5 4.8406103e-16            2            1            2 1.3952098e-16 
     335    8080.8741        5 4.852975e-16            2            1            2 1.3955469e-16 
     340    8129.6024        5 4.8659052e-16            2            1            2 1.3964075e-16 
     345    8176.5021        5 4.8783615e-16            2            1            2 1.3967522e-16 
     350    8227.2457        5 4.8913876e-16            2            1            2 1.3976243e-16 
     355    8274.3265        5 4.9039362e-16            2            1            2 1.3979764e-16 
     360    8323.4594        5 4.9170588e-16            2            1            2 1.3988599e-16 
     365    8370.6329        5   4.9297e-16            2            1            2 1.3992194e-16 
     370    8419.5912        5 4.9429196e-16            2            1            2 1.4001142e-16 
     375    8466.8314        5 4.9556541e-16            2            1            2 1.400481e-16 
     380    8515.9186        5 4.9689711e-16            2            1            2 1.4013871e-16 
     385    8563.5135        5 4.9817994e-16            2            1            2 1.4017611e-16 
     390    8612.8536        5 4.9952144e-16            2            1            2 1.4026784e-16 
     395    8661.0869        5 5.008137e-16            2            1            2 1.4030596e-16 
     400     8710.327        5 5.0216505e-16            2            1            2 1.4039879e-16 
     405    8758.2128        5 5.034668e-16            2            1            2 1.4043762e-16 
     410    8807.7189        5 5.0482806e-16            2            1            2 1.4053155e-16 
     415     8855.625        5 5.0613935e-16            2            1            2 1.4057109e-16 
     420    8904.9093        5 5.0751057e-16            2            1            2 1.4066611e-16 
     425    8953.0627        5 5.0883146e-16            2            1            2 1.4070635e-16 
     430    9002.9767        5 5.1021269e-16            2            1            2 1.4080246e-16 
     435    9051.5256        5 5.1154325e-16            2            1            2 1.4084339e-16 
     440     9101.402        5 5.1293454e-16            2            1            2 1.4094057e-16 
     445    9149.9128        5 5.1427481e-16            2            1            2 1.409822e-16 
     450     9199.797        5 5.1567624e-16            2            1            2 1.4108045e-16 
     455    9248.5681        5 5.1702628e-16            2            1            2 1.4112278e-16 
     460    9298.6588        5 5.1843789e-16            2            1            2 1.4122209e-16 
     465    9347.4876        5 5.1979777e-16            2            1            2 1.412651e-16 
     470    9397.5081        5 5.2121961e-16            2            1            2 1.4136546e-16 
     475    9446.5378        5 5.2258938e-16            2            1            2 1.4140914e-16 
     480    9496.9882        5 5.2402152e-16            2            1            2 1.4151056e-16 
     485     9546.256        5 5.2540124e-16            2            1            2 1.4155492e-16 
     490     9596.795        5 5.2684374e-16            2            1            2 1.4165738e-16 
     495    9646.2009        5 5.2823348e-16            2            1            2 1.417024e-16 
     500    9696.7218        5 5.2968639e-16            2            1            2 1.4180591e-16 
     505    9747.1274        5 5.3108621e-16            2            1            2 1.418516e-16 
     510    9798.1332        5 5.3254959e-16            2            1            2 1.4195613e-16 
     515    9847.8952        5 5.3395954e-16            2            1            2 1.4200248e-16 
     520    9898.8488        5 5.3543346e-16            2            1            2 1.4210804e-16 
     525    9948.9432        5 5.3685361e-16            2            1            2 1.4215505e-16 
     530    9999.7756        5 5.3833813e-16            2            1            2 1.4226163e-16 
     535    10050.004        5 5.3976854e-16            2            1            2 1.4230929e-16 
     540    10101.184        5 5.4126372e-16            2            1            2 1.4241689e-16 
     545    10151.637        5 5.4270445e-16            2            1            2 1.424652e-16 
     550    10203.034        5 5.4421036e-16            2            1            2 1.4257382e-16 
     555    10253.712        5 5.4566148e-16            2            1            2 1.4262277e-16 
     560    10305.178        5 5.4717816e-16            2            1            2 1.4273239e-16 
     565    10357.222        5 5.4863974e-16            2            1            2 1.4278199e-16 
     570    10409.105        5 5.5016728e-16            2            1            2 1.4289261e-16 
     575    10459.877        5 5.5163938e-16            2            1            2 1.4294285e-16 
     580    10511.391        5 5.5317782e-16            2            1            2 1.4305447e-16 
     585    10562.258        5 5.5466051e-16            2            1            2 1.4310535e-16 
     590     10613.91        5 5.5620993e-16            2            1            2 1.4321796e-16 
     595    10664.843        5 5.5770327e-16            2            1            2 1.4326947e-16 
     600    10716.803        5 5.5926373e-16            2            1            2 1.4338306e-16 
     605    10767.824        5 5.6076779e-16            2            1            2 1.434352e-16 
     610    10819.883        5 5.6233936e-16            2            1            2 1.4354978e-16 
     615    10871.292        5 5.6385421e-16            2            1            2 1.4360255e-16 
     620    10923.079        5 5.6543696e-16            2            1            2 1.4371811e-16 
     625    10974.761        5 5.6696266e-16            2            1            2 1.437715e-16 
     630    11026.949        5 5.6855665e-16            2            1            2 1.4388804e-16 
     635    11078.517        5 5.7009327e-16            2            1            2 1.4394206e-16 
     640     11131.03        5 5.7169858e-16            2            1            2 1.4405957e-16 
     645    11182.734        5 5.7324619e-16            2            1            2 1.441142e-16 
     650    11235.424        5 5.7486288e-16            2            1            2 1.4423268e-16 
     655    11288.516        5 5.7642156e-16            2            1            2 1.4428792e-16 
     660    11341.404        5 5.7804969e-16            2            1            2 1.4440737e-16 
     665    11395.851        5 5.7961951e-16            2            1            2 1.4446323e-16 
     670    11449.139        5 5.8125916e-16            2            1            2 1.4458364e-16 
     675    11501.635        5 5.8284019e-16            2            1            2 1.4464011e-16 
     680    11554.924        5 5.8449143e-16            2            1            2 1.4476148e-16 
     685    11607.493        5 5.8608373e-16            2            1            2 1.4481856e-16 
     690    11661.149        5 5.8774664e-16            2            1            2 1.4494089e-16 
     695    11713.448        5 5.8935029e-16            2            1            2 1.4499857e-16 
     700    11766.637        5 5.9102493e-16            2            1            2 1.4512185e-16 
     705    11819.219        5   5.9264e-16            2            1            2 1.4518014e-16 
     710    11872.611        5 5.9432645e-16            2            1            2 1.4530437e-16 
     715    11925.365        5 5.9595301e-16            2            1            2 1.4536326e-16 
     720    11978.637        5 5.9765134e-16            2            1            2 1.4548844e-16 
     725    12031.713        5 5.9928948e-16            2            1            2 1.4554793e-16 
     730    12085.435        5 6.0099976e-16            2            1            2 1.4567405e-16 
     735    12138.629        5 6.0264955e-16            2            1            2 1.4573415e-16 
     740    12192.474        5 6.0437186e-16            2            1            2 1.4586121e-16 
     745    12245.754        5 6.0603336e-16            2            1            2 1.459219e-16 
     750    12299.489        5 6.0776778e-16            2            1            2 1.4604991e-16 
     755    12353.001        5 6.0944108e-16            2            1            2 1.4611119e-16 
     760    12406.869        5 6.1118768e-16            2            1            2 1.4624013e-16 
     765    12460.624        5 6.1287285e-16            2            1            2 1.4630201e-16 
     770    12514.754        5 6.146317e-16            2            1            2 1.4643189e-16 
     775    12568.415        5 6.1632883e-16            2            1            2 1.4649436e-16 
     780     12622.77        5 6.1810002e-16            2            1            2 1.4662517e-16 
     785    12676.813        5 6.1980917e-16            2            1            2 1.4668823e-16 
     790    12731.362        5 6.2159277e-16            2            1            2 1.4681997e-16 
     795    12785.696        5 6.2331404e-16            2            1            2 1.4688362e-16 
     800    12840.358        5 6.2511012e-16            2            1            2 1.470163e-16 
     805    12895.057        5 6.2684357e-16            2            1            2 1.4708053e-16 
     810    12950.569        5 6.2865223e-16            2            1            2 1.4721413e-16 
     815    13005.683        5 6.3039795e-16            2            1            2 1.4727895e-16 
     820    13061.309        5 6.3221925e-16            2            1            2 1.4741348e-16 
     825    13116.736        5 6.3397732e-16            2            1            2 1.4747889e-16 
     830    13172.346        5 6.3581136e-16            2            1            2 1.4761434e-16 
     835    13227.888        5 6.3758185e-16            2            1            2 1.4768033e-16 
     840    13283.859        5 6.394287e-16            2            1            2 1.4781671e-16 
     845    13339.678        5 6.412117e-16            2            1            2 1.4788327e-16 
     850    13395.788        5 6.4307144e-16            2            1            2 1.4802058e-16 
     855    13451.582        5 6.4486703e-16            2            1            2 1.4808773e-16 
     860    13507.896        5 6.4673975e-16            2            1            2 1.4822595e-16 
     865    13563.927        5 6.4854802e-16            2            1            2 1.4829368e-16 
     870    13620.165        5 6.5043379e-16            2            1            2 1.4843282e-16 
     875    13676.037        5 6.5225482e-16            2            1            2 1.4850113e-16 
     880    13732.306        5 6.5415374e-16            2            1            2 1.4864119e-16 
     885      13788.1        5 6.5598761e-16            2            1            2 1.4871007e-16 
     890    13844.661        5 6.5789975e-16            2            1            2 1.4885106e-16 
     895    13901.057        5 6.5974656e-16            2            1            2 1.4892051e-16 
     900    13957.761        5 6.6167201e-16            2            1            2 1.4906241e-16 
     905    14014.292        5 6.6353183e-16            2            1            2 1.4913245e-16 
     910    14071.202        5 6.6547067e-16            2            1            2 1.4927526e-16 
     915    14127.645        5 6.6734359e-16            2            1            2 1.4934587e-16 
     920    14184.564        5 6.6929593e-16            2            1            2 1.494896e-16 
     925    14241.305        5 6.7118203e-16            2            1            2 1.4956078e-16 
     930    14298.665        5 6.7314793e-16            2            1            2 1.4970542e-16 
     935    14355.693        5 6.7504731e-16            2            1            2 1.4977718e-16 
     940    14413.051        5 6.7702688e-16            2            1            2 1.4992273e-16 
     945    14470.137        5 6.7893962e-16            2            1            2 1.4999506e-16 
     950    14527.561        5 6.8093293e-16            2            1            2 1.5014153e-16 
     955    14584.955        6 6.8285912e-16            2            1            3 1.5021443e-16 
     960    14642.478        6 6.8486627e-16            2            1            3 1.5036181e-16 
     965    14700.021        6 6.8680601e-16            2            1            3 1.5043529e-16 
     970      14757.7        6 6.8882709e-16            2            1            3 1.5058358e-16 
     975     14815.42        6 6.9078045e-16            2            1            3 1.5065762e-16 
     980    14873.034        6 6.9281555e-16            2            1            3 1.5080683e-16 
     985    14930.497        6 6.9478264e-16            2            1            3 1.5088144e-16 
     990     14988.38        7 6.9683184e-16            3            1            3 1.5103155e-16 
     995    15046.346        7 6.9881274e-16            3            1            3 1.5110673e-16 
    1000    15104.494        7 7.0087614e-16            3            1            3 1.5125776e-16 
    1005     15162.61        7 7.0287095e-16            3            1            3 1.5133351e-16 
    1010    15220.818        7 7.0494865e-16            3            1            3 1.5148545e-16 
    1015    15278.738        7 7.0695746e-16            3            1            3 1.5156177e-16 
    1020    15337.113        7 7.0904955e-16            3            1            3 1.5171461e-16 
    1025    15395.305        7 7.1107245e-16            3            1            3 1.517915e-16 
    1030    15453.808        7 7.1317903e-16            3            1            3 1.5194526e-16 
    1035    15512.024        8 7.1521611e-16            3            2            3 1.5202272e-16 
    1040    15570.834        8 7.1733726e-16            3            2            3 1.5217739e-16 
    1045    15629.439        8 7.1938864e-16            3            2            3 1.5225542e-16 
    1050    15688.572        8 7.2152445e-16            3            2            3 1.5241099e-16 
    1055    15747.489        8 7.2359021e-16            3            2            3 1.5248959e-16 
    1060    15806.551        8 7.2574079e-16            3            2            3 1.5264607e-16 
    1065    15865.482        8 7.2782102e-16            3            2            3 1.5272523e-16 
    1070    15924.843        8 7.2998647e-16            3            2            3 1.5288263e-16 
    1075    15984.018        8 7.3208127e-16            3            2            3 1.5296236e-16 
    1080    16043.043        8 7.3426169e-16            3            2            3 1.5312067e-16 
    1085    16102.228        8 7.3637115e-16            3            2            3 1.5320096e-16 
    1090    16161.888        8 7.3856663e-16            3            2            3 1.5336018e-16 
    1095    16221.287        8 7.4069087e-16            3            2            3 1.5344104e-16 
    1100    16282.058        8 7.4290151e-16            3            2            3 1.5360116e-16 
    1105     16341.45        8 7.4504061e-16            3            2            3 1.5368259e-16 
    1110    16400.944        8 7.4726651e-16            3            2            3 1.5384363e-16 
    1115    16460.751        8 7.4942058e-16            3            2            3 1.5392562e-16 
    1120    16520.673        8 7.5166184e-16            3            2            3 1.5408757e-16 
    1125    16580.492        8 7.5383098e-16            3            2            3 1.5417012e-16 
    1130    16640.348        8 7.560877e-16            3            2            3 1.5433298e-16 
    1135     16700.17        8 7.5827201e-16            3            2            3 1.544161e-16 
    1140    16760.209        8 7.605443e-16            3            2            3 1.5457987e-16 
    1145    16820.286        8 7.6274388e-16            3            2            3 1.5466356e-16 
    1150    16880.214        8 7.6503184e-16            3            2            3 1.5482824e-16 
    1155    16940.283        8 7.6724679e-16            3            2            3 1.549125e-16 
    1160    17000.403        8 7.6955052e-16            3            2            3 1.5507809e-16 
    1165     17060.99        8 7.7178095e-16            3            2            3 1.5516291e-16 
    1170    17121.855        8 7.7410055e-16            3            2            3 1.5532941e-16 
    1175    17182.835        8 7.7634657e-16            3            2            3 1.554148e-16 
    1180     17243.86        8 7.7868215e-16            3            2            3 1.5558221e-16 
    1185    17304.549        8 7.8094385e-16            3            2            3 1.5566817e-16 
    1190    17365.635        8 7.8329553e-16            3            2            3 1.5583649e-16 
    1195    17427.039        8 7.8557302e-16            3            2            3 1.5592301e-16 
    1200    17488.793        8 7.8794089e-16            3            2            3 1.5609225e-16 
    1205    17550.101        8 7.9023428e-16            3            2            3 1.5617933e-16 
    1210    17611.922        8 7.9261845e-16            3            2            3 1.5634949e-16 
    1215     17673.74        8 7.9492785e-16            3            2            3 1.5643714e-16 
    1220    17735.639        8 7.9732844e-16            3            2            3 1.5660821e-16 
    1225    17797.646        8 7.9965396e-16            3            2            3 1.5669642e-16 
    1230    17859.587        8 8.0207106e-16            3            2            3 1.5686841e-16 
    1235    17921.622        8 8.0441281e-16            3            2            3 1.569572e-16 
    1240    17984.674        8 8.0684654e-16            3            2            3 1.571301e-16 
    1245    18047.007        8 8.0920463e-16            3            2            3 1.5721946e-16 
    1250    18109.264        8 8.116551e-16            3            2            3 1.5739328e-16 
    1255    18171.809        8 8.1402963e-16            3            2            3 1.5748321e-16 
    1260    18234.117        8 8.1649696e-16            3            2            3 1.5765795e-16 
    1265    18296.541        8 8.1888806e-16            3            2            3 1.5774844e-16 
    1270    18358.758        8 8.2137235e-16            3            2            3 1.579241e-16 
    1275    18420.853        9 8.2378011e-16            4            2            3 1.5801517e-16 
    1280     18483.43        9 8.2628149e-16            4            2            3 1.5819175e-16 
    1285    18545.719        9 8.2870603e-16            4            2            3 1.5828338e-16 
    1290    18607.849        9 8.312246e-16            4            2            3 1.5846088e-16 
    1295    18670.307        9 8.3366604e-16            4            2            3 1.5855309e-16 
    1300    18733.259        9 8.3620192e-16            4            2            3 1.5873151e-16 
    1305    18795.891        9 8.3866037e-16            4            2            3 1.5882428e-16 
    1310    18859.214        9 8.4121367e-16            4            2            3 1.5900363e-16 
    1315    18921.958        9 8.4368925e-16            4            2            3 1.5909697e-16 
    1320    18984.754        9 8.4626009e-16            4            2            3 1.5927724e-16 
    1325    19047.291        9 8.4875291e-16            4            2            3 1.5937115e-16 
    1330    19109.919        9 8.513414e-16            4            2            3 1.5955234e-16 
    1335    19173.192        9 8.5385159e-16            4            2            3 1.5964682e-16 
    1340    19237.814        9 8.5645785e-16            4            2            3 1.5982894e-16 
    1345    19301.837        9 8.5898552e-16            4            2            3 1.5992399e-16 
    1350    19365.416        9 8.6160967e-16            4            2            3 1.6010703e-16 
    1355    19429.042        9 8.6415493e-16            4            2            3 1.6020265e-16 
    1360    19493.117        9 8.667971e-16            4            2            3 1.6038662e-16 
    1365    19557.007        9 8.6936008e-16            4            2            3 1.6048281e-16 
    1370    19621.798        9 8.7202037e-16            4            2            3 1.6066771e-16 
    1375    19686.044        9 8.7460119e-16            4            2            3 1.6076447e-16 
    1380    19751.255        9 8.7727973e-16            4            2            3 1.6095029e-16 
    1385    19816.022        9 8.7987851e-16            4            2            3 1.6104762e-16 
    1390     19880.82        9 8.8257543e-16            4            2            3 1.6123437e-16 
    1395    19945.449        9 8.8519228e-16            4            2            3 1.6133227e-16 
    1400    20010.006        9 8.879077e-16            4            2            3 1.6151995e-16 
    1405    20074.716        9 8.9054275e-16            4            2            3 1.6161842e-16 
    1410    20139.366        9 8.932768e-16            4            2            3 1.6180703e-16 
    1415     20203.99        9 8.9593018e-16            4            2            3 1.6190608e-16 
    1420    20268.969        9 8.9868296e-16            4            2            3 1.6209561e-16 
    1425    20333.773        9 9.0135479e-16            4            2            3 1.6219523e-16 
    1430    20398.471       10 9.0412645e-16            4            2            4 1.6238569e-16 
    1435     20463.67       10 9.0681685e-16            4            2            4 1.6248588e-16 
    1440    20528.868       10 9.0960751e-16            4            2            4 1.6267727e-16 
    1445      20593.7       10 9.1231662e-16            4            2            4 1.6277804e-16 
    1450    20659.122       10 9.151264e-16            4            2            4 1.6297036e-16 
    1455    20725.809       10 9.1785433e-16            4            2            4 1.630717e-16 
    1460    20791.711       10 9.2068336e-16            4            2            4 1.6326495e-16 
    1465    20857.267       10 9.2343026e-16            4            2            4 1.6336686e-16 
    1470    20923.962       10 9.2627867e-16            4            2            4 1.6356105e-16 
    1475    20990.337       10 9.2904465e-16            4            2            4 1.6366353e-16 
    1480    21056.787       10 9.3191257e-16            4            2            4 1.6385865e-16 
    1485    21123.851       10 9.3469777e-16            4            2            4 1.639617e-16 
    1490    21190.653       10 9.3758534e-16            4            2            4 1.6415776e-16 
    1495    21257.589       10 9.4038988e-16            4            2            4 1.6426138e-16 
    1500    21324.154       10 9.4329722e-16            4            2            4 1.6445838e-16 
    1505    21390.963       10 9.4612124e-16            4            2            4 1.6456257e-16 
    1510    21457.689       10 9.4904848e-16            4            2            4 1.647605e-16 
    1515    21524.233       10 9.5189211e-16            4            2            4 1.6486527e-16 
    1520    21590.854       10 9.548394e-16            4            2            4 1.6506414e-16 
    1525    21657.619       10 9.5770277e-16            4            2            4 1.6516948e-16 
    1530    21724.283       10 9.6067024e-16            4            2            4 1.6536928e-16 
    1535    21791.283       10 9.6355349e-16            4            2            4 1.654752e-16 
    1540    21858.349       10 9.6654126e-16            4            2            4 1.6567594e-16 
    1545    21925.458       10 9.6944453e-16            4            2            4 1.6578243e-16 
    1550    21992.479       10 9.7245275e-16            4            2            4 1.659841e-16 
    1555    22060.484       10 9.7537616e-16            4            2            4 1.6609117e-16 
    1560    22128.208       10 9.7840496e-16            4            2            4 1.6629378e-16 
    1565    22196.228       10 9.8134867e-16            4            2            4 1.6640143e-16 
    1570     22264.23       10 9.8439819e-16            4            2            4 1.6660498e-16 
    1575    22332.272       10 9.8736232e-16            4            2            4 1.667132e-16 
    1580     22401.42       10 9.9043271e-16            4            2            4 1.6691769e-16 
    1585    22469.556       10 9.934174e-16            4            2            4 1.6702648e-16 
    1590    22537.817       10 9.9650879e-16            4            2            4 1.6723192e-16 
    1595    22605.912       10 9.9951419e-16            4            2            4 1.6734129e-16 
    1600    22674.282       10 1.0026267e-15            4            2            4 1.6754767e-16 
    1605    22744.548       10 1.005653e-15            4            2            4 1.6765762e-16 
    1610    22812.931       10 1.0087868e-15            4            2            4 1.6786495e-16 
    1615    22881.409       10 1.011834e-15            4            2            4 1.6797547e-16 
    1620    22950.293       10 1.0149893e-15            4            2            4 1.6818375e-16 
    1625    23014.893       10 1.0180577e-15            4            2            4 1.6829485e-16 
    1630    23077.678       10 1.0212345e-15            4            2            4 1.6850407e-16 
    1635    23140.456       10 1.0243242e-15            4            2            4 1.6861575e-16 
    1640    23203.288       10 1.0275227e-15            4            2            4 1.6882591e-16 
    1645    23266.083       10 1.0306338e-15            4            2            4 1.6893817e-16 
    1650    23329.147       10 1.0338542e-15            4            2            4 1.6914928e-16 
    1655    23392.172       10 1.0369868e-15            4            2            4 1.6926212e-16 
    1660    23455.363       10 1.0402293e-15            4            2            4 1.6947418e-16 
    1665    23518.431       10 1.0433836e-15            4            2            4 1.695876e-16 
    1670    23581.878       10 1.0466482e-15            4            2            4 1.6980061e-16 
    1675    23645.321       10 1.0498244e-15            4            2            4 1.699146e-16 
    1680    23708.852       10 1.0531113e-15            4            2            4 1.7012856e-16 
    1685    23772.344       10 1.0563096e-15            4            2            4 1.7024313e-16 
    1690    23835.885       10 1.0596189e-15            4            2            4 1.7045804e-16 
    1695    23899.423       10 1.0628393e-15            4            2            4 1.7057319e-16 
    1700    23962.964       10 1.0661713e-15            4            2            4 1.7078906e-16 
    1705    24026.616       10 1.069414e-15            4            2            4 1.7090478e-16 
    1710    24090.604       10 1.0727687e-15            4            2            4 1.711216e-16 
    1715    24154.682       10 1.0760339e-15            4            2            4 1.712379e-16 
    1720    24218.938       10 1.0794116e-15            4            2            4 1.7145567e-16 
    1725    24283.652       10 1.0826994e-15            4            2            4 1.7157256e-16 
    1730    24348.103       10 1.0861001e-15            4            2            4 1.7179128e-16 
    1735    24412.579       10 1.0894107e-15            4            2            4 1.7190874e-16 
    1740    24477.191       10 1.0928346e-15            4            2            4 1.7212841e-16 
    1745    24541.606       10 1.0961681e-15            4            2            4 1.7224646e-16 
    1750    24606.257       10 1.0996155e-15            4            2            4 1.7246708e-16 
    1755    24670.925       10 1.1029721e-15            4            2            4 1.7258571e-16 
    1760    24735.565       10 1.106443e-15            4            2            4 1.7280729e-16 
    1765    24800.264       10 1.1098228e-15            4            2            4 1.7292649e-16 
    1770    24864.983       10 1.1133174e-15            4            2            4 1.7314903e-16 
    1775    24930.182       10 1.1167206e-15            4            2            4 1.7326882e-16 
    1780     24995.35       10 1.1202391e-15            4            2            4 1.7349231e-16 
    1785    25060.539       10 1.1236659e-15            4            2            4 1.7361267e-16 
    1790    25125.899       10 1.1272083e-15            4            2            4 1.7383712e-16 
    1795    25191.243       10 1.1306589e-15            4            2            4 1.7395807e-16 
    1800    25256.907       10 1.1342255e-15            4            2            4 1.7418347e-16 
    1805    25322.293       10 1.1376999e-15            4            2            4  1.74305e-16 
    1810     25387.94       10 1.1412909e-15            4            2            4 1.7453136e-16 
    1815    25453.534       10 1.1447894e-15            4            2            4 1.7465347e-16 
    1820    25519.372       10 1.1484049e-15            4            2            4 1.7488079e-16 
    1825    25585.456       10 1.1519276e-15            4            2            4 1.7500347e-16 
    1830    25651.313       10 1.1555678e-15            4            2            4 1.7523176e-16 
    1835    25721.432       11 1.1591149e-15            4            2            5 1.7535507e-16 
    1840    25786.995       11 1.1627801e-15            4            2            5 1.7558445e-16 
    1845    25852.803       11 1.1663517e-15            4            2            5 1.7570834e-16 
    1850     25919.01       11 1.1700418e-15            4            2            5 1.7593858e-16 
    1855    25985.179       11 1.1736382e-15            4            2            5 1.7606302e-16 
    1860    26051.637       11 1.1773534e-15            4            2            5 1.762942e-16 
    1865    26118.065       11 1.1809746e-15            4            2            5 1.7641921e-16 
    1870    26184.509       11 1.1847152e-15            4            2            5 1.7665134e-16 
    1875    26250.944       11 1.1883615e-15            4            2            5 1.7677694e-16 
    1880    26317.891       11 1.1921276e-15            4            2            5 1.7701003e-16 
    1885    26384.797       11 1.1957991e-15            4            2            5 1.771362e-16 
    1890    26451.625       11 1.1995909e-15            4            2            5 1.7737025e-16 
    1895     26518.69       11 1.2032878e-15            4            2            5 1.7749701e-16 
    1900     26585.58       11 1.2071055e-15            4            2            5 1.7773202e-16 
    1905    26652.795       12 1.210828e-15            5            2            5 1.7785936e-16 
    1910    26719.866       12 1.2146717e-15            5            2            5 1.7809534e-16 
    1915    26786.883       12 1.2184199e-15            5            2            5 1.7822326e-16 
    1920    26854.219       12 1.2222898e-15            5            2            5 1.784602e-16 
    1925     26921.61       12 1.226064e-15            5            2            5 1.7858871e-16 
    1930    26988.847       12 1.2299603e-15            5            2            5 1.7882663e-16 
    1935    27056.348       12 1.2337606e-15            5            2            5 1.7895572e-16 
    1940    27126.302       12 1.2376835e-15            5            2            5 1.7919462e-16 
    1945    27194.081       12 1.2415101e-15            5            2            5 1.7932431e-16 
    1950    27261.985       12 1.2454598e-15            5            2            5 1.7956418e-16 
    1955    27329.696       12 1.2493128e-15            5            2            5 1.7969446e-16 
    1960    27397.619       12 1.2532894e-15            5            2            5 1.7993532e-16 
    1965    27465.402       12 1.2571691e-15            5            2            5 1.8006619e-16 
    1970    27533.732       12 1.2611729e-15            5            2            5 1.8030802e-16 
    1975     27602.58       12 1.2650794e-15            5            2            5 1.8043948e-16 
    1980    27671.104       12 1.2691105e-15            5            2            5 1.806823e-16 
    1985    27739.411       12 1.2730441e-15            5            2            5 1.8081435e-16 
    1990    27808.045       12 1.2771026e-15            5            2            5 1.8105814e-16 
    1995    27876.656       12 1.2810634e-15            5            2            5 1.8119079e-16 
    2000    27945.449       12 1.2851497e-15            5            2            5 1.8143556e-16 
    2005    28014.543       12 1.2891378e-15            5            2            5 1.815688e-16 
    2010    28083.456       12 1.2932519e-15            5            2            5 1.8181456e-16 
    2015    28152.643       12 1.2972677e-15            5            2            5 1.8194839e-16 
    2020    28221.855       13 1.3014099e-15            6            2            5 1.8219513e-16 
    2025    28291.101       14 1.3054533e-15            7            2            5 1.8232954e-16 
    2030    28360.752       14 1.3096238e-15            7            2            5 1.8257727e-16 
    2035    28430.161       14 1.3136952e-15            7            2            5 1.8271228e-16 
    2040    28499.825       14 1.3178941e-15            7            2            5 1.8296098e-16 
    2045     28569.64       14 1.3219937e-15            7            2            5 1.8309659e-16 
    2050    28639.424       14 1.3262213e-15            7            2            5 1.8334628e-16 
    2055    28709.354       14 1.3303492e-15            7            2            5 1.8348247e-16 
    2060    28779.438       14 1.3346056e-15            7            2            5 1.8373315e-16 
    2065    28849.556       14 1.338762e-15            7            2            5 1.8386993e-16 
    2070    28919.773       14 1.3430474e-15            7            2            5 1.8412159e-16 
    2075    28989.786       14 1.3472326e-15            7            2            5 1.8425897e-16 
    2080    29060.589       14 1.3515473e-15            7            2            5 1.8451162e-16 
    2085    29131.061       14 1.3557614e-15            7            2            5 1.8464959e-16 
    2090    29201.614       14 1.3601054e-15            7            2            5 1.8490322e-16 
    2095    29272.016       14 1.3643487e-15            7            2            5 1.8504178e-16 
    2100    29342.746       14 1.3687223e-15            7            2            5 1.852964e-16 
    2105     29413.25       14 1.3729949e-15            7            2            5 1.8543555e-16 
    2110    29484.099       14 1.3773984e-15            7            2            5 1.8569116e-16 
    2115    29555.108       14 1.3817005e-15            7            2            5 1.858309e-16 
    2120    29626.066       14 1.386134e-15            7            2            5 1.860875e-16 
    2125     29696.69       14 1.3904659e-15            7            2            5 1.8622783e-16 
    2130    29767.635       15 1.3949296e-15            7            2            6 1.8648542e-16 
    2135    29838.546       15 1.3992914e-15            7            2            6 1.8662635e-16 
    2140    29909.992       15 1.4037856e-15            7            2            6 1.8688492e-16 
    2145     29981.24       15 1.4081775e-15            7            2            6 1.8702645e-16 
    2150    30052.501       15 1.4127024e-15            7            2            6 1.8728602e-16 
    2155    30123.985       15 1.4171246e-15            7            2            6 1.8742815e-16 
    2160    30195.486       15 1.4216803e-15            7            2            6 1.8768872e-16 
    2165    30266.876       15 1.4261332e-15            7            2            6 1.8783145e-16 
    2170    30338.429       15 1.4307199e-15            7            2            6 1.8809302e-16 
    2175     30410.05       15 1.4352036e-15            7            2            6 1.8823635e-16 
    2180    30481.779       15 1.4398216e-15            7            2            6 1.8849892e-16 
    2185    30553.445       15 1.4443362e-15            7            2            6 1.8864284e-16 
    2190    30624.843       15 1.4489857e-15            7            2            6 1.8890641e-16 
    2195    30696.571       15 1.4535315e-15            7            2            6 1.8905094e-16 
    2200    30768.286       15 1.4582128e-15            7            2            6 1.8931551e-16 
    2205    30839.921       15  1.46279e-15            7            2            6 1.8946063e-16 
    2210    30912.124       15 1.4675031e-15            7            2            6 1.8972621e-16 
    2215    30984.302       15 1.472112e-15            7            2            6 1.8987193e-16 
    2220    31056.896       15 1.4768573e-15            7            2            6 1.9013851e-16 
    2225    31129.256       15 1.481498e-15            7            2            6 1.9028483e-16 
    2230     31201.61       15 1.4862756e-15            7            2            6 1.9055241e-16 
    2235    31274.995       15 1.4909484e-15            7            2            6 1.9069933e-16 
    2240    31347.587       15 1.4957586e-15            7            2            6 1.9096791e-16 
    2245    31420.534       15 1.5004636e-15            7            2            6 1.9111543e-16 
    2250    31493.325       15 1.5053067e-15            7            2            6 1.9138502e-16 
    2255     31566.04       15 1.5100442e-15            7            2            6 1.9153314e-16 
    2260    31638.883       15 1.5149202e-15            7            2            6 1.9180373e-16 
    2265    31711.808       15 1.5196905e-15            7            2            6 1.9195245e-16 
    2270    31785.302       15 1.5245998e-15            7            2            6 1.9222404e-16 
    2275    31858.754       15 1.529403e-15            7            2            6 1.9237336e-16 
    2280    31932.154       15 1.5343458e-15            7            2            6 1.9264596e-16 
    2285    32005.625       15 1.5391822e-15            7            2            6 1.9279588e-16 
    2290    32079.525       15 1.5441587e-15            7            2            6 1.9306949e-16 
    2295     32153.39       15 1.5490285e-15            7            2            6 1.9322001e-16 
    2300    32227.311       15 1.5540389e-15            7            2            6 1.9349462e-16 
    2305    32301.079       15 1.5589424e-15            7            2            6 1.9364574e-16 
    2310    32374.882       15 1.5639869e-15            7            2            6 1.9392135e-16 
    2315    32452.463       15 1.5689243e-15            7            2            6 1.9407307e-16 
    2320    32529.697       15 1.5740032e-15            7            2            6 1.943497e-16 
    2325    32607.264       15 1.5789746e-15            7            2            6 1.9450202e-16 
    2330    32685.538       15 1.5840882e-15            7            2            6 1.9477965e-16 
    2335    32767.268       15 1.589094e-15            7            2            6 1.9493257e-16 
    2340    32844.566       15 1.5942425e-15            7            2            6 1.9521121e-16 
    2345    32921.676       15 1.5992828e-15            7            2            6 1.9536473e-16 
    2350    32996.855       15 1.6044664e-15            7            2            6 1.9564437e-16 
    2355    33071.987       15 1.6095415e-15            7            2            6 1.9579849e-16 
    2360     33147.15       15 1.6147604e-15            7            2            6 1.9607915e-16 
    2365    33223.057       15 1.6198706e-15            7            2            6 1.9623387e-16 
    2370    33298.793       15 1.6251251e-15            7            2            6 1.9651554e-16 
    2375    33374.896       15 1.6302706e-15            7            2            6 1.9667086e-16 
    2380    33451.908       15 1.6355609e-15            7            2            6 1.9695353e-16 
    2385     33529.79       15 1.6407419e-15            7            2            6 1.9710945e-16 
    2390    33605.878       15 1.6460683e-15            7            2            6 1.9739314e-16 
    2395    33682.068       15 1.6512851e-15            7            2            6 1.9754966e-16 
    2400    33758.136       15 1.6566478e-15            7            2            6 1.9783436e-16 
    2405    33837.716       15 1.6619007e-15            7            2            6 1.9799148e-16 
    2410    33914.984       15 1.6672999e-15            7            2            6 1.9827719e-16 
    2415    33992.836       15 1.6725891e-15            7            2            6 1.9843492e-16 
    2420    34070.397       16 1.6780251e-15            7            2            7 1.9872164e-16 
    2425    34147.739       16 1.6833508e-15            7            2            7 1.9887996e-16 
    2430    34225.148       16 1.6888239e-15            7            2            7 1.991677e-16 
    2435    34301.686       16 1.6941864e-15            7            2            7 1.9932662e-16 
    2440    34378.059       16 1.6996968e-15            7            2            7 1.9961537e-16 
    2445    34454.522       16 1.7050963e-15            7            2            7 1.9977489e-16 
    2450    34531.663       16 1.7106443e-15            7            2            7 2.0006466e-16 
    2455    34608.584       16 1.716081e-15            7            2            7 2.0022478e-16 
    2460      34685.6       16 1.7216669e-15            7            2            7 2.0051556e-16 
    2465    34762.831       16 1.7271412e-15            7            2            7 2.0067629e-16 
    2470    34840.229       17 1.7327651e-15            7            2            8 2.0096808e-16 
    2475    34917.542       17 1.7382772e-15            7            2            8 2.0112941e-16 
    2480     34995.04       17 1.7439395e-15            7            2            8 2.0142222e-16 
    2485    35072.608       17 1.7494897e-15            7            2            8 2.0158415e-16 
    2490    35150.206       17 1.7551905e-15            7            2            8 2.0187798e-16 
    2495    35227.776       17 1.760779e-15            7            2            8 2.0204051e-16 
    2500    35305.517       17 1.7665188e-15            7            2            8 2.0233536e-16 
    2505     35383.41       17 1.7721459e-15            7            2            8 2.024985e-16 
    2510    35461.418       17 1.7779248e-15            7            2            8 2.0279436e-16 
    2515    35539.214       18 1.7835908e-15            8            2            8 2.0295811e-16 
    2520     35617.22       18 1.7894091e-15            8            2            8  2.03255e-16 
    2525    35695.112       18 1.7951142e-15            8            2            8 2.0341935e-16 
    2530    35773.477       18 1.8009722e-15            8            2            8 2.0371726e-16 
    2535    35851.573       18 1.8067166e-15            8            2            8 2.0388221e-16 
    2540    35930.081       18 1.8126146e-15            8            2            8 2.0418115e-16 
    2545    36008.312       18 1.8183987e-15            8            2            8 2.0434671e-16 
    2550    36087.016       18 1.8243369e-15            8            2            8 2.0464667e-16 
    2555    36165.555       18 1.830161e-15            8            2            8 2.0481284e-16 
    2560    36244.326       18 1.8361397e-15            8            2            8 2.0511382e-16 
    2565    36322.933       18 1.842004e-15            8            2            8 2.0528059e-16 
    2570     36401.79       18 1.8480234e-15            8            2            8 2.055826e-16 
    2575    36480.704       18 1.8539282e-15            8            2            8 2.0574998e-16 
    2580    36559.563       18 1.8599887e-15            8            2            8 2.0605302e-16 
    2585    36638.431       18 1.8659343e-15            8            2            8  2.06221e-16 
    2590    36717.524       18 1.8720362e-15            8            2            8 2.0652506e-16 
    2595    36796.702       18 1.8780228e-15            8            2            8 2.0669365e-16 
    2600    36875.858       18 1.8841663e-15            8            2            8 2.0699874e-16 
    2605    36955.398       18 1.8901942e-15            8            2            8 2.0716794e-16 
    2610    37035.228       18 1.8963796e-15            8            2            8 2.0747406e-16 
    2615    37114.768       18 1.9024492e-15            8            2            8 2.0764386e-16 
    2620    37194.732       18 1.9086768e-15            8            2            8 2.0795101e-16 
    2625    37274.424       18 1.9147883e-15            8            2            8 2.0812142e-16 
    2630    37354.239       18 1.9210584e-15            8            2            8 2.084296e-16 
    2635    37434.031       18 1.9272121e-15            8            2            8 2.0860061e-16 
    2640     37513.94       18 1.9335249e-15            8            2            8 2.0890982e-16 
    2645    37593.823       18 1.9397211e-15            8            2            8 2.0908145e-16 
    2650    37674.259       18 1.946077e-15            8            2            8 2.0939169e-16 
    2655    37754.847       18 1.952316e-15            8            2            8 2.0956392e-16 
    2660     37835.33       18 1.9587153e-15            8            2            8 2.0987519e-16 
    2665    37916.237       18 1.9649973e-15            8            2            8 2.1004803e-16 
    2670    37996.961       18 1.9714403e-15            8            2            8 2.1036034e-16 
    2675    38077.852       18 1.9777657e-15            8            2            8 2.1053378e-16 
    2680    38159.998       18 1.9842526e-15            8            2            8 2.1084713e-16 
    2685    38241.378       18 1.9906217e-15            8            2            8 2.1102118e-16 
    2690    38322.556       18 1.9971529e-15            8            2            8 2.1133556e-16 
    2695    38403.816       18 2.003566e-15            8            2            8 2.1151022e-16 
    2700     38485.16       18 2.0101417e-15            8            2            8 2.1182563e-16 
    2705     38566.73       18 2.0165991e-15            8            2            8 2.120009e-16 
    2710    38650.947       18 2.0232197e-15            8            2            8 2.1231735e-16 
    2715    38733.473       18 2.0297217e-15            8            2            8 2.1249323e-16 
    2720    38816.039       18 2.0363874e-15            8            2            8 2.1281072e-16 
    2725    38900.138       18 2.0429344e-15            8            2            8 2.1298721e-16 
    2730    38983.481       18 2.0496456e-15            8            2            8 2.1330574e-16 
    2735    39065.659       18 2.0562377e-15            8            2            8 2.1348284e-16 
    2740    39148.331       18 2.0629947e-15            8            2            8 2.138024e-16 
    2745    39231.076       18 2.0696324e-15            8            2            8 2.1398011e-16 
    2750     39314.17       18 2.0764355e-15            8            2            8 2.1430072e-16 
    2755    39397.414       18 2.083119e-15            8            2            8 2.1447904e-16 
    2760    39562.618       18 2.0899686e-