ITEM: TIMESTEP
0
ITEM: NUMBER OF ATOMS
5
ITEM: BOX BOUNDS ff ff ff
0 0.0001
0 0.0001
0 0.0001
ITEM: ATOMS id type diameter x y z vx vy vz fx fy fz 
2 2 1.2839e-06 5e-05 4.9e-05 2e-06 0 0 0 -7.678e-05 0 0 
5 5 1.4839e-06 5.1e-05 4.9e-05 2e-06 0 0 0 7.678e-05 -5.122e-05 0 
4 4 1.0539e-06 4.9e-05 5e-05 2e-06 0 0 0 0 0 0 
3 3 1.0283e-06 5.1e-05 5e-05 2e-06 0 0 0 0 5.122e-05 0 
1 1 1.0839e-06 5e-05 5.1e-05 2e-06 0 0 0 0 0 0 
ITEM: TIMESTEP
500
ITEM: NUMBER OF ATOMS
6
ITEM: BOX BOUNDS ff ff ff
0 0.0001
0 0.0001
0 0.0001
ITEM: ATOMS id type diameter x y z vx vy vz fx fy fz 
2 2 1.35581e-06 4.55855e-05 4.90858e-05 2.00347e-06 -9.97772e-10 6.67184e-11 7.95672e-13 0 0 0 
5 5 1.4839e-06 5.2058e-05 4.43721e-05 1.87939e-06 1.43815e-10 -9.89227e-10 -2.73258e-11 0 0 0 
4 4 1.05045e-06 4.52479e-05 5.30831e-05 2.00101e-06 -7.41799e-10 6.70622e-10 1.64744e-13 0 0 0 
3 3 1.07736e-06 5.42902e-05 4.68973e-05 2.71437e-06 6.97811e-10 -6.99044e-10 1.56199e-10 0 0 0 
1 1 1.22057e-06 4.70465e-05 5.41538e-05 1.09293e-06 -6.97811e-10 6.99044e-10 -1.56199e-10 0 0 0 
6 4 9.07185e-07 4.88923e-05 5.58213e-05 5.53803e-06 -2.05127e-10 7.7122e-10 6.02613e-10 0 0 0 
ITEM: TIMESTEP
1000
ITEM: NUMBER OF ATOMS
8
ITEM: BOX BOUNDS ff ff ff
0 0.0001
0 0.0001
0 0.0001
ITEM: ATOMS id type diameter x y z vx vy vz fx fy fz 
2 2 1.16911e-06 4.42907e-05 4.74723e-05 1.55297e-06 -5.77838e-11 6.1053e-10 7.89883e-10 0 0 0 
5 5 1.4839e-06 5.27771e-05 3.9426e-05 1.74276e-06 1.43815e-10 -9.89227e-10 -2.73258e-11 0 0 0 
4 4 1.04701e-06 4.15389e-05 5.64362e-05 2.00183e-06 -7.41799e-10 6.70622e-10 1.64744e-13 0 0 0 
3 3 1.12876e-06 5.77793e-05 4.34021e-05 3.49536e-06 6.97811e-10 -6.99044e-10 1.56199e-10 0 0 0 
1 1 1.37448e-06 4.63659e-05 5.4821e-05 9.55422e-07 4.85836e-10 -7.81335e-10 3.91764e-10 1.30859e-06 -2.10451e-06 1.05521e-06 
6 4 9.04215e-07 4.78667e-05 5.96774e-05 8.55109e-06 -2.05127e-10 7.7122e-10 6.02613e-10 0 0 0 
7 2 1.10166e-06 4.37966e-05 5.26923e-05 4.03948e-06 -8.16025e-11 8.62192e-10 4.99966e-10 0 0 0 
8 4 9.86742e-07 4.57988e-05 5.57329e-05 4.98177e-07 -4.85836e-10 7.81335e-10 -3.91764e-10 -1.30859e-06 2.10451e-06 -1.05521e-06 
ITEM: TIMESTEP
1500
ITEM: NUMBER OF ATOMS
9
ITEM: BOX BOUNDS ff ff ff
0 0.0001
0 0.0001
0 0.0001
ITEM: ATOMS id type diameter x y z vx vy vz fx fy fz 
8 4 9.83512e-07 4.56827e-05 5.59196e-05 5.05093e-07 -5.25687e-10 8.45424e-10 -9.43971e-11 -1.47368e-06 2.37002e-06 -2.64628e-07 
9 1 1.23546e-06 4.62586e-05 5.49935e-05 6.08502e-07 4.47098e-10 -7.19036e-10 5.32062e-10 1.77333e-06 -2.85192e-06 2.11032e-06 
1 1 1.22143e-06 4.67222e-05 5.42479e-05 1.47638e-06 -3.7553e-10 6.03938e-10 -7.03019e-10 -3.12712e-13 5.02913e-13 -5.8542e-13 
5 5 1.4839e-06 5.34961e-05 3.44798e-05 1.60614e-06 1.43815e-10 -9.89227e-10 -2.73258e-11 0 0 0 
2 2 1.23459e-06 4.40017e-05 5.0525e-05 5.50239e-06 -5.77838e-11 6.1053e-10 7.89883e-10 0 0 0 
4 4 1.04358e-06 3.78299e-05 5.97893e-05 2.00265e-06 -7.41799e-10 6.70622e-10 1.64744e-13 0 0 0 
3 3 1.18261e-06 6.12683e-05 3.99068e-05 4.27636e-06 6.97811e-10 -6.99044e-10 1.56199e-10 0 0 0 
7 2 1.16337e-06 4.33886e-05 5.70033e-05 6.53931e-06 -8.16025e-11 8.62192e-10 4.99966e-10 0 0 0 
6 4 9.01254e-07 4.6841e-05 6.35335e-05 1.15642e-05 -2.05127e-10 7.7122e-10 6.02613e-10 0 0 0 
ITEM: TIMESTEP
2000
ITEM: NUMBER OF ATOMS
11
ITEM: BOX BOUNDS ff ff ff
0 0.0001
0 0.0001
0 0.0001
ITEM: ATOMS id type diameter x y z vx vy vz fx fy fz 
8 4 9.80292e-07 4.56903e-05 5.5902e-05 5.1636e-07 6.08415e-10 -7.79531e-10 1.4887e-10 2.0463e-13 -2.62182e-13 5.00699e-14 
9 1 1.39125e-06 4.6416e-05 5.49721e-05 6.93949e-07 -3.81273e-10 7.63365e-10 -5.21445e-10 -8.9896e-07 1.79985e-06 -1.22945e-06 
1 1 1.37545e-06 4.68573e-05 5.42125e-05 1.74978e-06 3.77597e-10 -3.2487e-10 8.6711e-10 9.466e-07 -8.14418e-07 2.17376e-06 
5 5 1.4839e-06 5.42152e-05 2.95337e-05 1.46951e-06 1.43815e-10 -9.89227e-10 -2.73258e-11 0 0 0 
2 2 1.30375e-06 4.37128e-05 5.35776e-05 9.4518e-06 -5.77838e-11 6.1053e-10 7.89883e-10 0 0 0 
4 4 1.04017e-06 3.41209e-05 6.31425e-05 2.00348e-06 -7.41799e-10 6.70622e-10 1.64744e-13 0 0 0 
3 3 1.23903e-06 6.47574e-05 3.64116e-05 5.05735e-06 6.97811e-10 -6.99044e-10 1.56199e-10 0 0 0 
7 2 1.22853e-06 4.29806e-05 6.13142e-05 9.03914e-06 -8.16025e-11 8.62192e-10 4.99966e-10 0 0 0 
6 4 8.98304e-07 4.58154e-05 6.73896e-05 1.45772e-05 -2.05127e-10 7.7122e-10 6.02613e-10 0 0 0 
10 4 9.55967e-07 4.639e-05 5.38052e-05 7.67187e-07 -2.56758e-10 -8.44268e-10 -4.70411e-10 -3.32673e-07 -1.09389e-06 -6.09497e-07 
11 4 9.48775e-07 4.86755e-05 5.2312e-05 5.93856e-06 3.69226e-10 -3.80714e-10 8.47779e-10 0 0 0 
ITEM: TIMESTEP
2500
ITEM: NUMBER OF ATOMS
15
ITEM: BOX BOUNDS ff ff ff
0 0.0001
0 0.0001
0 0.0001
ITEM: ATOMS id type diameter x y z vx vy vz fx fy fz 
10 4 9.52838e-07 4.56674e-05 4.96468e-05 6.59558e-07 1.30289e-10 8.21786e-10 5.547e-10 0 0 0 
12 1 1.19193e-06 4.66783e-05 5.43285e-05 7.95432e-07 -7.64571e-11 -3.48703e-11 -9.96463e-10 -4.52708e-08 -2.0647e-08 -5.90013e-07 
8 4 9.77082e-07 4.51362e-05 5.6627e-05 6.31488e-07 -8.23204e-10 5.59535e-10 9.62098e-11 0 0 0 
9 1 1.29106e-06 4.68803e-05 5.55955e-05 1.60379e-06 -1.21989e-10 -9.64992e-10 2.32183e-10 -6.49165e-14 -5.13523e-13 1.23557e-13 
5 5 1.4839e-06 5.49343e-05 2.45876e-05 1.33288e-06 1.43815e-10 -9.89227e-10 -2.73258e-11 0 0 0 
1 1 1.27248e-06 4.67723e-05 5.43714e-05 2.02033e-06 7.64582e-11 3.48706e-11 9.96463e-10 4.52715e-08 2.06471e-08 5.90013e-07 
13 1 1.18297e-06 4.89534e-05 5.12402e-05 6.02384e-06 3.68074e-10 -5.70651e-10 7.34084e-10 0 0 0 
4 4 1.03676e-06 3.04119e-05 6.64956e-05 2.0043e-06 -7.41799e-10 6.70622e-10 1.64744e-13 0 0 0 
3 3 1.29814e-06 6.82464e-05 3.29164e-05 5.83835e-06 6.97811e-10 -6.99044e-10 1.56199e-10 0 0 0 
11 4 9.45669e-07 5.05216e-05 5.04084e-05 1.01775e-05 3.69226e-10 -3.80714e-10 8.47779e-10 0 0 0 
2 2 1.37677e-06 4.34239e-05 5.66303e-05 1.34012e-05 -5.77838e-11 6.1053e-10 7.89883e-10 0 0 0 
7 2 1.29735e-06 4.25726e-05 6.56252e-05 1.1539e-05 -8.16025e-11 8.62192e-10 4.99966e-10 0 0 0 
6 4 8.95363e-07 4.47898e-05 7.12457e-05 1.75903e-05 -2.05127e-10 7.7122e-10 6.02613e-10 0 0 0 
14 4 9.60022e-07 4.50912e-05 5.45857e-05 4.82178e-07 -9.6891e-10 1.56977e-10 -1.91236e-10 -6.12895e-13 9.92975e-14 -1.20969e-13 
15 4 9.39405e-07 4.67009e-05 5.56567e-05 4.95592e-07 1.12384e-10 9.18337e-10 3.79508e-10 3.14929e-14 2.57341e-13 1.06347e-13 
ITEM: TIMESTEP
3000
ITEM: NUMBER OF ATOMS
20
ITEM: BOX BOUNDS ff ff ff
0 0.0001
0 0.0001
0 0.0001
ITEM: ATOMS id type diameter x y z vx vy vz fx fy fz 
10 4 9.49718e-07 4.54962e-05 5.06929e-05 1.33281e-06 3.51571e-10 4.917e-10 7.96636e-10 0 0 0 
12 1 1.34223e-06 4.69593e-05 5.38391e-05 6.7659e-07 2.43468e-10 -5.76582e-10 -7.79921e-10 4.65278e-14 -1.10187e-13 -1.49046e-13 
8 4 9.73884e-07 4.10202e-05 5.94247e-05 1.11254e-06 -8.23204e-10 5.59535e-10 9.62098e-11 0 0 0 
9 1 1.20227e-06 4.69209e-05 5.55786e-05 2.53849e-06 8.00344e-12 -4.18704e-10 -9.08088e-10 6.88255e-15 -3.60064e-13 -7.80909e-13 
5 5 1.4839e-06 5.56534e-05 1.96414e-05 1.19625e-06 1.43815e-10 -9.89227e-10 -2.73258e-11 0 0 0 
1 1 1.06014e-06 4.65861e-05 5.47228e-05 1.87197e-06 4.40987e-10 6.02629e-10 6.65109e-10 2.90034e-13 3.96345e-13 4.37438e-13 
13 1 1.33213e-06 4.61889e-05 5.02119e-05 9.19008e-06 -7.86032e-10 -1.13259e-10 6.07722e-10 0 0 0 
4 4 1.03337e-06 2.67029e-05 6.98487e-05 2.00512e-06 -7.41799e-10 6.70622e-10 1.64744e-13 0 0 0 
3 3 1.36007e-06 7.17355e-05 2.94212e-05 6.61934e-06 6.97811e-10 -6.99044e-10 1.56199e-10 0 0 0 
11 4 9.42573e-07 5.23678e-05 4.85049e-05 1.44164e-05 3.69226e-10 -3.80714e-10 8.47779e-10 0 0 0 
2 2 1.0807e-06 4.62114e-05 5.61198e-05 1.70585e-05 7.07367e-10 -3.45292e-10 6.1677e-10 0 0 0 
7 2 1.37001e-06 4.21646e-05 6.99361e-05 1.40388e-05 -8.16025e-11 8.62192e-10 4.99966e-10 0 0 0 
6 4 8.92431e-07 4.37641e-05 7.51018e-05 2.06034e-05 -2.05127e-10 7.7122e-10 6.02613e-10 0 0 0 
14 4 9.56879e-07 4.31897e-05 5.50742e-05 1.76413e-06 -9.44064e-10 2.35011e-10 2.3133e-10 0 0 0 
15 4 9.36329e-07 4.67259e-05 5.59098e-05 6.17795e-07 4.64642e-10 -4.05508e-10 7.87192e-10 9.09847e-14 -7.94052e-14 1.54146e-13 
16 2 1.21893e-06 4.04207e-05 5.89464e-05 1.20094e-05 -7.07367e-10 3.45292e-10 -6.1677e-10 0 0 0 
17 4 1.1007e-06 4.7402e-05 5.15815e-05 5.00565e-06 2.088e-10 -6.00385e-10 7.71971e-10 0 0 0 
18 4 9.09964e-07 5.33807e-05 5.12482e-05 3.62973e-06 7.86032e-10 1.13259e-10 -6.07722e-10 0 0 0 
19 1 1.10115e-06 4.71997e-05 5.54963e-05 1.42055e-06 -6.15323e-10 -1.84862e-10 7.66292e-10 -4.16765e-13 -1.25209e-13 5.19018e-13 
20 1 1.20524e-06 4.66464e-05 5.37734e-05 2.48777e-06 -5.31331e-11 8.37798e-10 -5.43389e-10 -1.76638e-14 2.7852e-13 -1.80646e-13 
ITEM: TIMESTEP
3500
ITEM: NUMBER OF ATOMS
28
ITEM: BOX BOUNDS ff ff ff
0 0.0001
0 0.0001
0 0.0001
ITEM: ATOMS id type diameter x y z vx vy vz fx fy fz 
12 1 1.12295e-06 4.73948e-05 5.38132e-05 6.27972e-07 -7.76873e-10 -3.79272e-10 5.02614e-10 -6.14604e-13 -3.00051e-13 3.97631e-13 
15 4 9.33264e-07 4.71447e-05 5.61674e-05 4.64513e-07 1.45386e-10 -6.50178e-10 7.45742e-10 8.26031e-08 -3.69409e-07 4.23706e-07 
5 5 1.4839e-06 5.63724e-05 1.46953e-05 1.05962e-06 1.43815e-10 -9.89227e-10 -2.73258e-11 0 0 0 
10 4 9.46609e-07 4.72541e-05 5.31514e-05 5.31599e-06 3.51571e-10 4.917e-10 7.96636e-10 0 0 0 
19 1 1.24e-06 4.73666e-05 5.51478e-05 1.65013e-06 7.19334e-10 -2.23638e-10 -6.57682e-10 1.73077e-06 -5.38091e-07 -1.58243e-06 
8 4 9.70695e-07 3.69042e-05 6.22224e-05 1.59359e-06 -8.23204e-10 5.59535e-10 9.62098e-11 0 0 0 
1 1 1.19382e-06 4.62076e-05 5.49168e-05 1.3858e-06 -6.76533e-10 1.13549e-12 -7.36411e-10 -1.80593e-06 3.03107e-09 -1.96577e-06 
14 4 9.53746e-07 3.84694e-05 5.62492e-05 2.92078e-06 -9.44064e-10 2.35011e-10 2.3133e-10 0 0 0 
20 1 1.35721e-06 4.66558e-05 5.35999e-05 2.52284e-06 4.09133e-11 -9.93751e-10 1.03847e-10 3.77952e-09 -9.18015e-08 9.59328e-09 
4 4 1.02998e-06 2.29939e-05 7.32018e-05 2.00595e-06 -7.41799e-10 6.70622e-10 1.64744e-13 0 0 0 
9 1 1.35387e-06 4.71474e-05 5.5784e-05 2.74813e-06 -1.70168e-10 4.9405e-10 8.52618e-10 -3.1088e-07 9.02584e-07 1.55765e-06 
18 4 9.06985e-07 5.73109e-05 5.18145e-05 5.91124e-07 7.86032e-10 1.13259e-10 -6.07722e-10 0 0 0 
17 4 1.09709e-06 4.8446e-05 4.85795e-05 8.86551e-06 2.088e-10 -6.00385e-10 7.71971e-10 0 0 0 
3 3 1.14581e-06 7.55266e-05 2.5577e-05 7.89114e-06 6.68443e-10 -6.84998e-10 2.89761e-10 0 0 0 
13 1 1.23191e-06 4.33162e-05 5.07247e-05 1.38029e-05 -3.49009e-10 1.999e-10 9.15551e-10 0 0 0 
16 2 1.2872e-06 3.68838e-05 6.06729e-05 8.92557e-06 -7.07367e-10 3.45292e-10 -6.1677e-10 0 0 0 
21 2 1.08212e-06 4.61004e-05 7.09053e-05 1.11968e-05 7.86032e-10 1.13259e-10 -6.07722e-10 0 0 0 
11 4 9.39487e-07 5.42139e-05 4.66013e-05 1.86552e-05 3.69226e-10 -3.80714e-10 8.47779e-10 0 0 0 
7 2 1.2076e-06 3.81068e-05 6.97535e-05 1.73771e-05 -7.86032e-10 -1.13259e-10 6.07722e-10 0 0 0 
2 2 1.14123e-06 4.97482e-05 5.43933e-05 2.01423e-05 7.07367e-10 -3.45292e-10 6.1677e-10 0 0 0 
6 4 8.8951e-07 4.27385e-05 7.89579e-05 2.36164e-05 -2.05127e-10 7.7122e-10 6.02613e-10 0 0 0 
22 1 1.26765e-06 4.64595e-05 5.33566e-05 1.23307e-06 7.46628e-10 3.34352e-10 5.75113e-10 7.92268e-13 3.54791e-13 6.10268e-13 
23 3 1.11577e-06 7.14991e-05 2.97042e-05 6.1453e-06 -6.68443e-10 6.84998e-10 -2.89761e-10 0 0 0 
24 1 1.14628e-06 4.59697e-05 4.8696e-05 8.4449e-06 4.35182e-10 -7.63277e-10 4.77519e-10 0 0 0 
25 4 1.0206e-06 4.66071e-05 5.47809e-05 2.39941e-06 1.87726e-10 -1.35407e-10 9.72843e-10 3.82257e-07 -2.75723e-07 1.98095e-06 
26 4 1.04037e-06 4.53376e-05 5.70413e-05 1.82715e-06 -7.70756e-10 5.09683e-10 -3.82305e-10 0 0 0 
27 4 9.11629e-07 4.44109e-05 5.00977e-05 1.09311e-05 3.49009e-10 -1.999e-10 -9.15551e-10 0 0 0 
28 4 8.91254e-07 4.46346e-05 5.10377e-05 6.97991e-06 -4.35182e-10 7.63277e-10 -4.77519e-10 0 0 0 
ITEM: TIMESTEP
4000
ITEM: NUMBER OF ATOMS
35
ITEM: BOX BOUNDS ff ff ff
0 0.0001
0 0.0001
0 0.0001
ITEM: ATOMS id type diameter x y z vx vy vz fx fy fz 
12 1 1.26454e-06 4.8177e-05 5.32201e-05 6.35398e-07 0 0 -1e-09 0 0 -1.33246e-22 
15 4 9.30208e-07 4.766e-05 5.71189e-05 1.47357e-06 2.64776e-10 9.06309e-10 3.29389e-10 0 0 0 
5 5 1.4839e-06 5.70915e-05 9.74915e-06 9.2299e-07 1.43815e-10 -9.89227e-10 -2.73258e-11 0 0 0 
10 4 9.4351e-07 4.90119e-05 5.56099e-05 9.29917e-06 3.51571e-10 4.917e-10 7.96636e-10 0 0 0 
19 1 1.39635e-06 4.91309e-05 5.58848e-05 2.82149e-06 2.49347e-10 9.68414e-10 -6.28565e-13 0 0 0 
8 4 9.67517e-07 3.27881e-05 6.502e-05 2.07463e-06 -8.23204e-10 5.59535e-10 9.62098e-11 0 0 0 
1 1 1.34436e-06 4.51608e-05 5.63213e-05 6.75751e-07 0 0 -1e-09 0 0 -1.51032e-22 
14 4 9.50623e-07 3.37491e-05 5.74243e-05 4.07744e-06 -9.44064e-10 2.35011e-10 2.3133e-10 0 0 0 
20 1 1.19872e-06 4.78808e-05 5.10297e-05 2.82464e-06 -2.49347e-10 -9.68414e-10 6.28565e-13 0 0 0 
4 4 1.02661e-06 1.92849e-05 7.65549e-05 2.00677e-06 -7.41799e-10 6.70622e-10 1.64744e-13 0 0 0 
9 1 1.15956e-06 4.99068e-05 5.72774e-05 5.64733e-06 6.35165e-10 4.87394e-10 5.99177e-10 0 0 0 
18 4 9.04015e-07 5.40086e-05 5.13386e-05 3.67151e-06 -7.30198e-10 -1.05214e-10 6.75086e-10 0 0 0 
17 4 1.0935e-06 4.949e-05 4.55776e-05 1.27254e-05 2.088e-10 -6.00385e-10 7.71971e-10 0 0 0 
3 3 1.20047e-06 7.88688e-05 2.2152e-05 9.33994e-06 6.68443e-10 -6.84998e-10 2.89761e-10 0 0 0 
13 1 1.38725e-06 4.15712e-05 5.17242e-05 1.83806e-05 -3.49009e-10 1.999e-10 9.15551e-10 0 0 0 
16 2 1.3593e-06 3.3347e-05 6.23994e-05 5.84172e-06 -7.07367e-10 3.45292e-10 -6.1677e-10 0 0 0 
21 2 1.14273e-06 5.00305e-05 7.14716e-05 8.15819e-06 7.86032e-10 1.13259e-10 -6.07722e-10 0 0 0 
11 4 9.36411e-07 5.606e-05 4.46977e-05 2.28941e-05 3.69226e-10 -3.80714e-10 8.47779e-10 0 0 0 
7 2 1.27524e-06 3.41766e-05 6.91872e-05 2.04157e-05 -7.86032e-10 -1.13259e-10 6.07722e-10 0 0 0 
2 2 1.20516e-06 5.3285e-05 5.26669e-05 2.32262e-05 7.07367e-10 -3.45292e-10 6.1677e-10 0 0 0 
6 4 8.86597e-07 4.17128e-05 8.2814e-05 2.66295e-05 -2.05127e-10 7.7122e-10 6.02613e-10 0 0 0 
22 1 1.4275e-06 4.67238e-05 5.30606e-05 1.41912e-06 5.40692e-10 -6.00888e-10 -5.88715e-10 8.40591e-07 -9.34175e-07 -9.1525e-07 
23 3 1.169e-06 6.81569e-05 3.31292e-05 4.69649e-06 -6.68443e-10 6.84998e-10 -2.89761e-10 0 0 0 
24 1 1.29082e-06 4.81456e-05 4.48796e-05 1.08325e-05 4.35182e-10 -7.63277e-10 4.77519e-10 0 0 0 
25 4 1.01726e-06 4.84533e-05 5.45194e-05 5.4299e-06 5.77252e-10 -1.04822e-10 8.0981e-10 0 0 0 
26 4 1.03696e-06 4.35324e-05 5.82351e-05 1.72184e-06 5.34062e-10 -3.53163e-10 7.6815e-10 0 0 0 
27 4 9.08644e-07 4.5695e-05 4.88525e-05 7.6238e-06 -2.73885e-10 -5.31912e-10 8.01284e-10 0 0 0 
28 4 8.88336e-07 4.24587e-05 5.48541e-05 4.59231e-06 -4.35182e-10 7.63277e-10 -4.77519e-10 0 0 0 
29 1 1.22705e-06 4.60104e-05 5.38535e-05 2.19593e-06 -5.40692e-10 6.00888e-10 5.88715e-10 -8.40591e-07 9.34175e-07 9.15249e-07 
30 1 1.25667e-06 4.74995e-05 5.99993e-05 2.38305e-06 1.99925e-10 9.79641e-10 1.82496e-11 0 0 0 
31 4 9.5014e-07 4.6864e-05 5.43751e-05 4.72496e-07 -3.95498e-10 -2.10593e-10 8.93998e-10 -2.27762e-07 -1.21278e-07 5.14841e-07 
32 4 1.00816e-06 4.50219e-05 5.46228e-05 8.15218e-07 -9.0423e-10 2.8206e-10 -3.2064e-10 -7.99048e-13 2.4925e-13 -2.83343e-13 
33 4 8.9277e-07 4.64911e-05 5.03985e-05 5.29484e-06 2.73885e-10 5.31912e-10 -8.01284e-10 0 0 0 
34 4 1.03874e-06 4.5763e-05 5.20855e-05 9.00357e-07 3.6333e-10 3.69115e-10 8.55421e-10 0 0 0 
35 4 8.36831e-07 4.64877e-05 5.41656e-05 1.33499e-06 6.64612e-10 -5.6517e-10 4.88747e-10 7.4022e-13 -6.29466e-13 5.44349e-13 
ITEM: TIMESTEP
4500
ITEM: NUMBER OF ATOMS
52
ITEM: BOX BOUNDS ff ff ff
0 0.0001
0 0.0001
0 0.0001
ITEM: ATOMS id type diameter x y z vx vy vz fx fy fz 
31 4 9.47029e-07 4.6901e-05 5.43281e-05 7.53167e-07 5.36559e-10 -6.29447e-10 5.62051e-10 0 0 0 
5 5 1.4839e-06 5.78106e-05 4.80301e-06 7.86361e-07 1.43815e-10 -9.89227e-10 -2.73258e-11 0 0 0 
34 4 1.03534e-06 4.59979e-05 5.21587e-05 9.65281e-07 8.91422e-10 1.40667e-10 4.3079e-10 3.39388e-13 5.35555e-14 1.64013e-13 
12 1 1.05726e-06 4.80654e-05 5.36446e-05 1.25514e-06 -5.52519e-10 -7.84229e-10 2.82326e-10 -4.64844e-13 -6.59786e-13 2.37526e-13 
32 4 1.00486e-06 4.34212e-05 5.45658e-05 1.10048e-06 7.05059e-10 6.22718e-11 7.06409e-10 0 0 0 
1 1 1.24402e-06 4.51378e-05 5.63091e-05 1.77929e-06 -3.76966e-11 -1.99226e-11 9.99091e-10 -4.89743e-09 -2.58828e-09 1.29799e-07 
38 1 1.28321e-06 4.70378e-05 5.23228e-05 1.46781e-06 4.76948e-10 8.66445e-10 -1.4763e-10 5.41178e-13 9.83128e-13 -1.67511e-13 
35 4 8.34091e-07 4.59615e-05 5.45996e-05 2.21662e-06 6.59787e-11 -9.97053e-10 3.91452e-11 2.87556e-14 -4.34547e-13 1.70607e-14 
15 4 9.27163e-07 4.89838e-05 6.16504e-05 3.12051e-06 2.64776e-10 9.06309e-10 3.29389e-10 0 0 0 
22 1 1.26845e-06 4.73395e-05 5.33767e-05 2.13384e-06 9.9139e-10 -8.91904e-11 -9.58734e-11 1.76547e-06 -1.5883e-07 -1.70731e-07 
26 4 1.03357e-06 4.62027e-05 5.64693e-05 5.56259e-06 5.34062e-10 -3.53163e-10 7.6815e-10 0 0 0 
29 1 1.38178e-06 4.60347e-05 5.34941e-05 2.26002e-06 -9.9139e-10 8.91903e-11 9.58728e-11 -1.76547e-06 1.5883e-07 1.7073e-07 
36 1 1.32017e-06 4.91207e-05 5.69326e-05 1.5291e-06 -4.02314e-10 3.41246e-10 -8.49526e-10 0 0 0 
30 1 1.09881e-06 4.71002e-05 6.45265e-05 2.57628e-06 -9.81187e-10 1.79144e-10 -7.19723e-11 -8.99611e-13 1.6425e-13 -6.59885e-14 
8 4 9.64349e-07 2.86721e-05 6.78177e-05 2.55568e-06 -8.23204e-10 5.59535e-10 9.62098e-11 0 0 0 
4 4 1.02325e-06 1.55759e-05 7.9908e-05 2.0076e-06 -7.41799e-10 6.70622e-10 1.64744e-13 0 0 0 
20 1 1.34987e-06 4.66341e-05 4.61876e-05 2.82778e-06 -2.49347e-10 -9.68414e-10 6.28565e-13 0 0 0 
19 1 1.16644e-06 5.08735e-05 5.74301e-05 6.11089e-06 -9.8528e-10 5.82466e-11 -1.60719e-10 0 0 0 
18 4 9.01055e-07 5.03576e-05 5.08126e-05 7.04694e-06 -7.30198e-10 -1.05214e-10 6.75086e-10 0 0 0 
14 4 9.47511e-07 2.90287e-05 5.85993e-05 5.23409e-06 -9.44064e-10 2.35011e-10 2.3133e-10 0 0 0 
23 3 1.22477e-06 6.48147e-05 3.65542e-05 3.24768e-06 -6.68443e-10 6.84998e-10 -2.89761e-10 0 0 0 
28 4 8.85428e-07 4.02828e-05 5.86704e-05 2.20472e-06 -4.35182e-10 7.63277e-10 -4.77519e-10 0 0 0 
33 4 8.89847e-07 4.75568e-05 5.06772e-05 3.62049e-06 9.76009e-11 -8.37272e-10 5.38005e-10 0 0 0 
25 4 1.01393e-06 5.13396e-05 5.39953e-05 9.47895e-06 5.77252e-10 -1.04822e-10 8.0981e-10 0 0 0 
9 1 1.30577e-06 5.14992e-05 5.9051e-05 7.85994e-06 -9.64226e-10 -1.8276e-10 -1.92006e-10 0 0 0 
16 2 1.13369e-06 3.03632e-05 6.43037e-05 1.69828e-06 -4.02314e-10 3.41246e-10 -8.49526e-10 0 0 0 
27 4 9.05669e-07 4.43256e-05 4.61929e-05 1.16302e-05 -2.73885e-10 -5.31912e-10 8.01284e-10 0 0 0 
21 2 1.20674e-06 5.39607e-05 7.20379e-05 5.11958e-06 7.86032e-10 1.13259e-10 -6.07722e-10 0 0 0 
3 3 1.25774e-06 8.2211e-05 1.8727e-05 1.07888e-05 6.68443e-10 -6.84998e-10 2.89761e-10 0 0 0 
10 4 9.40421e-07 5.07698e-05 5.80684e-05 1.32824e-05 3.51571e-10 4.917e-10 7.96636e-10 0 0 0 
24 1 1.0828e-06 4.88249e-05 4.22001e-05 1.23696e-05 -3.14019e-10 8.97655e-10 -3.09203e-10 0 0 0 
17 4 1.08992e-06 5.0534e-05 4.25757e-05 1.65852e-05 2.088e-10 -6.00385e-10 7.71971e-10 0 0 0 
13 1 1.17018e-06 4.1597e-05 5.6079e-05 1.50623e-05 2.27847e-10 9.57037e-10 -1.79347e-10 0 0 0 
37 1 1.30255e-06 4.10337e-05 4.89318e-05 2.15572e-05 -7.40713e-10 6.71051e-10 -3.2173e-11 0 0 0 
7 2 1.34667e-06 3.02464e-05 6.86209e-05 2.34543e-05 -7.86032e-10 -1.13259e-10 6.07722e-10 0 0 0 
11 4 9.33345e-07 5.79061e-05 4.27942e-05 2.7133e-05 3.69226e-10 -3.80714e-10 8.47779e-10 0 0 0 
2 2 1.27266e-06 5.68219e-05 5.09404e-05 2.631e-05 7.07367e-10 -3.45292e-10 6.1677e-10 0 0 0 
6 4 8.83695e-07 4.06872e-05 8.66701e-05 2.96426e-05 -2.05127e-10 7.7122e-10 6.02613e-10 0 0 0 
39 1 1.15586e-06 4.5183e-05 5.6333e-05 5.81083e-07 3.76966e-11 1.99226e-11 -9.99091e-10 4.89743e-09 2.58828e-09 -1.29799e-07 
40 2 1.14487e-06 3.28528e-05 6.2192e-05 6.95527e-06 4.02314e-10 -3.41246e-10 8.49526e-10 0 0 0 
41 1 1.19482e-06 4.79786e-05 5.26512e-05 7.2003e-07 -5.86405e-10 2.69797e-10 7.63766e-10 -6.04488e-13 2.78117e-13 7.87319e-13 
42 1 1.14655e-06 4.91116e-05 6.41592e-05 2.72382e-06 9.81187e-10 -1.79144e-10 7.19723e-11 8.99611e-13 -1.6425e-13 6.59885e-14 
43 1 1.21685e-06 5.11612e-05 4.1269e-05 1.31169e-05 4.1708e-10 -8.80715e-10 2.24466e-10 0 0 0 
44 4 1.01257e-06 5.04185e-05 5.58317e-05 4.26964e-06 4.02314e-10 -3.41246e-10 8.49526e-10 0 0 0 
45 4 9.03232e-07 4.76595e-05 6.2208e-05 1.31275e-06 1.23071e-10 -8.64808e-10 -4.86786e-10 0 0 0 
46 4 9.08835e-07 5.39126e-05 5.72504e-05 6.60664e-06 9.8528e-10 -5.82466e-11 1.60719e-10 0 0 0 
47 4 1.07089e-06 5.46217e-05 5.96428e-05 8.48173e-06 9.64226e-10 1.8276e-10 1.92006e-10 0 0 0 
48 4 8.74489e-07 4.96617e-05 3.98083e-05 1.31935e-05 3.14019e-10 -8.97655e-10 3.09203e-10 0 0 0 
49 4 8.62308e-07 4.08944e-05 5.31281e-05 1.56153e-05 -2.27847e-10 -9.57037e-10 1.79347e-10 0 0 0 
50 4 1.0541e-06 4.34285e-05 4.67623e-05 2.16612e-05 7.40713e-10 -6.71051e-10 3.2173e-11 0 0 0 
51 4 8.73359e-07 5.06475e-05 6.26632e-05 2.26611e-06 7.41937e-10 -6.44593e-10 -1.84468e-10 0 0 0 
52 4 9.83707e-07 4.99348e-05 4.38586e-05 1.24569e-05 -4.1708e-10 8.80715e-10 -2.24466e-10 0 0 0 
ITEM: TIMESTEP
5000
ITEM: NUMBER OF ATOMS
69
ITEM: BOX BOUNDS ff ff ff
0 0.0001
0 0.0001
0 0.0001
ITEM: ATOMS id type diameter x y z vx vy vz fx fy fz 
31 4 9.43929e-07 4.65365e-05 5.50834e-05 7.88194e-07 -5.98856e-10 7.99986e-10 3.73336e-11 -1.46835e-12 1.96151e-12 9.15392e-14 
5 5 1.4839e-06 5.76416e-05 5.96541e-06 2.61116e-06 -1.19706e-10 8.23394e-10 5.547e-10 0 0 0 
34 4 1.03195e-06 4.53462e-05 5.14396e-05 6.33982e-07 2.4062e-10 1.40039e-10 9.60464e-10 0 0 0 
12 1 1.19058e-06 4.81993e-05 5.3968e-05 8.69869e-07 8.50389e-10 -5.23814e-10 4.95817e-11 1.10227e-12 -6.78963e-13 6.42674e-14 
32 4 1.00157e-06 4.10487e-05 5.40635e-05 2.2696e-06 -9.84651e-10 -1.72098e-10 2.90751e-11 0 0 0 
1 1 1.40089e-06 4.51133e-05 5.66169e-05 1.99758e-06 -1.44479e-10 1.59521e-10 9.76565e-10 -1.6536e-08 1.82576e-08 1.1177e-07 
38 1 1.09885e-06 4.65178e-05 5.21559e-05 1.99716e-06 -6.93146e-10 7.03682e-10 -1.56144e-10 -8.35257e-07 8.47953e-07 -1.88158e-07 
35 4 8.31361e-07 4.62027e-05 5.48779e-05 2.60461e-06 5.08384e-10 -8.11501e-10 2.88118e-10 0 0 0 
15 4 9.24127e-07 5.03077e-05 6.6182e-05 4.76746e-06 2.64776e-10 9.06309e-10 3.29389e-10 0 0 0 
22 1 1.42839e-06 4.72054e-05 5.35805e-05 2.15404e-06 -2.80492e-10 -2.86412e-10 9.16129e-10 -1.84863e-13 -1.88765e-13 6.03791e-13 
26 4 1.03018e-06 4.8873e-05 5.47034e-05 9.40334e-06 5.34062e-10 -3.53163e-10 7.6815e-10 0 0 0 
29 1 1.16876e-06 4.5617e-05 5.35167e-05 1.94916e-06 -4.86876e-10 4.64084e-10 -7.39985e-10 -7.19929e-08 6.86227e-08 -1.09419e-07 
36 1 1.20305e-06 4.65451e-05 5.87069e-05 9.91024e-07 -8.29167e-10 5.50176e-10 9.8939e-11 0 0 0 
30 1 1.23737e-06 4.21942e-05 6.54222e-05 2.21642e-06 -9.81187e-10 1.79144e-10 -7.19723e-11 0 0 0 
8 4 9.61192e-07 2.45561e-05 7.06154e-05 3.03673e-06 -8.23204e-10 5.59535e-10 9.62098e-11 0 0 0 
4 4 1.0199e-06 1.18669e-05 8.32611e-05 2.00842e-06 -7.41799e-10 6.70622e-10 1.64744e-13 0 0 0 
20 1 1.26548e-06 4.52807e-05 4.70671e-05 1.67975e-06 -8.65229e-10 -3.75821e-10 -3.3187e-10 0 0 0 
19 1 1.31352e-06 4.59471e-05 5.77213e-05 5.3073e-06 -9.8528e-10 5.82466e-11 -1.60719e-10 0 0 0 
18 4 8.98105e-07 4.67066e-05 5.02865e-05 1.04224e-05 -7.30198e-10 -1.05214e-10 6.75086e-10 0 0 0 
14 4 9.44409e-07 2.43084e-05 5.97744e-05 6.39074e-06 -9.44064e-10 2.35011e-10 2.3133e-10 0 0 0 
23 3 1.2832e-06 6.14725e-05 3.99792e-05 1.79887e-06 -6.68443e-10 6.84998e-10 -2.89761e-10 0 0 0 
28 4 8.82529e-07 3.90314e-05 6.08652e-05 1.51735e-06 2.76004e-10 -4.84091e-10 8.30348e-10 0 0 0 
33 4 8.86934e-07 4.80448e-05 4.64908e-05 6.31051e-06 9.76009e-11 -8.37272e-10 5.38005e-10 0 0 0 
25 4 1.01061e-06 5.42259e-05 5.34712e-05 1.3528e-05 5.77252e-10 -1.04822e-10 8.0981e-10 0 0 0 
9 1 1.10301e-06 4.96805e-05 5.61905e-05 7.86847e-06 4.1387e-10 -8.82352e-10 2.23979e-10 0 0 0 
16 2 1.1972e-06 3.04409e-05 6.42378e-05 4.14937e-06 1.66963e-10 -1.41619e-10 9.75739e-10 0 0 0 
27 4 9.02704e-07 4.29562e-05 4.35334e-05 1.56366e-05 -2.73885e-10 -5.31912e-10 8.01284e-10 0 0 0 
21 2 1.27433e-06 5.78908e-05 7.26041e-05 2.08097e-06 7.86032e-10 1.13259e-10 -6.07722e-10 0 0 0 
3 3 1.31775e-06 8.55532e-05 1.5302e-05 1.22376e-05 6.68443e-10 -6.84998e-10 2.89761e-10 0 0 0 
10 4 9.37342e-07 5.25277e-05 6.05269e-05 1.72655e-05 3.51571e-10 4.917e-10 7.96636e-10 0 0 0 
24 1 1.21933e-06 4.72548e-05 4.66884e-05 1.08236e-05 -3.14019e-10 8.97655e-10 -3.09203e-10 0 0 0 
17 4 1.08635e-06 5.1578e-05 3.95738e-05 2.04451e-05 2.088e-10 -6.00385e-10 7.71971e-10 0 0 0 
13 1 1.31774e-06 4.27362e-05 6.08642e-05 1.41656e-05 2.27847e-10 9.57037e-10 -1.79347e-10 0 0 0 
37 1 1.08076e-06 3.64781e-05 5.19311e-05 2.21193e-05 -8.9173e-10 3.75491e-10 2.52636e-10 0 0 0 
7 2 1.07086e-06 2.69557e-05 6.81387e-05 2.7541e-05 -2.7635e-10 -4.37076e-11 9.60063e-10 0 0 0 
11 4 9.30289e-07 5.97523e-05 4.08906e-05 3.13719e-05 3.69226e-10 -3.80714e-10 8.47779e-10 0 0 0 
2 2 1.34395e-06 6.03587e-05 4.9214e-05 2.93938e-05 7.07367e-10 -3.45292e-10 6.1677e-10 0 0 0 
6 4 8.80801e-07 3.96616e-05 9.05262e-05 3.26556e-05 -2.05127e-10 7.7122e-10 6.02613e-10 0 0 0 
39 1 1.30161e-06 4.53085e-05 5.64015e-05 6.78558e-07 1.44477e-10 -1.59521e-10 -9.76565e-10 1.65357e-08 -1.82576e-08 -1.1177e-07 
40 2 1.209e-06 3.48643e-05 6.04858e-05 1.12029e-05 4.02314e-10 -3.41246e-10 8.49526e-10 0 0 0 
41 1 1.34548e-06 4.83171e-05 5.23503e-05 6.73328e-07 9.08213e-10 4.04941e-10 1.05698e-10 3.23703e-07 1.44328e-07 3.76728e-08 
42 1 1.29113e-06 5.40175e-05 6.32635e-05 3.08368e-06 9.81187e-10 -1.79144e-10 7.19723e-11 0 0 0 
43 1 1.37028e-06 5.32466e-05 3.68654e-05 1.42392e-05 4.1708e-10 -8.80715e-10 2.24466e-10 0 0 0 
44 4 1.00925e-06 5.24301e-05 5.41255e-05 8.51728e-06 4.02314e-10 -3.41246e-10 8.49526e-10 0 0 0 
45 4 9.00275e-07 4.76697e-05 6.21359e-05 3.30496e-06 -6.48446e-11 4.55658e-10 8.8779e-10 0 0 0 
46 4 9.05859e-07 5.8839e-05 5.69592e-05 7.41023e-06 9.8528e-10 -5.82466e-11 1.60719e-10 0 0 0 
47 4 1.06738e-06 5.94428e-05 6.05566e-05 9.44176e-06 9.64226e-10 1.8276e-10 1.92006e-10 0 0 0 
48 4 8.71626e-07 5.12318e-05 3.532e-05 1.47395e-05 3.14019e-10 -8.97655e-10 3.09203e-10 0 0 0 
49 4 8.59485e-07 3.97552e-05 4.83429e-05 1.65121e-05 -2.27847e-10 -9.57037e-10 1.79347e-10 0 0 0 
50 4 1.05065e-06 4.7132e-05 4.3407e-05 2.1822e-05 7.40713e-10 -6.71051e-10 3.2173e-11 0 0 0 
51 4 8.705e-07 5.43572e-05 5.94402e-05 1.34377e-06 7.41937e-10 -6.44593e-10 -1.84468e-10 0 0 0 
52 4 9.80487e-07 4.78494e-05 4.82622e-05 1.13345e-05 -4.1708e-10 8.80715e-10 -2.24466e-10 0 0 0 
53 1 1.29482e-06 4.62164e-05 5.29454e-05 2.86012e-06 4.8688e-10 -4.64083e-10 7.39983e-10 7.19933e-08 -6.86223e-08 1.09419e-07 
54 1 1.14109e-06 4.68969e-05 4.34337e-05 1.84498e-06 5.62178e-10 3.827e-10 -7.33142e-10 0 0 0 
55 4 9.0201e-07 5.28873e-05 5.39518e-05 1.74463e-06 9.71878e-10 1.61584e-10 1.71303e-10 0 0 0 
56 4 1.0875e-06 4.72138e-05 5.18584e-05 5.44936e-07 -9.08213e-10 -4.04941e-10 -1.05698e-10 -3.23703e-07 -1.44328e-07 -3.76728e-08 
57 4 1.08508e-06 4.71035e-05 5.33714e-05 5.92872e-07 2.7262e-10 -9.551e-10 -1.16028e-10 3.66084e-13 -1.28254e-12 -1.55807e-13 
58 4 8.71888e-07 4.7229e-05 5.42057e-05 3.12971e-06 -2.03669e-11 -5.39415e-10 -8.41794e-10 -5.2506e-15 -1.39062e-13 -2.17015e-13 
59 4 9.62812e-07 4.80977e-05 5.27794e-05 2.23072e-06 -7.4264e-10 6.66644e-10 -6.38132e-11 -2.13079e-13 1.91274e-13 -1.83093e-14 
60 4 9.77658e-07 4.38689e-05 5.04825e-05 6.4871e-06 -4.65442e-10 -4.57425e-10 7.57711e-10 0 0 0 
61 1 1.19125e-06 4.73073e-05 5.13544e-05 2.17502e-06 6.93146e-10 -7.03682e-10 1.56145e-10 8.35257e-07 -8.47953e-07 1.88158e-07 
62 1 1.15589e-06 4.9523e-05 5.6731e-05 5.75691e-07 0 0 1e-09 0 0 4.51279e-07 
63 1 1.22479e-06 4.74845e-05 6.08724e-05 6.68e-06 -4.1387e-10 8.82352e-10 -2.23979e-10 0 0 0 
64 1 1.23713e-06 4.12099e-05 4.99387e-05 2.07787e-05 8.9173e-10 -3.75491e-10 -2.52636e-10 0 0 0 
65 2 1.18119e-06 2.81128e-05 6.83217e-05 2.35209e-05 2.7635e-10 4.37076e-11 -9.60063e-10 0 0 0 
66 4 1.12551e-06 4.44012e-05 5.72157e-05 6.27188e-07 7.43587e-10 -6.67312e-10 4.21022e-11 1.64964e-13 -1.48042e-13 9.34031e-15 
67 4 9.44624e-07 4.97412e-05 4.90045e-05 3.39062e-06 8.65229e-10 3.75821e-10 3.3187e-10 0 0 0 
68 4 1.0179e-06 4.45433e-05 5.55384e-05 5.21757e-07 6.57359e-10 7.4144e-10 1.34705e-10 1.2887e-13 1.45353e-13 2.64079e-14 
69 4 8.54465e-07 4.40633e-05 4.15047e-05 5.54034e-06 -5.62178e-10 -3.827e-10 7.33142e-10 0 0 0 
ITEM: TIMESTEP
5500
ITEM: NUMBER OF ATOMS
97
ITEM: BOX BOUNDS ff ff ff
0 0.0001
0 0.0001
0 0.0001
ITEM: ATOMS id type diameter x y z vx vy vz fx fy fz 
34 4 1.02857e-06 4.35486e-05 5.00711e-05 7.61718e-07 -7.67851e-10 -5.83745e-10 -2.63905e-10 0 0 0 
56 4 1.08394e-06 4.72855e-05 5.15292e-05 6.89619e-07 -7.12068e-10 -2.33166e-10 -6.62263e-10 -1.06993e-07 -3.50349e-08 -9.95097e-08 
41 1 1.14367e-06 4.87882e-05 5.26575e-05 9.36207e-07 -5.5459e-10 -7.08213e-10 4.3688e-10 -4.20328e-13 -5.3676e-13 3.31114e-13 
57 4 1.08153e-06 4.69537e-05 5.34775e-05 7.34124e-07 9.48223e-11 1.04129e-10 -9.90033e-10 3.45231e-08 3.79116e-08 -3.60454e-07 
12 1 1.34071e-06 5.27999e-05 5.54937e-05 2.07673e-06 9.21806e-10 3.02433e-10 2.42502e-10 0 0 0 
31 4 9.40838e-07 4.7531e-05 5.51947e-05 1.04394e-06 2.17014e-10 -7.65933e-10 6.05187e-10 0 0 0 
68 4 1.01457e-06 4.46126e-05 5.55807e-05 5.45945e-07 5.30044e-10 4.84111e-10 6.96197e-10 1.221e-13 1.11519e-13 1.60374e-13 
39 1 1.18101e-06 4.60267e-05 5.667e-05 6.90827e-07 -7.10154e-10 -4.77369e-10 5.17493e-10 -3.76665e-13 -2.53196e-13 2.74478e-13 
62 1 1.30165e-06 4.95441e-05 5.67273e-05 6.56394e-07 -6.9337e-173 1.21782e-173 -1e-09 0 0 -6.92063e-23 
66 4 1.12183e-06 4.41576e-05 5.73377e-05 5.93385e-07 -5.86882e-10 4.24989e-10 -6.89169e-10 -1.4092e-12 1.02047e-12 -1.65481e-12 
36 1 1.35474e-06 4.32206e-05 6.09198e-05 1.38039e-06 4.36499e-11 6.73865e-10 -7.37564e-10 8.7832e-15 1.35594e-13 -1.48412e-13 
70 1 1.3226e-06 4.51921e-05 5.6961e-05 2.19347e-06 5.98939e-10 -5.84121e-10 5.47791e-10 7.96161e-13 -7.76463e-13 7.2817e-13 
51 4 8.6765e-07 5.79847e-05 5.62887e-05 4.65782e-07 -6.28108e-10 5.45699e-10 5.547e-10 0 0 0 
23 3 1.34442e-06 5.94121e-05 4.20906e-05 1.38664e-06 5.18449e-10 -5.3129e-10 6.70031e-10 0 0 0 
54 1 1.28497e-06 4.77683e-05 4.40269e-05 6.38612e-07 0 0 1e-09 0 0 7.74659e-07 