LAMMPS (5 Nov 2016)
# NUFEB simulation

atom_style	bio
atom_modify	map array sort 1000 5.0e-7
boundary	ff ff ff
newton		off
#processors  2 1 1

comm_modify	vel yes
read_data_bio atom.in
  orthogonal box = (0 0 0) to (0.0001 0.0001 0.0001)
  1 by 1 by 1 MPI processor grid
  reading atoms ...
  12 atoms
  10 nutrients

group AOB type 1
4 atoms in group AOB
group NOB type 2
4 atoms in group NOB
group COMM type 3
4 atoms in group COMM

neighbor	5.0e-7 bin
neigh_modify	delay 0 one 5000

#pair_style none
pair_style  gran/hooke/history 0.000200 NULL 0.000050 NULL 0.0 1

pair_coeff  * *
timestep 36

fix 1 all nve/limit 1e-8

#fix	 2 all gravity 1.47 vector 0 0 -1 # spherical 90.0 -180.0
#fix     3 all fdrag
fix 10 all viscous 0.1


fix xw all wall/gran hooke/history 2000 NULL 500.0 NULL 1.5 0 xplane  0.0   1.0e-04
fix yw all wall/gran hooke/history 2000 NULL 500.0 NULL 1.5 0 yplane  0.0   1.0e-04
fix zw all wall/gran hooke/history 2000 NULL 500.0 NULL 1.5 0 zplane  0.0   1.0e-04

variable kanc equal 50

fix xwa all walladh v_kanc xplane  0.0   1.0e-04
fix ywa all walladh v_kanc yplane  0.0   1.0e-04
fix zwa all walladh v_kanc zplane  0.0   1.0e-04

##############Ibm Variable Definitions##############

#Defining EPS density and ratio variables
variable EPSdens equal 30
variable EPSratio equal 1.25

variable ke equal 5e+10

#Defining kinetics variables
variable temp equal 298.15
variable gasTran equal 0.08205746
variable gvol equal 8e-14
variable rth equal 0.0083144
variable pressure equal 1
variable ph equal 7.0

#Defining diffusion variables
variable diffT equal 1e-3
variable tol equal 1e-8

#Defining compute variables
variable cutoff equal 9.66e-6

##############Ibm functions##############

fix k1 all kinetics 1 1 1 v_temp v_rth v_gvol v_gasTran v_ph
fix g1 all diffusion exp v_diffT v_tol pp pp nd
fix ki3 all kinetics/ph 1
fix ki2 all kinetics/thermo 1 fix open v_pressure
fix ki1 all kinetics/monod 1 v_EPSdens
fix d1 all divide 1 v_EPSdens 1 3123

#fix j1 all epsadh 1 v_ke 1
#fix e1 HET eps_extract 16 v_EPSratio v_EPSdens 1242242

##############Ibm compute##############

compute cMass all biomass
compute cType all ntypes
compute cHeight all height 10 10
compute cRough all roughness 10 10
compute cSeg all segregation v_cutoff
compute cDiv all diversity

##############Simulation outputs##############

#dump		id all custom 250 snapshot.bubblemd id type diameter x y z vx vy vz fx fy fz
#dump            d0 all bio 500 Conc DGRAn DGRCat ph biomass gas

#dump		id all custom 1 111.bubblemd c_myMass[1]
thermo_style    custom step cpu atoms c_cDiv[*]
thermo		1
thermo_modify	lost ignore

run  1000
Neighbor list info ...
  2 neighbor list requests
  update every 1 steps, delay 0 steps, check yes
  max neighbors/atom: 5000, page size: 100000
  master list distance cutoff = 1.466e-06
  ghost atom cutoff = 1.466e-06
  binsize = 7.33e-07 -> bins = 137 137 137
Memory usage per processor = 18.9948 Mbytes
Step CPU Atoms c_cDiv[1] c_cDiv[2] c_cDiv[3] 
       0            0       12   0.84848485   0.84848485   0.84848485 
       1 0.0045340061       12   0.84848485   0.84848485   0.84848485 
       2  0.006196022       12   0.84848485   0.84848485   0.84848485 
       3 0.0084590912       12   0.84848485   0.84848485   0.84848485 
       4  0.010771036       12   0.84848485   0.84848485   0.84848485 
       5  0.013132095       12   0.84848485   0.84848485   0.84848485 
       6  0.015614986       12   0.84848485   0.84848485   0.84848485 
       7  0.018776178       12   0.84848485   0.84848485   0.84848485 
       8  0.021860123       12   0.84848485   0.84848485   0.84848485 
       9  0.025034189       12   0.84848485   0.84848485   0.84848485 
      10  0.028249025       12   0.84848485   0.84848485   0.84848485 
      11  0.031494141       12   0.84848485   0.84848485   0.84848485 
      12  0.034677029       12   0.84848485   0.84848485   0.84848485 
      13  0.037083149       12   0.84848485   0.84848485   0.84848485 
      14  0.038733959       12   0.84848485   0.84848485   0.84848485 
      15  0.040388107       12   0.84848485   0.84848485   0.84848485 
      16  0.042087078       12   0.84848485   0.84848485   0.84848485 
      17  0.043738127       12   0.84848485   0.84848485   0.84848485 
      18  0.045395136       12   0.84848485   0.84848485   0.84848485 
      19  0.047017097       12   0.84848485   0.84848485   0.84848485 
      20     0.048666       12   0.84848485   0.84848485   0.84848485 
      21  0.050287008       12   0.84848485   0.84848485   0.84848485 
      22  0.051959038       12   0.84848485   0.84848485   0.84848485 
      23  0.053617001       12   0.84848485   0.84848485   0.84848485 
      24  0.055242062       12   0.84848485   0.84848485   0.84848485 
      25  0.056915998       12   0.84848485   0.84848485   0.84848485 
      26  0.058596134       12   0.84848485   0.84848485   0.84848485 
      27  0.060631037       12   0.84848485   0.84848485   0.84848485 
      28  0.062312126       12   0.84848485   0.84848485   0.84848485 
      29  0.063922167       12   0.84848485   0.84848485   0.84848485 
      30  0.065775156       12   0.84848485   0.84848485   0.84848485 
      31  0.067586184       12   0.84848485   0.84848485   0.84848485 
      32  0.069324017       12   0.84848485   0.84848485   0.84848485 
      33  0.071213961       12   0.84848485   0.84848485   0.84848485 
      34  0.072957993       12   0.84848485   0.84848485   0.84848485 
      35  0.074637175       12   0.84848485   0.84848485   0.84848485 
      36   0.07636714       12   0.84848485   0.84848485   0.84848485 
      37  0.078008175       12   0.84848485   0.84848485   0.84848485 
      38  0.079648018       12   0.84848485   0.84848485   0.84848485 
      39  0.081325054       12   0.84848485   0.84848485   0.84848485 
      40  0.082946062       12   0.84848485   0.84848485   0.84848485 
      41  0.084611177       12   0.84848485   0.84848485   0.84848485 
      42  0.086264133       12   0.84848485   0.84848485   0.84848485 
      43  0.087921143       12   0.84848485   0.84848485   0.84848485 
      44  0.089702129       12   0.84848485   0.84848485   0.84848485 
      45  0.091391087       12   0.84848485   0.84848485   0.84848485 
      46  0.093080997       12   0.84848485   0.84848485   0.84848485 
      47   0.09474802       12   0.84848485   0.84848485   0.84848485 
      48  0.096476078       12   0.84848485   0.84848485   0.84848485 
      49   0.09822917       12   0.84848485   0.84848485   0.84848485 
      50  0.099936008       12   0.84848485   0.84848485   0.84848485 
      51   0.10165501       12   0.84848485   0.84848485   0.84848485 
      52   0.10335898       12   0.84848485   0.84848485   0.84848485 
      53   0.10505319       12   0.84848485   0.84848485   0.84848485 
      54   0.10669017       12   0.84848485   0.84848485   0.84848485 
      55   0.10836411       12   0.84848485   0.84848485   0.84848485 
      56   0.11001015       12   0.84848485   0.84848485   0.84848485 
      57   0.11163998       12   0.84848485   0.84848485   0.84848485 
      58   0.11330199       12   0.84848485   0.84848485   0.84848485 
      59   0.11499119       12   0.84848485   0.84848485   0.84848485 
      60   0.11666417       12   0.84848485   0.84848485   0.84848485 
      61   0.11832714       12   0.84848485   0.84848485   0.84848485 
      62   0.12011909       12   0.84848485   0.84848485   0.84848485 
      63   0.12178898       12   0.84848485   0.84848485   0.84848485 
      64   0.12347317       12   0.84848485   0.84848485   0.84848485 
      65   0.12516308       12   0.84848485   0.84848485   0.84848485 
      66   0.12697601       12   0.84848485   0.84848485   0.84848485 
      67    0.1286881       12   0.84848485   0.84848485   0.84848485 
      68   0.13039303       12   0.84848485   0.84848485   0.84848485 
      69   0.13214517       12   0.84848485   0.84848485   0.84848485 
      70   0.13389897       12   0.84848485   0.84848485   0.84848485 
      71   0.13559818       12   0.84848485   0.84848485   0.84848485 
      72   0.13728213       12   0.84848485   0.84848485   0.84848485 
      73   0.13892007       12   0.84848485   0.84848485   0.84848485 
      74     0.140625       12   0.84848485   0.84848485   0.84848485 
      75   0.14228916       12   0.84848485   0.84848485   0.84848485 
      76     0.143924       12   0.84848485   0.84848485   0.84848485 
      77   0.14563107       12   0.84848485   0.84848485   0.84848485 
      78   0.14724803       12   0.84848485   0.84848485   0.84848485 
      79   0.14893508       12   0.84848485   0.84848485   0.84848485 
      80   0.15059805       12   0.84848485   0.84848485   0.84848485 
      81   0.15226698       12   0.84848485   0.84848485   0.84848485 
      82   0.15387416       12   0.84848485   0.84848485   0.84848485 
      83   0.15556502       12   0.84848485   0.84848485   0.84848485 
      84     0.157336       12   0.84848485   0.84848485   0.84848485 
      85   0.15914416       12   0.84848485   0.84848485   0.84848485 
      86   0.16090918       12   0.84848485   0.84848485   0.84848485 
      87   0.16261411       12   0.84848485   0.84848485   0.84848485 
      88   0.16434503       12   0.84848485   0.84848485   0.84848485 
      89     0.166013       12   0.84848485   0.84848485   0.84848485 
      90   0.16765499       12   0.84848485   0.84848485   0.84848485 
      91   0.16932702       12   0.84848485   0.84848485   0.84848485 
      92    0.1709621       12   0.84848485   0.84848485   0.84848485 
      93   0.17263412       12   0.84848485   0.84848485   0.84848485 
      94   0.17428803       12   0.84848485   0.84848485   0.84848485 
      95   0.17594504       12   0.84848485   0.84848485   0.84848485 
      96   0.17761707       12   0.84848485   0.84848485   0.84848485 
      97    0.1792531       12   0.84848485   0.84848485   0.84848485 
      98   0.18092513       12   0.84848485   0.84848485   0.84848485 
      99   0.18255711       12   0.84848485   0.84848485   0.84848485 
     100   0.18422008       12   0.84848485   0.84848485   0.84848485 
     101   0.18599606       12   0.84848485   0.84848485   0.84848485 
     102   0.18768716       12   0.84848485   0.84848485   0.84848485 
     103   0.18944311       12   0.84848485   0.84848485   0.84848485 
     104   0.19120216       12   0.84848485   0.84848485   0.84848485 
     105   0.19301105       12   0.84848485   0.84848485   0.84848485 
     106   0.19471908       12   0.84848485   0.84848485   0.84848485 
     107     0.196419       12   0.84848485   0.84848485   0.84848485 
     108   0.19805813       12   0.84848485   0.84848485   0.84848485 
     109   0.19970512       12   0.84848485   0.84848485   0.84848485 
     110   0.20135903       12   0.84848485   0.84848485   0.84848485 
     111   0.20297718       12   0.84848485   0.84848485   0.84848485 
     112   0.20465016       12   0.84848485   0.84848485   0.84848485 
     113   0.20629096       12   0.84848485   0.84848485   0.84848485 
     114   0.20794916       12   0.84848485   0.84848485   0.84848485 
     115   0.20964408       12   0.84848485   0.84848485   0.84848485 
     116   0.21130919       12   0.84848485   0.84848485   0.84848485 
     117   0.21302104       12   0.84848485   0.84848485   0.84848485 
     118   0.21474218       12   0.84848485   0.84848485   0.84848485 
     119   0.21658802       12   0.84848485   0.84848485   0.84848485 
     120     0.218472       12   0.84848485   0.84848485   0.84848485 
     121   0.22018504       12   0.84848485   0.84848485   0.84848485 
     122   0.22217512       12   0.84848485   0.84848485   0.84848485 
     123   0.22464204       12   0.84848485   0.84848485   0.84848485 
     124   0.22677803       12   0.84848485   0.84848485   0.84848485 
     125   0.22883105       12   0.84848485   0.84848485   0.84848485 
     126   0.23053718       12   0.84848485   0.84848485   0.84848485 
     127   0.23225713       12   0.84848485   0.84848485   0.84848485 
     128   0.23404908       12   0.84848485   0.84848485   0.84848485 
     129   0.23601913       12   0.84848485   0.84848485   0.84848485 
     130   0.23795819       12   0.84848485   0.84848485   0.84848485 
     131   0.23966599       12   0.84848485   0.84848485   0.84848485 
     132   0.24146414       12   0.84848485   0.84848485   0.84848485 
     133   0.24354601       12   0.84848485   0.84848485   0.84848485 
     134   0.24546504       12   0.84848485   0.84848485   0.84848485 
     135   0.24711013       12   0.84848485   0.84848485   0.84848485 
     136   0.24882007       12   0.84848485   0.84848485   0.84848485 
     137   0.25050211       12   0.84848485   0.84848485   0.84848485 
     138   0.25215316       12   0.84848485   0.84848485   0.84848485 
     139    0.2538271       12   0.84848485   0.84848485   0.84848485 
     140   0.25544715       12   0.84848485   0.84848485   0.84848485 
     141   0.25713301       12   0.84848485   0.84848485   0.84848485 
     142    0.2587831       12   0.84848485   0.84848485   0.84848485 
     143   0.26047301       12   0.84848485   0.84848485   0.84848485 
     144   0.26216412       12   0.84848485   0.84848485   0.84848485 
     145   0.26441908       12   0.84848485   0.84848485   0.84848485 
     146   0.26627398       12   0.84848485   0.84848485   0.84848485 
     147   0.26808214       12   0.84848485   0.84848485   0.84848485 
     148   0.26996803       12   0.84848485   0.84848485   0.84848485 
     149   0.27167416       16          0.3   0.91666667   0.91666667 
     150   0.27343798       16          0.3   0.91666667   0.91666667 
     151   0.27508402       16          0.3   0.91666667   0.91666667 
     152   0.27685213       16          0.3   0.91666667   0.91666667 
     153    0.2785151       16          0.3   0.91666667   0.91666667 
     154   0.28015709       16          0.3   0.91666667   0.91666667 
     155   0.28185105       20   0.55789474   0.94736842   0.55789474 
     156     0.283499       20   0.55789474   0.94736842   0.55789474 
     157   0.28519702       20   0.55789474   0.94736842   0.55789474 
     158   0.28687501       20   0.55789474   0.94736842   0.55789474 
     159   0.28858614       20   0.55789474   0.94736842   0.55789474 
     160   0.29025507       20   0.55789474   0.94736842   0.55789474 
     161     0.291996       20   0.55789474   0.94736842   0.55789474 
     162   0.29389119       20   0.55789474   0.94736842   0.55789474 
     163   0.29562807       20   0.55789474   0.94736842   0.55789474 
     164     0.297364       20   0.55789474   0.94736842   0.55789474 
     165   0.29907298       20   0.55789474   0.94736842   0.55789474 
     166   0.30079007       20   0.55789474   0.94736842   0.55789474 
     167    0.3024621       20   0.55789474   0.94736842   0.55789474 
     168    0.3041141       20   0.55789474   0.94736842   0.55789474 
     169   0.30579209       20   0.55789474   0.94736842   0.55789474 
     170   0.30743408       20   0.55789474   0.94736842   0.55789474 
     171   0.30914402       20   0.55789474   0.94736842   0.55789474 
     172   0.31083608       20   0.55789474   0.94736842   0.55789474 
     173   0.31249213       20   0.55789474   0.94736842   0.55789474 
     174   0.31412911       20   0.55789474   0.94736842   0.55789474 
     175   0.31574106       20   0.55789474   0.94736842   0.55789474 
     176   0.31742501       20   0.55789474   0.94736842   0.55789474 
     177   0.31904697       20   0.55789474   0.94736842   0.55789474 
     178   0.32088399       20   0.55789474   0.94736842   0.55789474 
     179   0.32250309       20   0.55789474   0.94736842   0.55789474 
     180     0.324121       20   0.55789474   0.94736842   0.55789474 
     181   0.32584214       20   0.55789474   0.94736842   0.55789474 
     182   0.32758403       20   0.55789474   0.94736842   0.55789474 
     183   0.32923102       20   0.55789474   0.94736842   0.55789474 
     184   0.33084202       20   0.55789474   0.94736842   0.55789474 
     185   0.33252311       20   0.55789474   0.94736842   0.55789474 
     186   0.33415198       20   0.55789474   0.94736842   0.55789474 
     187   0.33613205       20   0.55789474   0.94736842   0.55789474 
     188   0.33778214       20   0.55789474   0.94736842   0.55789474 
     189   0.33942413       20   0.55789474   0.94736842   0.55789474 
     190   0.34123015       20   0.55789474   0.94736842   0.55789474 
     191   0.34291697       20   0.55789474   0.94736842   0.55789474 
     192   0.34456801       20   0.55789474   0.94736842   0.55789474 
     193   0.34618115       20   0.55789474   0.94736842   0.55789474 
     194   0.34780097       20   0.55789474   0.94736842   0.55789474 
     195   0.34967303       20   0.55789474   0.94736842   0.55789474 
     196   0.35139108       20   0.55789474   0.94736842   0.55789474 
     197   0.35326314       20   0.55789474   0.94736842   0.55789474 
     198   0.35490108       20   0.55789474   0.94736842   0.55789474 
     199   0.35656118       20   0.55789474   0.94736842   0.55789474 
     200   0.35819316       20   0.55789474   0.94736842   0.55789474 
     201   0.35990596       20   0.55789474   0.94736842   0.55789474 
     202   0.36160398       20   0.55789474   0.94736842   0.55789474 
     203   0.36322618       20   0.55789474   0.94736842   0.55789474 
     204   0.36494398       20   0.55789474   0.94736842   0.55789474 
     205   0.36663103       20   0.55789474   0.94736842   0.55789474 
     206   0.36828113       20   0.55789474   0.94736842   0.55789474 
     207   0.36993098       20   0.55789474   0.94736842   0.55789474 
     208   0.37159705       20   0.55789474   0.94736842   0.55789474 
     209   0.37326002       20   0.55789474   0.94736842   0.55789474 
     210   0.37487912       20   0.55789474   0.94736842   0.55789474 
     211   0.37654901       20   0.55789474   0.94736842   0.55789474 
     212   0.37826514       20   0.55789474   0.94736842   0.55789474 
     213   0.38010597       20   0.55789474   0.94736842   0.55789474 
     214   0.38190007       20   0.55789474   0.94736842   0.55789474 
     215   0.38400698       20   0.55789474   0.94736842   0.55789474 
     216   0.38572407       20   0.55789474   0.94736842   0.55789474 
     217   0.38742614       20   0.55789474   0.94736842   0.55789474 
     218   0.38914108       20   0.55789474   0.94736842   0.55789474 
     219   0.39088702       20   0.55789474   0.94736842   0.55789474 
     220   0.39264417       20   0.55789474   0.94736842   0.55789474 
     221   0.39437699       20   0.55789474   0.94736842   0.55789474 
     222   0.39618802       20   0.55789474   0.94736842   0.55789474 
     223   0.39791298       20   0.55789474   0.94736842   0.55789474 
     224   0.39959216       20   0.55789474   0.94736842   0.55789474 
     225   0.40130305       20   0.55789474   0.94736842   0.55789474 
     226   0.40296817       20   0.55789474   0.94736842   0.55789474 
     227   0.40466118       20   0.55789474   0.94736842   0.55789474 
     228   0.40630198       20   0.55789474   0.94736842   0.55789474 
     229   0.40800309       20   0.55789474   0.94736842   0.55789474 
     230   0.40973401       20   0.55789474   0.94736842   0.55789474 
     231   0.41143799       20   0.55789474   0.94736842   0.55789474 
     232   0.41314316       20   0.55789474   0.94736842   0.55789474 
     233   0.41481209       20   0.55789474   0.94736842   0.55789474 
     234   0.41649413       20   0.55789474   0.94736842   0.55789474 
     235   0.41817999       20   0.55789474   0.94736842   0.55789474 
     236   0.41995811       20   0.55789474   0.94736842   0.55789474 
     237   0.42167616       20   0.55789474   0.94736842   0.55789474 
     238   0.42333817       20   0.55789474   0.94736842   0.55789474 
     239   0.42515707       20   0.55789474   0.94736842   0.55789474 
     240   0.42691517       20   0.55789474   0.94736842   0.55789474 
     241   0.42862797       20   0.55789474   0.94736842   0.55789474 
     242   0.43033719       20   0.55789474   0.94736842   0.55789474 
     243   0.43201613       20   0.55789474   0.94736842   0.55789474 
     244   0.43373418       20   0.55789474   0.94736842   0.55789474 
     245   0.43547106       20   0.55789474   0.94736842   0.55789474 
     246   0.43717313       20   0.55789474   0.94736842   0.55789474 
     247   0.43887901       20   0.55789474   0.94736842   0.55789474 
     248   0.44059014       20   0.55789474   0.94736842   0.55789474 
     249   0.44260001       20   0.55789474   0.94736842   0.55789474 
     250   0.44467902       20   0.55789474   0.94736842   0.55789474 
     251   0.44640303       20   0.55789474   0.94736842   0.55789474 
     252   0.44862008       20   0.55789474   0.94736842   0.55789474 
     253   0.45058417       20   0.55789474   0.94736842   0.55789474 
     254   0.45232797       20   0.55789474   0.94736842   0.55789474 
     255   0.45401907       20   0.55789474   0.94736842   0.55789474 
     256   0.45593405       20   0.55789474   0.94736842   0.55789474 
     257   0.45769215       20   0.55789474   0.94736842   0.55789474 
     258   0.45938301       20   0.55789474   0.94736842   0.55789474 
     259   0.46114516       20   0.55789474   0.94736842   0.55789474 
     260   0.46286416       20   0.55789474   0.94736842   0.55789474 
     261   0.46467519       20   0.55789474   0.94736842   0.55789474 
     262   0.46634603       20   0.55789474   0.94736842   0.55789474 
     263   0.46804214       20   0.55789474   0.94736842   0.55789474 
     264   0.46979117       20   0.55789474   0.94736842   0.55789474 
     265     0.471457       20   0.55789474   0.94736842   0.55789474 
     266   0.47354817       20   0.55789474   0.94736842   0.55789474 
     267   0.47551608       20   0.55789474   0.94736842   0.55789474 
     268   0.47726703       20   0.55789474   0.94736842   0.55789474 
     269   0.47895312       20   0.55789474   0.94736842   0.55789474 
     270   0.48066807       20   0.55789474   0.94736842   0.55789474 
     271   0.48232913       20   0.55789474   0.94736842   0.55789474 
     272    0.4840591       20   0.55789474   0.94736842   0.55789474 
     273   0.48573899       20   0.55789474   0.94736842   0.55789474 
     274   0.48739505       20   0.55789474   0.94736842   0.55789474 
     275   0.48910213       20   0.55789474   0.94736842   0.55789474 
     276   0.49084997       20   0.55789474   0.94736842   0.55789474 
     277   0.49257517       20   0.55789474   0.94736842   0.55789474 
     278   0.49425697       20   0.55789474   0.94736842   0.55789474 
     279   0.49595308       20   0.55789474   0.94736842   0.55789474 
     280   0.49762416       20   0.55789474   0.94736842   0.55789474 
     281   0.49923801       20   0.55789474   0.94736842   0.55789474 
     282   0.50089598       20   0.55789474   0.94736842   0.55789474 
     283   0.50250816       20   0.55789474   0.94736842   0.55789474 
     284    0.5043931       20   0.55789474   0.94736842   0.55789474 
     285   0.50613904       20   0.55789474   0.94736842   0.55789474 
     286    0.5078721       20   0.55789474   0.94736842   0.55789474 
     287   0.50971818       20   0.55789474   0.94736842   0.55789474 
     288   0.51151204       20   0.55789474   0.94736842   0.55789474 
     289   0.51325107       20   0.55789474   0.94736842   0.55789474 
     290   0.51496696       20   0.55789474   0.94736842   0.55789474 
     291   0.51668215       20   0.55789474   0.94736842   0.55789474 
     292   0.51840711       20   0.55789474   0.94736842   0.55789474 
     293     0.520051       20   0.55789474   0.94736842   0.55789474 
     294   0.52170515       20   0.55789474   0.94736842   0.55789474 
     295   0.52335715       20   0.55789474   0.94736842   0.55789474 
     296    0.5250392       20   0.55789474   0.94736842   0.55789474 
     297   0.52669096       20   0.55789474   0.94736842   0.55789474 
     298   0.52872109       20   0.55789474   0.94736842   0.55789474 
     299   0.53040504       20   0.55789474   0.94736842   0.55789474 
     300   0.53203797       20   0.55789474   0.94736842   0.55789474 
     301    0.5338161       20   0.55789474   0.94736842   0.55789474 
     302   0.53544617       20   0.55789474   0.94736842   0.55789474 
     303     0.537081       20   0.55789474   0.94736842   0.55789474 
     304   0.53877115       20   0.55789474   0.94736842   0.55789474 
     305   0.54047418       20   0.55789474   0.94736842   0.55789474 
     306   0.54210901       20   0.55789474   0.94736842   0.55789474 
     307   0.54376602       20   0.55789474   0.94736842   0.55789474 
     308   0.54542398       20   0.55789474   0.94736842   0.55789474 
     309    0.5471561       20   0.55789474   0.94736842   0.55789474 
     310   0.54896212       20   0.55789474   0.94736842   0.55789474 
     311   0.55065799       20   0.55789474   0.94736842   0.55789474 
     312   0.55239797       20   0.55789474   0.94736842   0.55789474 
     313   0.55409503       20   0.55789474   0.94736842   0.55789474 
     314   0.55576301       20   0.55789474   0.94736842   0.55789474 
     315   0.55752015       20   0.55789474   0.94736842   0.55789474 
     316   0.55927706       20   0.55789474   0.94736842   0.55789474 
     317   0.56110215       20   0.55789474   0.94736842   0.55789474 
     318   0.56318402       20   0.55789474   0.94736842   0.55789474 
     319   0.56517696       20   0.55789474   0.94736842   0.55789474 
     320   0.56695819       20   0.55789474   0.94736842   0.55789474 
     321   0.56866002       20   0.55789474   0.94736842   0.55789474 
     322   0.57027817       20   0.55789474   0.94736842   0.55789474 
     323   0.57214403       20   0.55789474   0.94736842   0.55789474 
     324   0.57382202       20   0.55789474   0.94736842   0.55789474 
     325   0.57548404       20   0.55789474   0.94736842   0.55789474 
     326   0.57726812       20   0.55789474   0.94736842   0.55789474 
     327   0.57906199       20   0.55789474   0.94736842   0.55789474 
     328   0.58108997       20   0.55789474   0.94736842   0.55789474 
     329   0.58270812       20   0.55789474   0.94736842   0.55789474 
     330   0.58440113       20   0.55789474   0.94736842   0.55789474 
     331   0.58606315       20   0.55789474   0.94736842   0.55789474 
     332   0.58769107       20   0.55789474   0.94736842   0.55789474 
     333   0.58936715       20   0.55789474   0.94736842   0.55789474 
     334   0.59103799       20   0.55789474   0.94736842   0.55789474 
     335   0.59274507       20   0.55789474   0.94736842   0.55789474 
     336   0.59441304       20   0.55789474   0.94736842   0.55789474 
     337    0.5960741       20   0.55789474   0.94736842   0.55789474 
     338   0.59770417       20   0.55789474   0.94736842   0.55789474 
     339   0.59937716       20   0.55789474   0.94736842   0.55789474 
     340   0.60112405       20   0.55789474   0.94736842   0.55789474 
     341    0.6029191       20   0.55789474   0.94736842   0.55789474 
     342   0.60468006       20   0.55789474   0.94736842   0.55789474 
     343   0.60643196       20   0.55789474   0.94736842   0.55789474 
     344     0.608145       20   0.55789474   0.94736842   0.55789474 
     345     0.609905       20   0.55789474   0.94736842   0.55789474 
     346   0.61162519       20   0.55789474   0.94736842   0.55789474 
     347   0.61373496       20   0.55789474   0.94736842   0.55789474 
     348   0.61557913       20   0.55789474   0.94736842   0.55789474 
     349   0.61738014       20   0.55789474   0.94736842   0.55789474 
     350   0.61912298       20   0.55789474   0.94736842   0.55789474 
     351   0.62086797       20   0.55789474   0.94736842   0.55789474 
     352   0.62256408       20   0.55789474   0.94736842   0.55789474 
     353   0.62436104       20   0.55789474   0.94736842   0.55789474 
     354   0.62604117       20   0.55789474   0.94736842   0.55789474 
     355   0.62784505       20   0.55789474   0.94736842   0.55789474 
     356   0.62958503       20   0.55789474   0.94736842   0.55789474 
     357   0.63128614       20   0.55789474   0.94736842   0.55789474 
     358   0.63303208       20   0.55789474   0.94736842   0.55789474 
     359     0.634691       20   0.55789474   0.94736842   0.55789474 
     360   0.63640213       20   0.55789474   0.94736842   0.55789474 
     361   0.63808298       20   0.55789474   0.94736842   0.55789474 
     362   0.63979816       20   0.55789474   0.94736842   0.55789474 
     363   0.64155602       20   0.55789474   0.94736842   0.55789474 
     364   0.64340997       20   0.55789474   0.94736842   0.55789474 
     365   0.64536715       20   0.55789474   0.94736842   0.55789474 
     366   0.64721417       20   0.55789474   0.94736842   0.55789474 
     367   0.64896417       20   0.55789474   0.94736842   0.55789474 
     368   0.65067196       20   0.55789474   0.94736842   0.55789474 
     369    0.6523912       20   0.55789474   0.94736842   0.55789474 
     370   0.65400696       20   0.55789474   0.94736842   0.55789474 
     371   0.65563917       20   0.55789474   0.94736842   0.55789474 
     372   0.65732217       20   0.55789474   0.94736842   0.55789474 
     373   0.65893102       20   0.55789474   0.94736842   0.55789474 
     374   0.66062808       20   0.55789474   0.94736842   0.55789474 
     375   0.66240311       20   0.55789474   0.94736842   0.55789474 
     376     0.664361       20   0.55789474   0.94736842   0.55789474 
     377   0.66599107       20   0.55789474   0.94736842   0.55789474 
     378   0.66760707       20   0.55789474   0.94736842   0.55789474 
     379   0.66927218       20   0.55789474   0.94736842   0.55789474 
     380   0.67088699       20   0.55789474   0.94736842   0.55789474 
     381   0.67255902       20   0.55789474   0.94736842   0.55789474 
     382   0.67417097       20   0.55789474   0.94736842   0.55789474 
     383   0.67579508       20   0.55789474   0.94736842   0.55789474 
     384   0.67751718       20   0.55789474   0.94736842   0.55789474 
     385   0.67929411       20   0.55789474   0.94736842   0.55789474 
     386   0.68107605       20   0.55789474   0.94736842   0.55789474 
     387   0.68279314       20   0.55789474   0.94736842   0.55789474 
     388   0.68480897       20   0.55789474   0.94736842   0.55789474 
     389   0.68677902       20   0.55789474   0.94736842   0.55789474 
     390   0.68851399       20   0.55789474   0.94736842   0.55789474 
     391   0.69018412       20   0.55789474   0.94736842   0.55789474 
     392   0.69184208       20   0.55789474   0.94736842   0.55789474 
     393   0.69355011       20   0.55789474   0.94736842   0.55789474 
     394   0.69523311       20   0.55789474   0.94736842   0.55789474 
     395   0.69692111       20   0.55789474   0.94736842   0.55789474 
     396   0.69857097       20   0.55789474   0.94736842   0.55789474 
     397   0.70026016       20   0.55789474   0.94736842   0.55789474 
     398   0.70195413       20   0.55789474   0.94736842   0.55789474 
     399   0.70370007       20   0.55789474   0.94736842   0.55789474 
     400   0.70540118       20   0.55789474   0.94736842   0.55789474 
     401   0.70708203       20   0.55789474   0.94736842   0.55789474 
     402   0.70878506       20   0.55789474   0.94736842   0.55789474 
     403   0.71049118       20   0.55789474   0.94736842   0.55789474 
     404   0.71216512       20   0.55789474   0.94736842   0.55789474 
     405   0.71382999       20   0.55789474   0.94736842   0.55789474 
     406     0.715518       20   0.55789474   0.94736842   0.55789474 
     407   0.71722507       20   0.55789474   0.94736842   0.55789474 
     408   0.71891403       20   0.55789474   0.94736842   0.55789474 
     409   0.72060418       20   0.55789474   0.94736842   0.55789474 
     410   0.72235203       20   0.55789474   0.94736842   0.55789474 
     411   0.72403502       20   0.55789474   0.94736842   0.55789474 
     412   0.72575116       20   0.55789474   0.94736842   0.55789474 
     413   0.72742319       20   0.55789474   0.94736842   0.55789474 
     414   0.72912097       20   0.55789474   0.94736842   0.55789474 
     415   0.73082614       20   0.55789474   0.94736842   0.55789474 
     416   0.73267102       20   0.55789474   0.94736842   0.55789474 
     417    0.7347281       20   0.55789474   0.94736842   0.55789474 
     418   0.73652411       20   0.55789474   0.94736842   0.55789474 
     419   0.73815703       20   0.55789474   0.94736842   0.55789474 
     420   0.73984218       20   0.55789474   0.94736842   0.55789474 
     421   0.74151802       20   0.55789474   0.94736842   0.55789474 
     422   0.74329209       20   0.55789474   0.94736842   0.55789474 
     423   0.74506307       20   0.55789474   0.94736842   0.55789474 
     424   0.74678516       20   0.55789474   0.94736842   0.55789474 
     425   0.74856114       20   0.55789474   0.94736842   0.55789474 
     426   0.75030899       20   0.55789474   0.94736842   0.55789474 
     427   0.75197005       20   0.55789474   0.94736842   0.55789474 
     428   0.75367308       20   0.55789474   0.94736842   0.55789474 
     429   0.75529099       20   0.55789474   0.94736842   0.55789474 
     430   0.75698113       20   0.55789474   0.94736842   0.55789474 
     431   0.75862312       20   0.55789474   0.94736842   0.55789474 
     432    0.7603271       20   0.55789474   0.94736842   0.55789474 
     433   0.76202512       20   0.55789474   0.94736842   0.55789474 
     434   0.76405811       20   0.55789474   0.94736842   0.55789474 
     435   0.76612115       20   0.55789474   0.94736842   0.55789474 
     436   0.76781201       20   0.55789474   0.94736842   0.55789474 
     437      0.76949       20   0.55789474   0.94736842   0.55789474 
     438   0.77112412       20   0.55789474   0.94736842   0.55789474 
     439   0.77283216       20   0.55789474   0.94736842   0.55789474 
     440   0.77449512       20   0.55789474   0.94736842   0.55789474 
     441   0.77614999       20   0.55789474   0.94736842   0.55789474 
     442   0.77796006       20   0.55789474   0.94736842   0.55789474 
     443   0.77965999       20   0.55789474   0.94736842   0.55789474 
     444   0.78133202       20   0.55789474   0.94736842   0.55789474 
     445   0.78298712       20   0.55789474   0.94736842   0.55789474 
     446    0.7847681       20   0.55789474   0.94736842   0.55789474 
     447   0.78642702       20   0.55789474   0.94736842   0.55789474 
     448   0.78806615       20   0.55789474   0.94736842   0.55789474 
     449   0.78982615       20   0.55789474   0.94736842   0.55789474 
     450   0.79148817       20   0.55789474   0.94736842   0.55789474 
     451   0.79316902       20   0.55789474   0.94736842   0.55789474 
     452    0.7948761       20   0.55789474   0.94736842   0.55789474 
     453   0.79666996       20   0.55789474   0.94736842   0.55789474 
     454   0.79849219       20   0.55789474   0.94736842   0.55789474 
     455   0.80017519       20   0.55789474   0.94736842   0.55789474 
     456   0.80183506       20   0.55789474   0.94736842   0.55789474 
     457   0.80349112       20   0.55789474   0.94736842   0.55789474 
     458   0.80517101       20   0.55789474   0.94736842   0.55789474 
     459   0.80680013       20   0.55789474   0.94736842   0.55789474 
     460   0.80845904       20   0.55789474   0.94736842   0.55789474 
     461   0.81012797       20   0.55789474   0.94736842   0.55789474 
     462     0.811836       20   0.55789474   0.94736842   0.55789474 
     463   0.81351519       20   0.55789474   0.94736842   0.55789474 
     464   0.81516814       20   0.55789474   0.94736842   0.55789474 
     465   0.81682301       20   0.55789474   0.94736842   0.55789474 
     466   0.81844115       20   0.55789474   0.94736842   0.55789474 
     467   0.82008719       20   0.55789474   0.94736842   0.55789474 
     468   0.82186699       20   0.55789474   0.94736842   0.55789474 
     469   0.82351208       20   0.55789474   0.94736842   0.55789474 
     470   0.82519007       20   0.55789474   0.94736842   0.55789474 
     471   0.82688808       20   0.55789474   0.94736842   0.55789474 
     472   0.82857013       20   0.55789474   0.94736842   0.55789474 
     473   0.83028412       20   0.55789474   0.94736842   0.55789474 
     474   0.83192301       20   0.55789474   0.94736842   0.55789474 
     475   0.83366299       20   0.55789474   0.94736842   0.55789474 
     476   0.83539605       20   0.55789474   0.94736842   0.55789474 
     477   0.83710504       20   0.55789474   0.94736842   0.55789474 
     478   0.83879113       20   0.55789474   0.94736842   0.55789474 
     479   0.84050107       20   0.55789474   0.94736842   0.55789474 
     480   0.84215498       20   0.55789474   0.94736842   0.55789474 
     481     0.843961       20   0.55789474   0.94736842   0.55789474 
     482   0.84580898       20   0.55789474   0.94736842   0.55789474 
     483   0.84758711       20   0.55789474   0.94736842   0.55789474 
     484   0.84926105       20   0.55789474   0.94736842   0.55789474 
     485   0.85089302       20   0.55789474   0.94736842   0.55789474 
     486   0.85256004       20   0.55789474   0.94736842   0.55789474 
     487   0.85420299       20   0.55789474   0.94736842   0.55789474 
     488   0.85590506       20   0.55789474   0.94736842   0.55789474 
     489   0.85767698       20   0.55789474   0.94736842   0.55789474 
     490   0.85941815       20   0.55789474   0.94736842   0.55789474 
     491   0.86123013       20   0.55789474   0.94736842   0.55789474 
     492   0.86293197       20   0.55789474   0.94736842   0.55789474 
     493    0.8646102       20   0.55789474   0.94736842   0.55789474 
     494   0.86624408       20   0.55789474   0.94736842   0.55789474 
     495   0.86785197       20   0.55789474   0.94736842   0.55789474 
     496   0.86949301       20   0.55789474   0.94736842   0.55789474 
     497   0.87110996       20   0.55789474   0.94736842   0.55789474 
     498   0.87274408       20   0.55789474   0.94736842   0.55789474 
     499   0.87440014       20   0.55789474   0.94736842   0.55789474 
     500   0.87632108       20   0.55789474   0.94736842   0.55789474 
     501   0.87803602       20   0.55789474   0.94736842   0.55789474 
     502   0.87970519       20   0.55789474   0.94736842   0.55789474 
     503   0.88145709       20   0.55789474   0.94736842   0.55789474 
     504   0.88307905       20   0.55789474   0.94736842   0.55789474 
     505   0.88491106       20   0.55789474   0.94736842   0.55789474 
     506   0.88659215       20   0.55789474   0.94736842   0.55789474 
     507     0.888304       20   0.55789474   0.94736842   0.55789474 
     508   0.89009404       20   0.55789474   0.94736842   0.55789474 
     509   0.89177704       20   0.55789474   0.94736842   0.55789474 
     510   0.89352703       20   0.55789474   0.94736842   0.55789474 
     511   0.89532614       20   0.55789474   0.94736842   0.55789474 
     512   0.89707804       20   0.55789474   0.94736842   0.55789474 
     513   0.89871716       20   0.55789474   0.94736842   0.55789474 
     514   0.90037298       20   0.55789474   0.94736842   0.55789474 
     515   0.90204215       20   0.55789474   0.94736842   0.55789474 
     516   0.90368199       20   0.55789474   0.94736842   0.55789474 
     517   0.90538406       20   0.55789474   0.94736842   0.55789474 
     518   0.90760016       20   0.55789474   0.94736842   0.55789474 
     519   0.90930009       20   0.55789474   0.94736842   0.55789474 
     520   0.91100311       20   0.55789474   0.94736842   0.55789474 
     521   0.91318011       20   0.55789474   0.94736842   0.55789474 
     522   0.91494203       20   0.55789474   0.94736842   0.55789474 
     523   0.91679001       20   0.55789474   0.94736842   0.55789474 
     524   0.91851807       20   0.55789474   0.94736842   0.55789474 
     525   0.92022204       20   0.55789474   0.94736842   0.55789474 
     526   0.92192411       20   0.55789474   0.94736842   0.55789474 
     527   0.92361307       20   0.55789474   0.94736842   0.55789474 
     528   0.92531419       20   0.55789474   0.94736842   0.55789474 
     529   0.92699218       20   0.55789474   0.94736842   0.55789474 
     530   0.92867804       20   0.55789474   0.94736842   0.55789474 
     531   0.93033504       20   0.55789474   0.94736842   0.55789474 
     532   0.93194914       20   0.55789474   0.94736842   0.55789474 
     533   0.93358517       20   0.55789474   0.94736842   0.55789474 
     534     0.935184       20   0.55789474   0.94736842   0.55789474 
     535   0.93705201       20   0.55789474   0.94736842   0.55789474 
     536   0.93869901       20   0.55789474   0.94736842   0.55789474 
     537   0.94040418       20   0.55789474   0.94736842   0.55789474 
     538   0.94205904       20   0.55789474   0.94736842   0.55789474 
     539   0.94387197       20   0.55789474   0.94736842   0.55789474 
     540   0.94569612       20   0.55789474   0.94736842   0.55789474 
     541   0.94742203       20   0.55789474   0.94736842   0.55789474 
     542   0.94917297       20   0.55789474   0.94736842   0.55789474 
     543   0.95084214       20   0.55789474   0.94736842   0.55789474 
     544   0.95257401       20   0.55789474   0.94736842   0.55789474 
     545   0.95425296       20   0.55789474   0.94736842   0.55789474 
     546   0.95590806       20   0.55789474   0.94736842   0.55789474 
     547   0.95760298       20   0.55789474   0.94736842   0.55789474 
     548   0.95927405       20   0.55789474   0.94736842   0.55789474 
     549   0.96099305       20   0.55789474   0.94736842   0.55789474 
     550     0.962713       20   0.55789474   0.94736842   0.55789474 
     551   0.96484208       20   0.55789474   0.94736842   0.55789474 
     552    0.9666431       20   0.55789474   0.94736842   0.55789474 
     553   0.96845007       20   0.55789474   0.94736842   0.55789474 
     554   0.97009015       20   0.55789474   0.94736842   0.55789474 
     555   0.97172618       20   0.55789474   0.94736842   0.55789474 
     556   0.97339606       20   0.55789474   0.94736842   0.55789474 
     557   0.97504115       20   0.55789474   0.94736842   0.55789474 
     558   0.97674608       20   0.55789474   0.94736842   0.55789474 
     559   0.97841501       20   0.55789474   0.94736842   0.55789474 
     560   0.98004198       20   0.55789474   0.94736842   0.55789474 
     561   0.98169613       20   0.55789474   0.94736842   0.55789474 
     562   0.98331308       20   0.55789474   0.94736842   0.55789474 
     563   0.98498201       20   0.55789474   0.94736842   0.55789474 
     564   0.98687196       20   0.55789474   0.94736842   0.55789474 
     565   0.98857403       20   0.55789474   0.94736842   0.55789474 
     566    0.9902401       20   0.55789474   0.94736842   0.55789474 
     567   0.99216318       20   0.55789474   0.94736842   0.55789474 
     568   0.99391699       20   0.55789474   0.94736842   0.55789474 
     569   0.99563599       20   0.55789474   0.94736842   0.55789474 
     570     0.997365       20   0.55789474   0.94736842   0.55789474 
     571   0.99940515       20   0.55789474   0.94736842   0.55789474 
     572     1.001128       20   0.55789474   0.94736842   0.55789474 
     573     1.002763       20   0.55789474   0.94736842   0.55789474 
     574    1.0044351       20   0.55789474   0.94736842   0.55789474 
     575     1.006052       20   0.55789474   0.94736842   0.55789474 
     576    1.0077062       20   0.55789474   0.94736842   0.55789474 
     577     1.009376       20   0.55789474   0.94736842   0.55789474 
     578    1.0110731       20   0.55789474   0.94736842   0.55789474 
     579    1.0128331       20   0.55789474   0.94736842   0.55789474 
     580     1.014966       20   0.55789474   0.94736842   0.55789474 
     581     1.017005       20   0.55789474   0.94736842   0.55789474 
     582    1.0186431       20   0.55789474   0.94736842   0.55789474 
     583    1.0202842       20   0.55789474   0.94736842   0.55789474 
     584    1.0219181       20   0.55789474   0.94736842   0.55789474 
     585      1.02356       20   0.55789474   0.94736842   0.55789474 
     586     1.025315       20   0.55789474   0.94736842   0.55789474 
     587    1.0270071       20   0.55789474   0.94736842   0.55789474 
     588    1.0286431       20   0.55789474   0.94736842   0.55789474 
     589    1.0302992       20   0.55789474   0.94736842   0.55789474 
     590    1.0319331       20   0.55789474   0.94736842   0.55789474 
     591    1.0335622       20   0.55789474   0.94736842   0.55789474 
     592     1.035192       20   0.55789474   0.94736842   0.55789474 
     593    1.0368822       20   0.55789474   0.94736842   0.55789474 
     594    1.0386791       20   0.55789474   0.94736842   0.55789474 
     595    1.0405021       20   0.55789474   0.94736842   0.55789474 
     596     1.042444       20   0.55789474   0.94736842   0.55789474 
     597    1.0441451       20   0.55789474   0.94736842   0.55789474 
     598     1.045855       20   0.55789474   0.94736842   0.55789474 
     599    1.0475171       20   0.55789474   0.94736842   0.55789474 
     600     1.049216       20   0.55789474   0.94736842   0.55789474 
     601    1.0509531       20   0.55789474   0.94736842   0.55789474 
     602    1.0526211       20   0.55789474   0.94736842   0.55789474 
     603    1.0542331       20   0.55789474   0.94736842   0.55789474 
     604     1.055845       20   0.55789474   0.94736842   0.55789474 
     605     1.057543       20   0.55789474   0.94736842   0.55789474 
     606    1.0591891       20   0.55789474   0.94736842   0.55789474 
     607     1.060858       20   0.55789474   0.94736842   0.55789474 
     608    1.0625012       20   0.55789474   0.94736842   0.55789474 
     609    1.0644531       20   0.55789474   0.94736842   0.55789474 
     610     1.066093       20   0.55789474   0.94736842   0.55789474 
     611     1.067724       20   0.55789474   0.94736842   0.55789474 
     612     1.069489       20   0.55789474   0.94736842   0.55789474 
     613      1.07113       20   0.55789474   0.94736842   0.55789474 
     614    1.0728021       20   0.55789474   0.94736842   0.55789474 
     615    1.0744591       20   0.55789474   0.94736842   0.55789474 
     616     1.076087       20   0.55789474   0.94736842   0.55789474 
     617    1.0777771       20   0.55789474   0.94736842   0.55789474 
     618    1.0794191       20   0.55789474   0.94736842   0.55789474 
     619    1.0811191       20   0.55789474   0.94736842   0.55789474 
     620     1.082881       20   0.55789474   0.94736842   0.55789474 
     621    1.0846782       20   0.55789474   0.94736842   0.55789474 
     622     1.086339       20   0.55789474   0.94736842   0.55789474 
     623    1.0879982       20   0.55789474   0.94736842   0.55789474 
     624     1.089658       20   0.55789474   0.94736842   0.55789474 
     625    1.0912721       20   0.55789474   0.94736842   0.55789474 
     626     1.093004       20   0.55789474   0.94736842   0.55789474 
     627    1.0947552       20   0.55789474   0.94736842   0.55789474 
     628    1.0964701       20   0.55789474   0.94736842   0.55789474 
     629    1.0981781       20   0.55789474   0.94736842   0.55789474 
     630    1.0999241       20   0.55789474   0.94736842   0.55789474 
     631     1.101588       20   0.55789474   0.94736842   0.55789474 
     632     1.103277       20   0.55789474   0.94736842   0.55789474 
     633    1.1049812       20   0.55789474   0.94736842   0.55789474 
     634    1.1066692       20   0.55789474   0.94736842   0.55789474 
     635    1.1083782       20   0.55789474   0.94736842   0.55789474 
     636    1.1100461       20   0.55789474   0.94736842   0.55789474 
     637     1.111727       20   0.55789474   0.94736842   0.55789474 
     638    1.1134231       20   0.55789474   0.94736842   0.55789474 
     639    1.1153162       20   0.55789474   0.94736842   0.55789474 
     640    1.1170311       20   0.55789474   0.94736842   0.55789474 
     641      1.11868       20   0.55789474   0.94736842   0.55789474 
     642     1.120389       20   0.55789474   0.94736842   0.55789474 
     643     1.122045       20   0.55789474   0.94736842   0.55789474 
     644    1.1237411       20   0.55789474   0.94736842   0.55789474 
     645    1.1254551       20   0.55789474   0.94736842   0.55789474 
     646    1.1271811       20   0.55789474   0.94736842   0.55789474 
     647     1.128906       20   0.55789474   0.94736842   0.55789474 
     648    1.1305661       20   0.55789474   0.94736842   0.55789474 
     649    1.1323252       20   0.55789474   0.94736842   0.55789474 
     650    1.1341021       20   0.55789474   0.94736842   0.55789474 
     651    1.1357992       20   0.55789474   0.94736842   0.55789474 
     652     1.137536       20   0.55789474   0.94736842   0.55789474 
     653     1.139179       20   0.55789474   0.94736842   0.55789474 
     654     1.140857       20   0.55789474   0.94736842   0.55789474 
     655    1.1425202       20   0.55789474   0.94736842   0.55789474 
     656    1.1442192       20   0.55789474   0.94736842   0.55789474 
     657     1.146106       20   0.55789474   0.94736842   0.55789474 
     658    1.1477962       20   0.55789474   0.94736842   0.55789474 
     659    1.1495411       20   0.55789474   0.94736842   0.55789474 
     660    1.1512132       20   0.55789474   0.94736842   0.55789474 
     661    1.1528881       20   0.55789474   0.94736842   0.55789474 
     662    1.1545141       20   0.55789474   0.94736842   0.55789474 
     663    1.1561651       20   0.55789474   0.94736842   0.55789474 
     664    1.1578991       20   0.55789474   0.94736842   0.55789474 
     665    1.1595821       20   0.55789474   0.94736842   0.55789474 
     666    1.1613731       20   0.55789474   0.94736842   0.55789474 
     667    1.1633971       20   0.55789474   0.94736842   0.55789474 
     668    1.1654031       20   0.55789474   0.94736842   0.55789474 
     669    1.1672812       20   0.55789474   0.94736842   0.55789474 
     670     1.169013       20   0.55789474   0.94736842   0.55789474 
     671      1.17068       20   0.55789474   0.94736842   0.55789474 
     672    1.1723552       20   0.55789474   0.94736842   0.55789474 
     673    1.1740241       20   0.55789474   0.94736842   0.55789474 
     674    1.1758912       20   0.55789474   0.94736842   0.55789474 
     675     1.177953       20   0.55789474   0.94736842   0.55789474 
     676    1.1796181       20   0.55789474   0.94736842   0.55789474 
     677     1.181298       20   0.55789474   0.94736842   0.55789474 
     678    1.1829181       20   0.55789474   0.94736842   0.55789474 
     679     1.184597       20   0.55789474   0.94736842   0.55789474 
     680    1.1862512       20   0.55789474   0.94736842   0.55789474 
     681    1.1878781       20   0.55789474   0.94736842   0.55789474 
     682    1.1895711       20   0.55789474   0.94736842   0.55789474 
     683     1.191236       20   0.55789474   0.94736842   0.55789474 
     684    1.1929362       20   0.55789474   0.94736842   0.55789474 
     685    1.1946301       20   0.55789474   0.94736842   0.55789474 
     686    1.1963742       20   0.55789474   0.94736842   0.55789474 
     687     1.198015       20   0.55789474   0.94736842   0.55789474 
     688    1.1998241       20   0.55789474   0.94736842   0.55789474 
     689    1.2015941       20   0.55789474   0.94736842   0.55789474 
     690    1.2033012       20   0.55789474   0.94736842   0.55789474 
     691     1.205081       20   0.55789474   0.94736842   0.55789474 
     692    1.2068012       20   0.55789474   0.94736842   0.55789474 
     693    1.2085261       20   0.55789474   0.94736842   0.55789474 
     694    1.2102661       20   0.55789474   0.94736842   0.55789474 
     695    1.2119541       20   0.55789474   0.94736842   0.55789474 
     696    1.2136381       20   0.55789474   0.94736842   0.55789474 
     697     1.215292       20   0.55789474   0.94736842   0.55789474 
     698     1.216995       20   0.55789474   0.94736842   0.55789474 
     699    1.2186592       20   0.55789474   0.94736842   0.55789474 
     700      1.22035       20   0.55789474   0.94736842   0.55789474 
     701    1.2219741       20   0.55789474   0.94736842   0.55789474 
     702    1.2236791       20   0.55789474   0.94736842   0.55789474 
     703    1.2253711       20   0.55789474   0.94736842   0.55789474 
     704    1.2270942       20   0.55789474   0.94736842   0.55789474 
     705     1.228801       20   0.55789474   0.94736842   0.55789474 
     706    1.2305551       20   0.55789474   0.94736842   0.55789474 
     707    1.2322102       20   0.55789474   0.94736842   0.55789474 
     708     1.233866       20   0.55789474   0.94736842   0.55789474 
     709    1.2355552       20   0.55789474   0.94736842   0.55789474 
     710     1.237236       20   0.55789474   0.94736842   0.55789474 
     711    1.2389181       20   0.55789474   0.94736842   0.55789474 
     712     1.240622       20   0.55789474   0.94736842   0.55789474 
     713     1.242254       20   0.55789474   0.94736842   0.55789474 
     714    1.2440181       20   0.55789474   0.94736842   0.55789474 
     715    1.2457061       20   0.55789474   0.94736842   0.55789474 
     716    1.2473512       20   0.55789474   0.94736842   0.55789474 
     717    1.2489901       20   0.55789474   0.94736842   0.55789474 
     718      1.25073       20   0.55789474   0.94736842   0.55789474 
     719    1.2524202       20   0.55789474   0.94736842   0.55789474 
     720     1.254205       20   0.55789474   0.94736842   0.55789474 
     721    1.2560441       20   0.55789474   0.94736842   0.55789474 
     722     1.257735       20   0.55789474   0.94736842   0.55789474 
     723     1.259371       20   0.55789474   0.94736842   0.55789474 
     724    1.2610581       20   0.55789474   0.94736842   0.55789474 
     725    1.2626772       20   0.55789474   0.94736842   0.55789474 
     726    1.2647281       20   0.55789474   0.94736842   0.55789474 
     727    1.2663682       20   0.55789474   0.94736842   0.55789474 
     728    1.2679811       20   0.55789474   0.94736842   0.55789474 
     729    1.2697082       20   0.55789474   0.94736842   0.55789474 
     730     1.271354       20   0.55789474   0.94736842   0.55789474 
     731    1.2730072       20   0.55789474   0.94736842   0.55789474 
     732    1.2747412       20   0.55789474   0.94736842   0.55789474 
     733     1.276422       20   0.55789474   0.94736842   0.55789474 
     734    1.2780581       20   0.55789474   0.94736842   0.55789474 
     735    1.2796922       20   0.55789474   0.94736842   0.55789474 
     736     1.281357       20   0.55789474   0.94736842   0.55789474 
     737     1.283097       20   0.55789474   0.94736842   0.55789474 
     738    1.2848542       20   0.55789474   0.94736842   0.55789474 
     739     1.286643       20   0.55789474   0.94736842   0.55789474 
     740    1.2883451       20   0.55789474   0.94736842   0.55789474 
     741     1.289957       20   0.55789474   0.94736842   0.55789474 
     742    1.2915921       20   0.55789474   0.94736842   0.55789474 
     743    1.2933371       20   0.55789474   0.94736842   0.55789474 
     744    1.2951372       20   0.55789474   0.94736842   0.55789474 
     745    1.2968781       20   0.55789474   0.94736842   0.55789474 
     746    1.2986231       20   0.55789474   0.94736842   0.55789474 
     747    1.3003891       20   0.55789474   0.94736842   0.55789474 
     748     1.302057       20   0.55789474   0.94736842   0.55789474 
     749    1.3037732       20   0.55789474   0.94736842   0.55789474 
     750    1.3054731       20   0.55789474   0.94736842   0.55789474 
     751    1.3072131       20   0.55789474   0.94736842   0.55789474 
     752    1.3089252       20   0.55789474   0.94736842   0.55789474 
     753     1.310605       20   0.55789474   0.94736842   0.55789474 
     754    1.3122902       20   0.55789474   0.94736842   0.55789474 
     755    1.3139591       20   0.55789474   0.94736842   0.55789474 
     756      1.31563       20   0.55789474   0.94736842   0.55789474 
     757    1.3173611       20   0.55789474   0.94736842   0.55789474 
     758      1.31899       20   0.55789474   0.94736842   0.55789474 
     759    1.3206592       20   0.55789474   0.94736842   0.55789474 
     760    1.3223081       20   0.55789474   0.94736842   0.55789474 
     761    1.3240421       20   0.55789474   0.94736842   0.55789474 
     762    1.3257542       20   0.55789474   0.94736842   0.55789474 
     763     1.327548       20   0.55789474   0.94736842   0.55789474 
     764     1.329345       20   0.55789474   0.94736842   0.55789474 
     765    1.3310161       20   0.55789474   0.94736842   0.55789474 
     766    1.3327501       20   0.55789474   0.94736842   0.55789474 
     767    1.3344071       20   0.55789474   0.94736842   0.55789474 
     768    1.3360422       20   0.55789474   0.94736842   0.55789474 
     769     1.337723       20   0.55789474   0.94736842   0.55789474 
     770    1.3393571       20   0.55789474   0.94736842   0.55789474 
     771    1.3410652       20   0.55789474   0.94736842   0.55789474 
     772    1.3427122       20   0.55789474   0.94736842   0.55789474 
     773     1.344445       20   0.55789474   0.94736842   0.55789474 
     774     1.346118       20   0.55789474   0.94736842   0.55789474 
     775    1.3477881       20   0.55789474   0.94736842   0.55789474 
     776     1.349458       20   0.55789474   0.94736842   0.55789474 
     777    1.3510971       20   0.55789474   0.94736842   0.55789474 
     778    1.3528771       20   0.55789474   0.94736842   0.55789474 
     779    1.3545761       20   0.55789474   0.94736842   0.55789474 
     780     1.356286       20   0.55789474   0.94736842   0.55789474 
     781     1.358036       20   0.55789474   0.94736842   0.55789474 
     782    1.3597751       20   0.55789474   0.94736842   0.55789474 
     783     1.361696       20   0.55789474   0.94736842   0.55789474 
     784    1.3634682       20   0.55789474   0.94736842   0.55789474 
     785    1.3656371       20   0.55789474   0.94736842   0.55789474 
     786     1.367527       20   0.55789474   0.94736842   0.55789474 
     787    1.3692191       20   0.55789474   0.94736842   0.55789474 
     788    1.3708801       20   0.55789474   0.94736842   0.55789474 
     789     1.372561       20   0.55789474   0.94736842   0.55789474 
     790    1.3742161       20   0.55789474   0.94736842   0.55789474 
     791    1.3758621       20   0.55789474   0.94736842   0.55789474 
     792    1.3776081       20   0.55789474   0.94736842   0.55789474 
     793     1.379339       20   0.55789474   0.94736842   0.55789474 
     794     1.381088       20   0.55789474   0.94736842   0.55789474 
     795    1.3827701       20   0.55789474   0.94736842   0.55789474 
     796    1.3844721       20   0.55789474   0.94736842   0.55789474 
     797    1.3861392       20   0.55789474   0.94736842   0.55789474 
     798    1.3878422       20   0.55789474   0.94736842   0.55789474 
     799    1.3895261       20   0.55789474   0.94736842   0.55789474 
     800     1.391206       20   0.55789474   0.94736842   0.55789474 
     801     1.392874       20   0.55789474   0.94736842   0.55789474 
     802     1.394599       20   0.55789474   0.94736842   0.55789474 
     803    1.3963392       20   0.55789474   0.94736842   0.55789474 
     804     1.398057       20   0.55789474   0.94736842   0.55789474 
     805     1.399833       20   0.55789474   0.94736842   0.55789474 
     806    1.4016402       20   0.55789474   0.94736842   0.55789474 
     807    1.4034071       20   0.55789474   0.94736842   0.55789474 
     808     1.405123       20   0.55789474   0.94736842   0.55789474 
     809    1.4068022       20   0.55789474   0.94736842   0.55789474 
     810    1.4086511       20   0.55789474   0.94736842   0.55789474 
     811     1.410331       20   0.55789474   0.94736842   0.55789474 
     812     1.411989       20   0.55789474   0.94736842   0.55789474 
     813     1.413707       20   0.55789474   0.94736842   0.55789474 
     814    1.4158061       20   0.55789474   0.94736842   0.55789474 
     815     1.417531       20   0.55789474   0.94736842   0.55789474 
     816     1.419193       20   0.55789474   0.94736842   0.55789474 
     817    1.4208832       20   0.55789474   0.94736842   0.55789474 
     818    1.4225421       20   0.55789474   0.94736842   0.55789474 
     819    1.4242411       20   0.55789474   0.94736842   0.55789474 
     820    1.4259732       20   0.55789474   0.94736842   0.55789474 
     821     1.427824       20   0.55789474   0.94736842   0.55789474 
     822    1.4295521       20   0.55789474   0.94736842   0.55789474 
     823     1.431468       20   0.55789474   0.94736842   0.55789474 
     824    1.4333022       20   0.55789474   0.94736842   0.55789474 
     825    1.4349802       20   0.55789474   0.94736842   0.55789474 
     826    1.4366651       20   0.55789474   0.94736842   0.55789474 
     827    1.4384971       20   0.55789474   0.94736842   0.55789474 
     828    1.4401801       20   0.55789474   0.94736842   0.55789474 
     829     1.441848       20   0.55789474   0.94736842   0.55789474 
     830    1.4435441       20   0.55789474   0.94736842   0.55789474 
     831    1.4452641       20   0.55789474   0.94736842   0.55789474 
     832     1.446924       20   0.55789474   0.94736842   0.55789474 
     833    1.4486332       20   0.55789474   0.94736842   0.55789474 
     834    1.4503191       20   0.55789474   0.94736842   0.55789474 
     835    1.4519682       20   0.55789474   0.94736842   0.55789474 
     836     1.453639       20   0.55789474   0.94736842   0.55789474 
     837     1.455312       20   0.55789474   0.94736842   0.55789474 
     838    1.4570072       20   0.55789474   0.94736842   0.55789474 
     839    1.4586611       20   0.55789474   0.94736842   0.55789474 
     840      1.46035       20   0.55789474   0.94736842   0.55789474 
     841    1.4620712       20   0.55789474   0.94736842   0.55789474 
     842     1.464246       20   0.55789474   0.94736842   0.55789474 
     843    1.4668632       20   0.55789474   0.94736842   0.55789474 
     844    1.4687431       20   0.55789474   0.94736842   0.55789474 
     845     1.470407       20   0.55789474   0.94736842   0.55789474 
     846    1.4720671       20   0.55789474   0.94736842   0.55789474 
     847    1.4737811       20   0.55789474   0.94736842   0.55789474 
     848    1.4755762       20   0.55789474   0.94736842   0.55789474 
     849    1.4776142       20   0.55789474   0.94736842   0.55789474 
     850    1.4792821       20   0.55789474   0.94736842   0.55789474 
     851    1.4810121       20   0.55789474   0.94736842   0.55789474 
     852    1.4828322       20   0.55789474   0.94736842   0.55789474 
     853    1.4845462       20   0.55789474   0.94736842   0.55789474 
     854     1.486217       20   0.55789474   0.94736842   0.55789474 
     855    1.4879231       20   0.55789474   0.94736842   0.55789474 
     856    1.4898221       20   0.55789474   0.94736842   0.55789474 
     857    1.4914901       20   0.55789474   0.94736842   0.55789474 
     858    1.4931922       20   0.55789474   0.94736842   0.55789474 
     859    1.4948962       20   0.55789474   0.94736842   0.55789474 
     860    1.4968722       20   0.55789474   0.94736842   0.55789474 
     861     1.498929       20   0.55789474   0.94736842   0.55789474 
     862     1.500623       20   0.55789474   0.94736842   0.55789474 
     863     1.502357       20   0.55789474   0.94736842   0.55789474 
     864    1.5040221       20   0.55789474   0.94736842   0.55789474 
     865    1.5057151       20   0.55789474   0.94736842   0.55789474 
     866    1.5073881       20   0.55789474   0.94736842   0.55789474 
     867    1.5091321       20   0.55789474   0.94736842   0.55789474 
     868     1.511194       20   0.55789474   0.94736842   0.55789474 
     869    1.5133312       20   0.55789474   0.94736842   0.55789474 
     870     1.515008       20   0.55789474   0.94736842   0.55789474 
     871    1.5167181       20   0.55789474   0.94736842   0.55789474 
     872     1.518383       20   0.55789474   0.94736842   0.55789474 
     873     1.520046       20   0.55789474   0.94736842   0.55789474 
     874    1.5217211       20   0.55789474   0.94736842   0.55789474 
     875     1.523396       20   0.55789474   0.94736842   0.55789474 
     876    1.5250771       20   0.55789474   0.94736842   0.55789474 
     877    1.5267332       20   0.55789474   0.94736842   0.55789474 
     878     1.528471       20   0.55789474   0.94736842   0.55789474 
     879     1.530158       20   0.55789474   0.94736842   0.55789474 
     880    1.5318232       21   0.42857143   0.95238095          0.6 
     881     1.533504       21   0.42857143   0.95238095          0.6 
     882     1.535177       21   0.42857143   0.95238095          0.6 
     883     1.536875       21   0.42857143   0.95238095          0.6 
     884    1.5385401       21   0.42857143   0.95238095          0.6 
     885     1.540216       21   0.42857143   0.95238095          0.6 
     886    1.5418642       21   0.42857143   0.95238095          0.6 
     887    1.5435381       21   0.42857143   0.95238095          0.6 
     888    1.5452561       21   0.42857143   0.95238095          0.6 
     889    1.5469151       21   0.42857143   0.95238095          0.6 
     890     1.548625       22   0.28571429   0.95670996   0.63636364 
     891     1.550323       22   0.28571429   0.95670996   0.63636364 
     892      1.55233       22   0.28571429   0.95670996   0.63636364 
     893     1.554069       22   0.28571429   0.95670996   0.63636364 
     894    1.5557861       22   0.28571429   0.95670996   0.63636364 
     895     1.557559       22   0.28571429   0.95670996   0.63636364 
     896    1.5593951       22   0.28571429   0.95670996   0.63636364 
     897     1.561126       22   0.28571429   0.95670996   0.63636364 
     898     1.562849       22   0.28571429   0.95670996   0.63636364 
     899    1.5649731       22   0.28571429   0.95670996   0.63636364 
     900    1.5666761       22   0.28571429   0.95670996   0.63636364 
     901    1.5684621       22   0.28571429   0.95670996   0.63636364 
     902    1.5701361       22   0.28571429   0.95670996   0.63636364 
     903     1.571794       22   0.28571429   0.95670996   0.63636364 
     904    1.5735071       22   0.28571429   0.95670996   0.63636364 
     905    1.5751781       22   0.28571429   0.95670996   0.63636364 
     906    1.5772481       23   0.13043478   0.96047431   0.66798419 
     907     1.579035       23   0.13043478   0.96047431   0.66798419 
     908    1.5807421       23   0.13043478   0.96047431   0.66798419 
     909     1.582545       23   0.13043478   0.96047431   0.66798419 
     910    1.5843821       23   0.13043478   0.96047431   0.66798419 
     911    1.5860841       23   0.13043478   0.96047431   0.66798419 
     912    1.5877452       23   0.13043478   0.96047431   0.66798419 
     913     1.589453       23   0.13043478   0.96047431   0.66798419 
     914    1.5911942       23   0.13043478   0.96047431   0.66798419 
     915     1.592999       23   0.13043478   0.96047431   0.66798419 
     916    1.5947292       23   0.13043478   0.96047431   0.66798419 
     917     1.596451       23   0.13043478   0.96047431   0.66798419 
     918    1.5981231       23   0.13043478   0.96047431   0.66798419 
     919    1.5998042       23   0.13043478   0.96047431   0.66798419 
     920     1.601517       23   0.13043478   0.96047431   0.66798419 
     921     1.603205       23   0.13043478   0.96047431   0.66798419 
     922    1.6049061       23   0.13043478   0.96047431   0.66798419 
     923     1.606596       23   0.13043478   0.96047431   0.66798419 
     924     1.608299       23   0.13043478   0.96047431   0.66798419 
     925     1.609983       23   0.13043478   0.96047431   0.66798419 
     926    1.6117051       23   0.13043478   0.96047431   0.66798419 
     927     1.613409       23   0.13043478   0.96047431   0.66798419 
     928    1.6150911       23   0.13043478   0.96047431   0.66798419 
     929     1.616859       23   0.13043478   0.96047431   0.66798419 
     930    1.6186631       23   0.13043478   0.96047431   0.66798419 
     931    1.6204982       23   0.13043478   0.96047431   0.66798419 
     932     1.622467       23   0.13043478   0.96047431   0.66798419 
     933    1.6242912       23   0.13043478   0.96047431   0.66798419 
     934     1.626209       23   0.13043478   0.96047431   0.66798419 
     935    1.6279011       23   0.13043478   0.96047431   0.66798419 
     936     1.629596       23   0.13043478   0.96047431   0.66798419 
     937    1.6312542       23   0.13043478   0.96047431   0.66798419 
     938     1.632987       23   0.13043478   0.96047431   0.66798419 
     939    1.6347291       23   0.13043478   0.96047431   0.66798419 
     940    1.6364331       23   0.13043478   0.96047431   0.66798419 
     941     1.638098       23   0.13043478   0.96047431   0.66798419 
     942    1.6397781       23   0.13043478   0.96047431   0.66798419 
     943    1.6414731       23   0.13043478   0.96047431   0.66798419 
     944    1.6431332       23   0.13043478   0.96047431   0.66798419 
     945     1.644866       23   0.13043478   0.96047431   0.66798419 
     946     1.646543       23   0.13043478   0.96047431   0.66798419 
     947    1.6481931       23   0.13043478   0.96047431   0.66798419 
     948    1.6500602       23   0.13043478   0.96047431   0.66798419 
     949    1.6517911       23   0.13043478   0.96047431   0.66798419 
     950     1.653538       23   0.13043478   0.96047431   0.66798419 
     951     1.655256       23   0.13043478   0.96047431   0.66798419 
     952    1.6570652       23   0.13043478   0.96047431   0.66798419 
     953     1.658767       23   0.13043478   0.96047431   0.66798419 
     954    1.6604872       23   0.13043478   0.96047431   0.66798419 
     955     1.662173       23   0.13043478   0.96047431   0.66798419 
     956    1.6638122       23   0.13043478   0.96047431   0.66798419 
     957     1.665534       23   0.13043478   0.96047431   0.66798419 
     958     1.667294       24   0.20289855   0.96376812   0.56521739 
     959     1.668961       24   0.20289855   0.96376812   0.56521739 
     960    1.6705821       24   0.20289855   0.96376812   0.56521739 
     961     1.672231       24   0.20289855   0.96376812   0.56521739 
     962     1.673877       24   0.20289855   0.96376812   0.56521739 
     963     1.675606       24   0.20289855   0.96376812   0.56521739 
     964    1.6773422       24   0.20289855   0.96376812   0.56521739 
     965    1.6789641       24   0.20289855   0.96376812   0.56521739 
     966    1.6806471       24   0.20289855   0.96376812   0.56521739 
     967     1.682276       24   0.20289855   0.96376812   0.56521739 
     968    1.6838841       24   0.20289855   0.96376812   0.56521739 
     969     1.685539       24   0.20289855   0.96376812   0.56521739 
     970    1.6871772       24   0.20289855   0.96376812   0.56521739 
     971    1.6890931       24   0.20289855   0.96376812   0.56521739 
     972    1.6912611       24   0.20289855   0.96376812   0.56521739 
     973      1.69327       24   0.20289855   0.96376812   0.56521739 
     974    1.6950052       24   0.20289855   0.96376812   0.56521739 
     975     1.696733       24   0.20289855   0.96376812   0.56521739 
     976       1.6984       24   0.20289855   0.96376812   0.56521739 
     977      1.70034       24   0.20289855   0.96376812   0.56521739 
     978     1.702019       24   0.20289855   0.96376812   0.56521739 
     979     1.703649       24   0.20289855   0.96376812   0.56521739 
     980    1.7055972       24   0.20289855   0.96376812   0.56521739 
     981     1.707324       24   0.20289855   0.96376812   0.56521739 
     982    1.7090011       24   0.20289855   0.96376812   0.56521739 
     983     1.710732       24   0.20289855   0.96376812   0.56521739 
     984    1.7124741       24   0.20289855   0.96376812   0.56521739 
     985    1.7143822       24   0.20289855   0.96376812   0.56521739 
     986    1.7161322       24   0.20289855   0.96376812   0.56521739 
     987    1.7178512       24   0.20289855   0.96376812   0.56521739 
     988     1.719733       24   0.20289855   0.96376812   0.56521739 
     989     1.721554       24   0.20289855   0.96376812   0.56521739 
     990    1.7232292       24   0.20289855   0.96376812   0.56521739 
     991    1.7249241       24   0.20289855   0.96376812   0.56521739 
     992    1.7265611       24   0.20289855   0.96376812   0.56521739 
     993    1.7282841       24   0.20289855   0.96376812   0.56521739 
     994    1.7299361       24   0.20289855   0.96376812   0.56521739 
     995     1.731565       24   0.20289855   0.96376812   0.56521739 
     996    1.7332542       24   0.20289855   0.96376812   0.56521739 
     997     1.734952       24   0.20289855   0.96376812   0.56521739 
     998     1.736635       24   0.20289855   0.96376812   0.56521739 
     999    1.7382841       24   0.20289855   0.96376812   0.56521739 
    1000    1.7493181       24   0.20289855   0.96376812   0.56521739 
Loop time of 1.74934 on 1 procs for 1000 steps with 24 atoms

Performance: 1778042915.421 tau/day, 571.644 timesteps/s
99.9% CPU use with 1 MPI tasks x no OpenMP threads

MPI task timing breakdown:
Section |  min time  |  avg time  |  max time  |%varavg| %total
---------------------------------------------------------------
Pair    | 0.0020463  | 0.0020463  | 0.0020463  |   0.0 |  0.12
Neigh   | 1.6446     | 1.6446     | 1.6446     |   0.0 | 94.01
Comm    | 0.010622   | 0.010622   | 0.010622   |   0.0 |  0.61
Output  | 0.013634   | 0.013634   | 0.013634   |   0.0 |  0.78
Modify  | 0.07581    | 0.07581    | 0.07581    |   0.0 |  4.33
Other   |            | 0.002641   |            |       |  0.15

Nlocal:    24 ave 24 max 24 min
Histogram: 1 0 0 0 0 0 0 0 0 0
Nghost:    0 ave 0 max 0 min
Histogram: 1 0 0 0 0 0 0 0 0 0
Neighs:    16 ave 16 max 16 min
Histogram: 1 0 0 0 0 0 0 0 0 0

Total # of neighbors = 16
Ave neighs/atom = 0.666667
Neighbor list builds = 1000
Dangerous builds = 0


Total wall time: 0:00:01
