 Granular Flow simulation

           20  atoms
           5  atom types

   0.000000      1.0E-04  xlo xhi
   0.000000      1.0E-04  ylo yhi
   0.000000      1.0E-05  zlo zhi

 Atoms

    1	1	1.00E-006	1.00E+006	5.00E-005	5.00E-005	5.00E-006
2	2	1.00E-006	1.00E+006	5.20E-005	5.00E-005	5.00E-006
3	3	1.00E-006	1.00E+006	5.40E-005	5.00E-005	5.00E-006
4	4	1.00E-006	1.00E+006	5.60E-005	5.00E-005	5.00E-006
5	5	1.00E-006	1.00E+006	5.80E-005	5.00E-005	5.00E-006
6	1	1.00E-006	1.00E+006	6.00E-005	5.00E-005	5.00E-006
7	2	1.00E-006	1.00E+006	6.20E-005	5.00E-005	5.00E-006
8	3	1.00E-006	1.00E+006	6.40E-005	5.00E-005	5.00E-006
9	4	1.00E-006	1.00E+006	6.60E-005	5.00E-005	5.00E-006
10	5	1.00E-006	1.00E+006	6.80E-005	5.00E-005	5.00E-006
11	1	1.00E-006	1.00E+006	7.00E-005	5.00E-005	5.00E-006
12	2	1.00E-006	1.00E+006	7.20E-005	5.00E-005	5.00E-006
13	3	1.00E-006	1.00E+006	7.40E-005	5.00E-005	5.00E-006
14	4	1.00E-006	1.00E+006	7.60E-005	5.00E-005	5.00E-006
15	5	1.00E-006	1.00E+006	7.80E-005	5.00E-005	5.00E-006
16	1	1.00E-006	1.00E+006	8.00E-005	5.00E-005	5.00E-006
17	2	1.00E-006	1.00E+006	8.20E-005	5.00E-005	5.00E-006
18	3	1.00E-006	1.00E+006	8.40E-005	5.00E-005	5.00E-006
19	4	1.00E-006	1.00E+006	8.60E-005	5.00E-005	5.00E-006
20	5	1.00E-006	1.00E+006	8.80E-005	5.00E-005	5.00E-006

   