  Granular Flow Simulation 

       40 atoms 
       1 atom types 
       6 nutrients

   0.0   1.0e-04  xlo xhi 
   0.0   4.0e-05  ylo yhi 
   0.0   1.0e-04  zlo zhi 

 Atoms

     1 1 1.0e-6 150 0.5e-5 0.5e-5 1e-6 1.0e-6  
     2 1 1.0e-6 150 1.5e-5 0.5e-5 1e-6 1.0e-6  
     3 1 1.0e-6 150 2.5e-5 0.5e-5 1e-6 1.0e-6  
     4 1 1.0e-6 150 3.5e-5 0.5e-5 1e-6 1.0e-6  
     5 1 1.0e-6 150 4.5e-5 0.5e-5 1e-6 1.0e-6  
     6 1 1.0e-6 150 5.5e-5 0.5e-5 1e-6 1.0e-6  
     7 1 1.0e-6 150 6.5e-5 0.5e-5 1e-6 1.0e-6  
     8 1 1.0e-6 150 7.5e-5 0.5e-5 1e-6 1.0e-6  
     9 1 1.0e-6 150 8.5e-5 0.5e-5 1e-6 1.0e-6  
     10 1 1.0e-6 150 9.5e-5 0.5e-5 1e-6 1.0e-6  
     11 1 1.0e-6 150 0.5e-5 1.5e-5 1e-6 1.0e-6  
     12 1 1.0e-6 150 1.5e-5 1.5e-5 1e-6 1.0e-6  
     13 1 1.0e-6 150 2.5e-5 1.5e-5 1e-6 1.0e-6  
     14 1 1.0e-6 150 3.5e-5 1.5e-5 1e-6 1.0e-6  
     15 1 1.0e-6 150 4.5e-5 1.5e-5 1e-6 1.0e-6  
     16 1 1.0e-6 150 5.5e-5 1.5e-5 1e-6 1.0e-6  
     17 1 1.0e-6 150 6.5e-5 1.5e-5 1e-6 1.0e-6  
     18 1 1.0e-6 150 7.5e-5 1.5e-5 1e-6 1.0e-6  
     19 1 1.0e-6 150 8.5e-5 1.5e-5 1e-6 1.0e-6  
     20 1 1.0e-6 150 9.5e-5 1.5e-5 1e-6 1.0e-6  
     21 1 1.0e-6 150 0.5e-5 2.5e-5 1e-6 1.0e-6  
     22 1 1.0e-6 150 1.5e-5 2.5e-5 1e-6 1.0e-6  
     23 1 1.0e-6 150 2.5e-5 2.5e-5 1e-6 1.0e-6  
     24 1 1.0e-6 150 3.5e-5 2.5e-5 1e-6 1.0e-6  
     25 1 1.0e-6 150 4.5e-5 2.5e-5 1e-6 1.0e-6  
     26 1 1.0e-6 150 5.5e-5 2.5e-5 1e-6 1.0e-6  
     27 1 1.0e-6 150 6.5e-5 2.5e-5 1e-6 1.0e-6  
     28 1 1.0e-6 150 7.5e-5 2.5e-5 1e-6 1.0e-6  
     29 1 1.0e-6 150 8.5e-5 2.5e-5 1e-6 1.0e-6  
     30 1 1.0e-6 150 9.5e-5 2.5e-5 1e-6 1.0e-6  
     31 1 1.0e-6 150 0.5e-5 3.5e-5 1e-6 1.0e-6  
     32 1 1.0e-6 150 1.5e-5 3.5e-5 1e-6 1.0e-6  
     33 1 1.0e-6 150 2.5e-5 3.5e-5 1e-6 1.0e-6  
     34 1 1.0e-6 150 3.5e-5 3.5e-5 1e-6 1.0e-6  
     35 1 1.0e-6 150 4.5e-5 3.5e-5 1e-6 1.0e-6  
     36 1 1.0e-6 150 5.5e-5 3.5e-5 1e-6 1.0e-6  
     37 1 1.0e-6 150 6.5e-5 3.5e-5 1e-6 1.0e-6  
     38 1 1.0e-6 150 7.5e-5 3.5e-5 1e-6 1.0e-6  
     39 1 1.0e-6 150 8.5e-5 3.5e-5 1e-6 1.0e-6  
     40 1 1.0e-6 150 9.5e-5 3.5e-5 1e-6 1.0e-6  

 Nutrients

     1 glu l 1e-3 1e-3 1e-3 1e-3 1e-3 1e-3 1e-3
     2 o2 l 2.81e-4 2.81e-4 2.81e-4 2.81e-4 2.81e-4 2.81e-4 2.81e-4
     3 nh3 l 1e-4 1e-4 1e-4 1e-4 1e-4 1e-4 1e-4
     4 co2 l 1e-5 1e-5 1e-5 1e-5 1e-5 1e-5 1e-5
     5 h2o l 1 1 1 1 1 1 1
     6 h l 0 0 0 0 0 0 0

 Type Name

     1 xhetglu

 Diffusion Coeffs
     
     glu 6.67e-10
     o2 2e-9
     nh3 1.63e-9
     co2 1.91e-9
     h2o 0
     h 0 

 Ks
     
     xhetglu 1e-5 0 0 0 0 0

 Consumption Rate

     xhetglu 0.000138889

 Yield
    
     xhetglu 4.6423281539

 Maintenance
 
     xhetglu 0.00125

 Electron Donor
    
     xhetglu 1

 Decay

     xhetglu 0

 Catabolism Coeffs
         
     xhetglu -1 -6 0 6 0 6

 Anabolism Coeffs
          
     xhetglu -0.175 0 -0.2 0.05 0.05 0
 
 Decay Coeffs
           
     xhetglu 0 0 0 0 0 0
 
 Nutrient Energy

    glu inf -916 inf inf inf 2
    o2 inf 16.4 inf inf inf 2
    nh3 inf -79.37 -26.57 inf inf 2
    co2 -386.00	-623.16	-586.85	-527.80	inf 3
    h2o inf -237.18 -157.3 inf inf 2
    h inf 0 inf inf inf 2

 Type Energy

    xhetglu inf -67 inf inf inf 2

 Dissipation

    xhetglu 0


