LAMMPS (5 Nov 2016)
# NUFEB simulation

units si
atom_style	bio
atom_modify	map array sort 1000 5.0e-7
boundary	pp pp ff
newton		off
processors 10 10 1

comm_modify	vel yes
read_data_bio atom.in
  orthogonal box = (0 0 0) to (0.0006 0.0006 0.0002)
  10 by 10 by 1 MPI processor grid
  reading atoms ...
  0 atoms
  5 nutrients

##############Define initial particle distribution##############

lattice sc 1e-6 origin 0 0 0
Lattice spacing in x,y,z = 1e-06 1e-06 1e-06
region reg block 0 600 0 600 0 1

create_atoms 1 random 1000 3124 reg
Created 1000 atoms
create_atoms 2 random 1000 1321 reg
Created 1000 atoms
create_atoms 3 random 4000 52342 reg
Created 4000 atoms
create_atoms 4 random 1 13212 reg
Created 1 atoms
create_atoms 5 random 1 41231 reg
Created 1 atoms

set type 1 density 32
  1000 settings made for density
set type 1 diameter 1.3e-6
  1000 settings made for diameter
set type 1 mass 3.68e-17
  1000 settings made for mass

set type 2 density 32
  1000 settings made for density
set type 2 diameter 1.3e-6
  1000 settings made for diameter
set type 2 mass 3.68e-17
  1000 settings made for mass

set type 3 density 32
  4000 settings made for density
set type 3 diameter 1.3e-6
  4000 settings made for diameter
set type 3 mass 3.68e-17
  4000 settings made for mass

set type 4 density 32
  1 settings made for density
set type 4 diameter 1.3e-6
  1 settings made for diameter
set type 4 mass 3.68e-17
  1 settings made for mass

set type 5 density 32
  1 settings made for density
set type 5 diameter 1.3e-6
  1 settings made for diameter
set type 5 mass 3.68e-17
  1 settings made for mass

group HET type 1
1000 atoms in group HET
group AOB type 2
1000 atoms in group AOB
group NOB type 3
4000 atoms in group NOB
group EPS type 4
1 atoms in group EPS
group DEAD type 5
1 atoms in group DEAD

neighbor        5e-7 bin
neigh_modify    delay 0 one 5000

##############Define DEM Variables&Commands##############

pair_style  gran/hooke/history 1e-4 NULL 1e-4 NULL 0 1
pair_coeff  * *

timestep 1e-3

fix 1 all nve/limit 1e-8
fix fv all viscous 1e-8

fix zw all wall/gran hooke/history 1e-4 NULL 1e-4 NULL 0 1 zplane 0.0e-4 2e-04

variable kanc equal 5e+8

fix zwa all walladh v_kanc zplane  0.0 2e-04

variable ke equal 5e+8
#fix j1 all epsadh 1 v_ke 1

##############Define IBm Variables##############

#variables used in fix eps_extract
variable EPSdens equal 30
variable EPSratio equal 1.10

#variables used in fix division
variable divDia equal 1.36e-6

#variables used in fix kinetics
variable diffT equal 1e-4
variable tol equal 5e-7
variable etaHET equal 0.6
variable layer equal 2e-5

#variables used in fix death
variable deadDia equal 5e-7

##############Define IBm Commands##############

fix k1 all kinetics 1 150 150 50 v_diffT v_layer niter 20000
fix kgm all kinetics/growth/monod v_EPSdens v_etaHET
fix g1 all kinetics/diffusion v_tol pp pp nd kg bulk 2.31e-7 1.25e-3 0.1
#fix g1 all kinetics/diffusion v_tol pp pp nd kg
fix d1 all divide 1 v_EPSdens v_divDia 41341 demflag 0
fix e1 HET eps_extract 1 v_EPSratio v_EPSdens 5234 demflag 0
fix d2 all death 1 v_deadDia demflag 0

##############Define IBm Computes##############

compute myNtypes all ntypes
compute myMass all biomass
compute myCon all avg_con

##############Simulation Output##############

thermo_style    custom step cpu atoms biomass c_myNtypes[*]
dump du0 all bio 18006 biomass ntypes bulk avg_con
dump du2 all grid 90030 grid_%_*.vti con
dump du3 all custom/vtk 90030 snapshot%_*.vtu id type diameter x y z
thermo 3001
thermo_modify   lost ignore

##############Define Bio-loop and DEM-subloop##############

run 14400 pre no post no every 1 "fix_modify k1 demflag 1" "fix_modify d2 demflag 1" "fix_modify d1 demflag 1" "fix_modify e1 demflag 1" "timestep 1e-3" "run 3000 pre no post no" "timestep 1200" "fix_modify k1 demflag 0" "fix_modify d2 demflag 0" "fix_modify d1 demflag 0" "fix_modify e1 demflag 0"
Neighbor list info ...
  2 neighbor list requests
  update every 1 steps, delay 0 steps, check yes
  max neighbors/atom: 5000, page size: 100000
  master list distance cutoff = 1.8e-06
  ghost atom cutoff = 1.8e-06
  binsize = 9e-07 -> bins = 667 667 223
Memory usage per processor = 12.2495 Mbytes
Step CPU Atoms biomass c_myNtypes[1] c_myNtypes[2] c_myNtypes[3] c_myNtypes[4] c_myNtypes[5] c_myNtypes[6] 
       0            0     6002 2.208736e-13            0         1000         1000         4000            1            1 
number of iterations: 13235 
       1    28.670596     6002 2.208736e-13            0         1000         1000         4000            1            1 
Loop time of 28.671 on 100 procs for 1 steps with 6002 atoms

96.2% CPU use with 100 MPI tasks x no OpenMP threads
fix_modify k1 demflag 1
fix_modify d2 demflag 1
fix_modify d1 demflag 1
fix_modify e1 demflag 1
timestep 1e-3
run 3000 pre no post no
Step CPU Atoms biomass c_myNtypes[1] c_myNtypes[2] c_myNtypes[3] c_myNtypes[4] c_myNtypes[5] c_myNtypes[6] 
       1            0     6002 2.208736e-13            0         1000         1000         4000            1            1 
    3001   0.70482683     6002 2.208736e-13            0         1000         1000         4000            1            1 
Loop time of 0.705159 on 100 procs for 3000 steps with 6002 atoms

94.1% CPU use with 100 MPI tasks x no OpenMP threads
timestep 1200
fix_modify k1 demflag 0
fix_modify d2 demflag 0
fix_modify d1 demflag 0
fix_modify e1 demflag 0
Step CPU Atoms biomass c_myNtypes[1] c_myNtypes[2] c_myNtypes[3] c_myNtypes[4] c_myNtypes[5] c_myNtypes[6] 
    3001            0     6002 2.208736e-13            0         1000         1000         4000            1            1 
number of iterations: 4611 
    3002     4.617393     6002 2.238328e-13            0         1000         1000         4000            1            1 
Loop time of 4.61779 on 100 procs for 1 steps with 6002 atoms

96.3% CPU use with 100 MPI tasks x no OpenMP threads
fix_modify k1 demflag 1
fix_modify d2 demflag 1
fix_modify d1 demflag 1
fix_modify e1 demflag 1
timestep 1e-3
run 3000 pre no post no
Step CPU Atoms biomass c_myNtypes[1] c_myNtypes[2] c_myNtypes[3] c_myNtypes[4] c_myNtypes[5] c_myNtypes[6] 
    3002            0     6002 2.238328e-13            0         1000         1000         4000            1            1 
    6002   0.63587594     6002 2.238328e-13            0         1000         1000         4000            1            1 
Loop time of 0.636237 on 100 procs for 3000 steps with 6002 atoms

95.6% CPU use with 100 MPI tasks x no OpenMP threads
timestep 1200
fix_modify k1 demflag 0
fix_modify d2 demflag 0
fix_modify d1 demflag 0
fix_modify e1 demflag 0
Step CPU Atoms biomass c_myNtypes[1] c_myNtypes[2] c_myNtypes[3] c_myNtypes[4] c_myNtypes[5] c_myNtypes[6] 
    6002            0     6002 2.238328e-13            0         1000         1000         4000            1            1 
number of iterations: 11785 
    6003    11.826459     6002 2.2697885e-13            0         1000         1000         4000            1            1 
Loop time of 11.8267 on 100 procs for 1 steps with 6002 atoms

96.3% CPU use with 100 MPI tasks x no OpenMP threads
fix_modify k1 demflag 1
fix_modify d2 demflag 1
fix_modify d1 demflag 1
fix_modify e1 demflag 1
timestep 1e-3
run 3000 pre no post no
Step CPU Atoms biomass c_myNtypes[1] c_myNtypes[2] c_myNtypes[3] c_myNtypes[4] c_myNtypes[5] c_myNtypes[6] 
    6003            0     6002 2.2697885e-13            0         1000         1000         4000            1            1 
    9003   0.64022994     6002 2.2697885e-13            0         1000         1000         4000            1            1 
Loop time of 0.640565 on 100 procs for 3000 steps with 6002 atoms

95.5% CPU use with 100 MPI tasks x no OpenMP threads
timestep 1200
fix_modify k1 demflag 0
fix_modify d2 demflag 0
fix_modify d1 demflag 0
fix_modify e1 demflag 0
Step CPU Atoms biomass c_myNtypes[1] c_myNtypes[2] c_myNtypes[3] c_myNtypes[4] c_myNtypes[5] c_myNtypes[6] 
    9003            0     6002 2.2697885e-13            0         1000         1000         4000            1            1 
number of iterations: 9976 
    9004    10.299947     6002 2.3032242e-13            0         1000         1000         4000            1            1 
Loop time of 10.3002 on 100 procs for 1 steps with 6002 atoms

96.2% CPU use with 100 MPI tasks x no OpenMP threads
fix_modify k1 demflag 1
fix_modify d2 demflag 1
fix_modify d1 demflag 1
fix_modify e1 demflag 1
timestep 1e-3
run 3000 pre no post no
Step CPU Atoms biomass c_myNtypes[1] c_myNtypes[2] c_myNtypes[3] c_myNtypes[4] c_myNtypes[5] c_myNtypes[6] 
    9004            0     6002 2.3032242e-13            0         1000         1000         4000            1            1 
   12004   0.64697385     6002 2.3032242e-13            0         1000         1000         4000            1            1 
Loop time of 0.647336 on 100 procs for 3000 steps with 6002 atoms

95.5% CPU use with 100 MPI tasks x no OpenMP threads
timestep 1200
fix_modify k1 demflag 0
fix_modify d2 demflag 0
fix_modify d1 demflag 0
fix_modify e1 demflag 0
Step CPU Atoms biomass c_myNtypes[1] c_myNtypes[2] c_myNtypes[3] c_myNtypes[4] c_myNtypes[5] c_myNtypes[6] 
   12004            0     6002 2.3032242e-13            0         1000         1000         4000            1            1 
number of iterations: 9198 
   12005     9.195884     7002 2.338751e-13            0         2000         1000         4000            1            1 
Loop time of 9.19626 on 100 procs for 1 steps with 7002 atoms

96.3% CPU use with 100 MPI tasks x no OpenMP threads
fix_modify k1 demflag 1
fix_modify d2 demflag 1
fix_modify d1 demflag 1
fix_modify e1 demflag 1
timestep 1e-3
run 3000 pre no post no
Step CPU Atoms biomass c_myNtypes[1] c_myNtypes[2] c_myNtypes[3] c_myNtypes[4] c_myNtypes[5] c_myNtypes[6] 
   12005            0     7002 2.338751e-13            0         2000         1000         4000            1            1 
   15005   0.62024593     7002 2.338751e-13            0         2000         1000         4000            1            1 
Loop time of 0.620749 on 100 procs for 3000 steps with 7002 atoms

95.6% CPU use with 100 MPI tasks x no OpenMP threads
timestep 1200
fix_modify k1 demflag 0
fix_modify d2 demflag 0
fix_modify d1 demflag 0
fix_modify e1 demflag 0
Step CPU Atoms biomass c_myNtypes[1] c_myNtypes[2] c_myNtypes[3] c_myNtypes[4] c_myNtypes[5] c_myNtypes[6] 
   15005            0     7002 2.338751e-13            0         2000         1000         4000            1            1 
number of iterations: 8657 
   15006    8.7403588     7002 2.3764934e-13            0         2000         1000         4000            1            1 
Loop time of 8.74065 on 100 procs for 1 steps with 7002 atoms

96.3% CPU use with 100 MPI tasks x no OpenMP threads
fix_modify k1 demflag 1
fix_modify d2 demflag 1
fix_modify d1 demflag 1
fix_modify e1 demflag 1
timestep 1e-3
run 3000 pre no post no
Step CPU Atoms biomass c_myNtypes[1] c_myNtypes[2] c_myNtypes[3] c_myNtypes[4] c_myNtypes[5] c_myNtypes[6] 
   15006            0     7002 2.3764934e-13            0         2000         1000         4000            1            1 
   18006   0.62370706     7002 2.3764934e-13            0         2000         1000         4000            1            1 
Loop time of 0.62406 on 100 procs for 3000 steps with 7002 atoms

95.6% CPU use with 100 MPI tasks x no OpenMP threads
timestep 1200
fix_modify k1 demflag 0
fix_modify d2 demflag 0
fix_modify d1 demflag 0
fix_modify e1 demflag 0
Step CPU Atoms biomass c_myNtypes[1] c_myNtypes[2] c_myNtypes[3] c_myNtypes[4] c_myNtypes[5] c_myNtypes[6] 
   18006            0     7002 2.3764934e-13            0         2000         1000         4000            1            1 
number of iterations: 8225 
   18007     8.226398     7002 2.4165857e-13            0         2000         1000         4000            1            1 
Loop time of 8.2267 on 100 procs for 1 steps with 7002 atoms

96.3% CPU use with 100 MPI tasks x no OpenMP threads
fix_modify k1 demflag 1
fix_modify d2 demflag 1
fix_modify d1 demflag 1
fix_modify e1 demflag 1
timestep 1e-3
run 3000 pre no post no
Step CPU Atoms biomass c_myNtypes[1] c_myNtypes[2] c_myNtypes[3] c_myNtypes[4] c_myNtypes[5] c_myNtypes[6] 
   18007            0     7002 2.4165857e-13            0         2000         1000         4000            1            1 
   21007   0.62802219     7002 2.4165857e-13            0         2000         1000         4000            1            1 
Loop time of 0.62856 on 100 procs for 3000 steps with 7002 atoms

95.6% CPU use with 100 MPI tasks x no OpenMP threads
timestep 1200
fix_modify k1 demflag 0
fix_modify d2 demflag 0
fix_modify d1 demflag 0
fix_modify e1 demflag 0
Step CPU Atoms biomass c_myNtypes[1] c_myNtypes[2] c_myNtypes[3] c_myNtypes[4] c_myNtypes[5] c_myNtypes[6] 
   21007            0     7002 2.4165857e-13            0         2000         1000         4000            1            1 
number of iterations: 7857 
   21008     7.923471     8002 2.4591716e-13            0         2000         2000         4000            1            1 
Loop time of 7.92376 on 100 procs for 1 steps with 8002 atoms

96.3% CPU use with 100 MPI tasks x no OpenMP threads
fix_modify k1 demflag 1
fix_modify d2 demflag 1
fix_modify d1 demflag 1
fix_modify e1 demflag 1
timestep 1e-3
run 3000 pre no post no
Step CPU Atoms biomass c_myNtypes[1] c_myNtypes[2] c_myNtypes[3] c_myNtypes[4] c_myNtypes[5] c_myNtypes[6] 
   21008            0     8002 2.4591716e-13            0         2000         2000         4000            1            1 
   24008   0.64583993     8002 2.4591716e-13            0         2000         2000         4000            1            1 
Loop time of 0.646345 on 100 procs for 3000 steps with 8002 atoms

95.7% CPU use with 100 MPI tasks x no OpenMP threads
timestep 1200
fix_modify k1 demflag 0
fix_modify d2 demflag 0
fix_modify d1 demflag 0
fix_modify e1 demflag 0
Step CPU Atoms biomass c_myNtypes[1] c_myNtypes[2] c_myNtypes[3] c_myNtypes[4] c_myNtypes[5] c_myNtypes[6] 
   24008            0     8002 2.4591716e-13            0         2000         2000         4000            1            1 
number of iterations: 7531 
   24009     7.663187     8002 2.5044049e-13            0         2000         2000         4000            1            1 
Loop time of 7.66368 on 100 procs for 1 steps with 8002 atoms

96.3% CPU use with 100 MPI tasks x no OpenMP threads
fix_modify k1 demflag 1
fix_modify d2 demflag 1
fix_modify d1 demflag 1
fix_modify e1 demflag 1
timestep 1e-3
run 3000 pre no post no
Step CPU Atoms biomass c_myNtypes[1] c_myNtypes[2] c_myNtypes[3] c_myNtypes[4] c_myNtypes[5] c_myNtypes[6] 
   24009            0     8002 2.5044049e-13            0         2000         2000         4000            1            1 
   27009   0.63472199     8002 2.5044049e-13            0         2000         2000         4000            1            1 
Loop time of 0.635034 on 100 procs for 3000 steps with 8002 atoms

95.5% CPU use with 100 MPI tasks x no OpenMP threads
timestep 1200
fix_modify k1 demflag 0
fix_modify d2 demflag 0
fix_modify d1 demflag 0
fix_modify e1 demflag 0
Step CPU Atoms biomass c_myNtypes[1] c_myNtypes[2] c_myNtypes[3] c_myNtypes[4] c_myNtypes[5] c_myNtypes[6] 
   27009            0     8002 2.5044049e-13            0         2000         2000         4000            1            1 
number of iterations: 7237 
   27010    7.3134122     8002 2.5524499e-13            0         2000         2000         4000            1            1 
Loop time of 7.31381 on 100 procs for 1 steps with 8002 atoms

96.3% CPU use with 100 MPI tasks x no OpenMP threads
fix_modify k1 demflag 1
fix_modify d2 demflag 1
fix_modify d1 demflag 1
fix_modify e1 demflag 1
timestep 1e-3
run 3000 pre no post no
Step CPU Atoms biomass c_myNtypes[1] c_myNtypes[2] c_myNtypes[3] c_myNtypes[4] c_myNtypes[5] c_myNtypes[6] 
   27010            0     8002 2.5524499e-13            0         2000         2000         4000            1            1 
   30010   0.59654188     8002 2.5524499e-13            0         2000         2000         4000            1            1 
Loop time of 0.596974 on 100 procs for 3000 steps with 8002 atoms

95.5% CPU use with 100 MPI tasks x no OpenMP threads
timestep 1200
fix_modify k1 demflag 0
fix_modify d2 demflag 0
fix_modify d1 demflag 0
fix_modify e1 demflag 0
Step CPU Atoms biomass c_myNtypes[1] c_myNtypes[2] c_myNtypes[3] c_myNtypes[4] c_myNtypes[5] c_myNtypes[6] 
   30010            0     8002 2.5524499e-13            0         2000         2000         4000            1            1 
number of iterations: 6967 
   30011    7.0380449     8002 2.6034821e-13            0         2000         2000         4000            1            1 
Loop time of 7.03843 on 100 procs for 1 steps with 8002 atoms

96.3% CPU use with 100 MPI tasks x no OpenMP threads
fix_modify k1 demflag 1
fix_modify d2 demflag 1
fix_modify d1 demflag 1
fix_modify e1 demflag 1
timestep 1e-3
run 3000 pre no post no
Step CPU Atoms biomass c_myNtypes[1] c_myNtypes[2] c_myNtypes[3] c_myNtypes[4] c_myNtypes[5] c_myNtypes[6] 
   30011            0     8002 2.6034821e-13            0         2000         2000         4000            1            1 
   33011   0.59756804     8002 2.6034821e-13            0         2000         2000         4000            1            1 
Loop time of 0.59786 on 100 procs for 3000 steps with 8002 atoms

95.4% CPU use with 100 MPI tasks x no OpenMP threads
timestep 1200
fix_modify k1 demflag 0
fix_modify d2 demflag 0
fix_modify d1 demflag 0
fix_modify e1 demflag 0
Step CPU Atoms biomass c_myNtypes[1] c_myNtypes[2] c_myNtypes[3] c_myNtypes[4] c_myNtypes[5] c_myNtypes[6] 
   33011            0     8002 2.6034821e-13            0         2000         2000         4000            1            1 
number of iterations: 6719 
   33012    6.9071701     8002 2.6576888e-13            0         2000         2000         4000            1            1 
Loop time of 6.90755 on 100 procs for 1 steps with 8002 atoms

96.3% CPU use with 100 MPI tasks x no OpenMP threads
fix_modify k1 demflag 1
fix_modify d2 demflag 1
fix_modify d1 demflag 1
fix_modify e1 demflag 1
timestep 1e-3
run 3000 pre no post no
Step CPU Atoms biomass c_myNtypes[1] c_myNtypes[2] c_myNtypes[3] c_myNtypes[4] c_myNtypes[5] c_myNtypes[6] 
   33012            0     8002 2.6576888e-13            0         2000         2000         4000            1            1 
   36012   0.60058498     8002 2.6576888e-13            0         2000         2000         4000            1            1 
Loop time of 0.600856 on 100 procs for 3000 steps with 8002 atoms

95.4% CPU use with 100 MPI tasks x no OpenMP threads
timestep 1200
fix_modify k1 demflag 0
fix_modify d2 demflag 0
fix_modify d1 demflag 0
fix_modify e1 demflag 0
Step CPU Atoms biomass c_myNtypes[1] c_myNtypes[2] c_myNtypes[3] c_myNtypes[4] c_myNtypes[5] c_myNtypes[6] 
   36012            0     8002 2.6576888e-13            0         2000         2000         4000            1            1 
number of iterations: 6490 
   36013       6.4986     8507 2.7152699e-13            0         2505         2000         4000            1            1 
Loop time of 6.49907 on 100 procs for 1 steps with 8507 atoms

96.3% CPU use with 100 MPI tasks x no OpenMP threads
fix_modify k1 demflag 1
fix_modify d2 demflag 1
fix_modify d1 demflag 1
fix_modify e1 demflag 1
timestep 1e-3
run 3000 pre no post no
Step CPU Atoms biomass c_myNtypes[1] c_myNtypes[2] c_myNtypes[3] c_myNtypes[4] c_myNtypes[5] c_myNtypes[6] 
   36013            0     8507 2.7152699e-13            0         2505         2000         4000            1            1 
   39013   0.59488201     8507 2.7152699e-13            0         2505         2000         4000            1            1 
Loop time of 0.595271 on 100 procs for 3000 steps with 8507 atoms

95.6% CPU use with 100 MPI tasks x no OpenMP threads
timestep 1200
fix_modify k1 demflag 0
fix_modify d2 demflag 0
fix_modify d1 demflag 0
fix_modify e1 demflag 0
Step CPU Atoms biomass c_myNtypes[1] c_myNtypes[2] c_myNtypes[3] c_myNtypes[4] c_myNtypes[5] c_myNtypes[6] 
   39013            0     8507 2.7152699e-13            0         2505         2000         4000            1            1 
number of iterations: 6279 
   39014     6.415462     8874 2.7764383e-13            0         2872         2000         4000            1            1 
Loop time of 6.41573 on 100 procs for 1 steps with 8874 atoms

96.3% CPU use with 100 MPI tasks x no OpenMP threads
fix_modify k1 demflag 1
fix_modify d2 demflag 1
fix_modify d1 demflag 1
fix_modify e1 demflag 1
timestep 1e-3
run 3000 pre no post no
Step CPU Atoms biomass c_myNtypes[1] c_myNtypes[2] c_myNtypes[3] c_myNtypes[4] c_myNtypes[5] c_myNtypes[6] 
   39014            0     8874 2.7764383e-13            0         2872         2000         4000            1            1 
   42014   0.59520793     8874 2.7764383e-13            0         2872         2000         4000            1            1 
Loop time of 0.595585 on 100 procs for 3000 steps with 8874 atoms

95.6% CPU use with 100 MPI tasks x no OpenMP threads
timestep 1200
fix_modify k1 demflag 0
fix_modify d2 demflag 0
fix_modify d1 demflag 0
fix_modify e1 demflag 0
Step CPU Atoms biomass c_myNtypes[1] c_myNtypes[2] c_myNtypes[3] c_myNtypes[4] c_myNtypes[5] c_myNtypes[6] 
   42014            0     8874 2.7764383e-13            0         2872         2000         4000            1            1 
number of iterations: 6086 
   42015    6.0984659     9010 2.8414212e-13            0         3008         2000         4000            1            1 
Loop time of 6.09894 on 100 procs for 1 steps with 9010 atoms

96.3% CPU use with 100 MPI tasks x no OpenMP threads
fix_modify k1 demflag 1
fix_modify d2 demflag 1
fix_modify d1 demflag 1
fix_modify e1 demflag 1
timestep 1e-3
run 3000 pre no post no
Step CPU Atoms biomass c_myNtypes[1] c_myNtypes[2] c_myNtypes[3] c_myNtypes[4] c_myNtypes[5] c_myNtypes[6] 
   42015            0     9010 2.8414212e-13            0         3008         2000         4000            1            1 
   45015   0.61434698     9010 2.8414212e-13            0         3008         2000         4000            1            1 
Loop time of 0.614731 on 100 procs for 3000 steps with 9010 atoms

95.4% CPU use with 100 MPI tasks x no OpenMP threads
timestep 1200
fix_modify k1 demflag 0
fix_modify d2 demflag 0
fix_modify d1 demflag 0
fix_modify e1 demflag 0
Step CPU Atoms biomass c_myNtypes[1] c_myNtypes[2] c_myNtypes[3] c_myNtypes[4] c_myNtypes[5] c_myNtypes[6] 
   45015            0     9010 2.8414212e-13            0         3008         2000         4000            1            1 
number of iterations: 5910 
   45016     5.943598     9378 2.9104607e-13            0         3376         2000         4000            1            1 
Loop time of 5.94397 on 100 procs for 1 steps with 9378 atoms

96.3% CPU use with 100 MPI tasks x no OpenMP threads
fix_modify k1 demflag 1
fix_modify d2 demflag 1
fix_modify d1 demflag 1
fix_modify e1 demflag 1
timestep 1e-3
run 3000 pre no post no
Step CPU Atoms biomass c_myNtypes[1] c_myNtypes[2] c_myNtypes[3] c_myNtypes[4] c_myNtypes[5] c_myNtypes[6] 
   45016            0     9378 2.9104607e-13            0         3376         2000         4000            1            1 
   48016   0.63751984     9378 2.9104607e-13            0         3376         2000         4000            1            1 
Loop time of 0.637879 on 100 procs for 3000 steps with 9378 atoms

95.6% CPU use with 100 MPI tasks x no OpenMP threads
timestep 1200
fix_modify k1 demflag 0
fix_modify d2 demflag 0
fix_modify d1 demflag 0
fix_modify e1 demflag 0
Step CPU Atoms biomass c_myNtypes[1] c_myNtypes[2] c_myNtypes[3] c_myNtypes[4] c_myNtypes[5] c_myNtypes[6] 
   48016            0     9378 2.9104607e-13            0         3376         2000         4000            1            1 
number of iterations: 5752 
   48017     5.784759     9497 2.983815e-13            0         3495         2000         4000            1            1 
Loop time of 5.78515 on 100 procs for 1 steps with 9497 atoms

96.3% CPU use with 100 MPI tasks x no OpenMP threads
fix_modify k1 demflag 1
fix_modify d2 demflag 1
fix_modify d1 demflag 1
fix_modify e1 demflag 1
timestep 1e-3
run 3000 pre no post no
Step CPU Atoms biomass c_myNtypes[1] c_myNtypes[2] c_myNtypes[3] c_myNtypes[4] c_myNtypes[5] c_myNtypes[6] 
   48017            0     9497 2.983815e-13            0         3495         2000         4000            1            1 
   51017   0.60812998     9497 2.983815e-13            0         3495         2000         4000            1            1 
Loop time of 0.608591 on 100 procs for 3000 steps with 9497 atoms

95.7% CPU use with 100 MPI tasks x no OpenMP threads
timestep 1200
fix_modify k1 demflag 0
fix_modify d2 demflag 0
fix_modify d1 demflag 0
fix_modify e1 demflag 0
Step CPU Atoms biomass c_myNtypes[1] c_myNtypes[2] c_myNtypes[3] c_myNtypes[4] c_myNtypes[5] c_myNtypes[6] 
   51017            0     9497 2.983815e-13            0         3495         2000         4000            1            1 
number of iterations: 5611 
   51018     5.631027    10002 3.0617591e-13            0         4000         2000         4000            1            1 
Loop time of 5.63133 on 100 procs for 1 steps with 10002 atoms

96.3% CPU use with 100 MPI tasks x no OpenMP threads
fix_modify k1 demflag 1
fix_modify d2 demflag 1
fix_modify d1 demflag 1
fix_modify e1 demflag 1
timestep 1e-3
run 3000 pre no post no
Step CPU Atoms biomass c_myNtypes[1] c_myNtypes[2] c_myNtypes[3] c_myNtypes[4] c_myNtypes[5] c_myNtypes[6] 
   51018            0    10002 3.0617591e-13            0         4000         2000         4000            1            1 
   54018   0.62219787    10002 3.0617591e-13            0         4000         2000         4000            1            1 
Loop time of 0.622725 on 100 procs for 3000 steps with 10002 atoms

95.4% CPU use with 100 MPI tasks x no OpenMP threads
timestep 1200
fix_modify k1 demflag 0
fix_modify d2 demflag 0
fix_modify d1 demflag 0
fix_modify e1 demflag 0
Step CPU Atoms biomass c_myNtypes[1] c_myNtypes[2] c_myNtypes[3] c_myNtypes[4] c_myNtypes[5] c_myNtypes[6] 
   54018            0    10002 3.0617591e-13            0         4000         2000         4000            1            1 
number of iterations: 5487 
   54019     5.587991    10002 3.1445863e-13            0         4000         2000         4000            1            1 
Loop time of 5.58824 on 100 procs for 1 steps with 10002 atoms

96.3% CPU use with 100 MPI tasks x no OpenMP threads
fix_modify k1 demflag 1
fix_modify d2 demflag 1
fix_modify d1 demflag 1
fix_modify e1 demflag 1
timestep 1e-3
run 3000 pre no post no
Step CPU Atoms biomass c_myNtypes[1] c_myNtypes[2] c_myNtypes[3] c_myNtypes[4] c_myNtypes[5] c_myNtypes[6] 
   54019            0    10002 3.1445863e-13            0         4000         2000         4000            1            1 
   57019   0.59702015    10002 3.1445863e-13            0         4000         2000         4000            1            1 
Loop time of 0.597393 on 100 procs for 3000 steps with 10002 atoms

95.5% CPU use with 100 MPI tasks x no OpenMP threads
timestep 1200
fix_modify k1 demflag 0
fix_modify d2 demflag 0
fix_modify d1 demflag 0
fix_modify e1 demflag 0
Step CPU Atoms biomass c_myNtypes[1] c_myNtypes[2] c_myNtypes[3] c_myNtypes[4] c_myNtypes[5] c_myNtypes[6] 
   57019            0    10002 3.1445863e-13            0         4000         2000         4000            1            1 
number of iterations: 5379 
   57020    5.4826651    10002 3.2326091e-13            0         4000         2000         4000            1            1 
Loop time of 5.48299 on 100 procs for 1 steps with 10002 atoms

96.3% CPU use with 100 MPI tasks x no OpenMP threads
fix_modify k1 demflag 1
fix_modify d2 demflag 1
fix_modify d1 demflag 1
fix_modify e1 demflag 1
timestep 1e-3
run 3000 pre no post no
Step CPU Atoms biomass c_myNtypes[1] c_myNtypes[2] c_myNtypes[3] c_myNtypes[4] c_myNtypes[5] c_myNtypes[6] 
   57020            0    10002 3.2326091e-13            0         4000         2000         4000            1            1 
   60020   0.60033607    10002 3.2326091e-13            0         4000         2000         4000            1            1 
Loop time of 0.600618 on 100 procs for 3000 steps with 10002 atoms

95.6% CPU use with 100 MPI tasks x no OpenMP threads
timestep 1200
fix_modify k1 demflag 0
fix_modify d2 demflag 0
fix_modify d1 demflag 0
fix_modify e1 demflag 0
Step CPU Atoms biomass c_myNtypes[1] c_myNtypes[2] c_myNtypes[3] c_myNtypes[4] c_myNtypes[5] c_myNtypes[6] 
   60020            0    10002 3.2326091e-13            0         4000         2000         4000            1            1 
number of iterations: 5286 
   60021    5.3179841    10082 3.3261607e-13            0         4080         2000         4000            1            1 
Loop time of 5.31845 on 100 procs for 1 steps with 10082 atoms

96.3% CPU use with 100 MPI tasks x no OpenMP threads
fix_modify k1 demflag 1
fix_modify d2 demflag 1
fix_modify d1 demflag 1
fix_modify e1 demflag 1
timestep 1e-3
run 3000 pre no post no
Step CPU Atoms biomass c_myNtypes[1] c_myNtypes[2] c_myNtypes[3] c_myNtypes[4] c_myNtypes[5] c_myNtypes[6] 
   60021            0    10082 3.3261607e-13            0         4080         2000         4000            1            1 
   63021   0.61959481    10082 3.3261607e-13            0         4080         2000         4000            1            1 
Loop time of 0.61998 on 100 procs for 3000 steps with 10082 atoms

95.5% CPU use with 100 MPI tasks x no OpenMP threads
timestep 1200
fix_modify k1 demflag 0
fix_modify d2 demflag 0
fix_modify d1 demflag 0
fix_modify e1 demflag 0
Step CPU Atoms biomass c_myNtypes[1] c_myNtypes[2] c_myNtypes[3] c_myNtypes[4] c_myNtypes[5] c_myNtypes[6] 
   63021            0    10082 3.3261607e-13            0         4080         2000         4000            1            1 
number of iterations: 5207 
   63022     5.236872    10377 3.4255961e-13            0         4375         2000         4000            1            1 
Loop time of 5.23723 on 100 procs for 1 steps with 10377 atoms

96.3% CPU use with 100 MPI tasks x no OpenMP threads
fix_modify k1 demflag 1
fix_modify d2 demflag 1
fix_modify d1 demflag 1
fix_modify e1 demflag 1
timestep 1e-3
run 3000 pre no post no
Step CPU Atoms biomass c_myNtypes[1] c_myNtypes[2] c_myNtypes[3] c_myNtypes[4] c_myNtypes[5] c_myNtypes[6] 
   63022            0    10377 3.4255961e-13            0         4375         2000         4000            1            1 
   66022   0.62559199    10377 3.4255961e-13            0         4375         2000         4000            1            1 
Loop time of 0.625961 on 100 procs for 3000 steps with 10377 atoms

95.6% CPU use with 100 MPI tasks x no OpenMP threads
timestep 1200
fix_modify k1 demflag 0
fix_modify d2 demflag 0
fix_modify d1 demflag 0
fix_modify e1 demflag 0
Step CPU Atoms biomass c_myNtypes[1] c_myNtypes[2] c_myNtypes[3] c_myNtypes[4] c_myNtypes[5] c_myNtypes[6] 
   66022            0    10377 3.4255961e-13            0         4375         2000         4000            1            1 
number of iterations: 5141 
   66023     5.166245    10717 3.5312939e-13            0         4715         2000         4000            1            1 
Loop time of 5.16663 on 100 procs for 1 steps with 10717 atoms

96.3% CPU use with 100 MPI tasks x no OpenMP threads
fix_modify k1 demflag 1
fix_modify d2 demflag 1
fix_modify d1 demflag 1
fix_modify e1 demflag 1
timestep 1e-3
run 3000 pre no post no
Step CPU Atoms biomass c_myNtypes[1] c_myNtypes[2] c_myNtypes[3] c_myNtypes[4] c_myNtypes[5] c_myNtypes[6] 
   66023            0    10717 3.5312939e-13            0         4715         2000         4000            1            1 
   69023   0.61862803    10717 3.5312939e-13            0         4715         2000         4000            1            1 
Loop time of 0.619003 on 100 procs for 3000 steps with 10717 atoms

95.6% CPU use with 100 MPI tasks x no OpenMP threads
timestep 1200
fix_modify k1 demflag 0
fix_modify d2 demflag 0
fix_modify d1 demflag 0
fix_modify e1 demflag 0
Step CPU Atoms biomass c_myNtypes[1] c_myNtypes[2] c_myNtypes[3] c_myNtypes[4] c_myNtypes[5] c_myNtypes[6] 
   69023            0    10717 3.5312939e-13            0         4715         2000         4000            1            1 
number of iterations: 5086 
   69024    5.3000159    11012 3.6436573e-13            0         5010         2000         4000            1            1 
Loop time of 5.30042 on 100 procs for 1 steps with 11012 atoms

96.1% CPU use with 100 MPI tasks x no OpenMP threads
fix_modify k1 demflag 1
fix_modify d2 demflag 1
fix_modify d1 demflag 1
fix_modify e1 demflag 1
timestep 1e-3
run 3000 pre no post no
Step CPU Atoms biomass c_myNtypes[1] c_myNtypes[2] c_myNtypes[3] c_myNtypes[4] c_myNtypes[5] c_myNtypes[6] 
   69024            0    11012 3.6436573e-13            0         5010         2000         4000            1            1 
   72024   0.64398098    11012 3.6436573e-13            0         5010         2000         4000            1            1 
Loop time of 0.644541 on 100 procs for 3000 steps with 11012 atoms

95.6% CPU use with 100 MPI tasks x no OpenMP threads
timestep 1200
fix_modify k1 demflag 0
fix_modify d2 demflag 0
fix_modify d1 demflag 0
fix_modify e1 demflag 0
Step CPU Atoms biomass c_myNtypes[1] c_myNtypes[2] c_myNtypes[3] c_myNtypes[4] c_myNtypes[5] c_myNtypes[6] 
   72024            0    11012 3.6436573e-13            0         5010         2000         4000            1            1 
number of iterations: 6704 
   72025    7.1895711    11473 3.7631176e-13            0         5471         2000         4000            1            1 
Loop time of 7.18981 on 100 procs for 1 steps with 11473 atoms

96.3% CPU use with 100 MPI tasks x no OpenMP threads
fix_modify k1 demflag 1
fix_modify d2 demflag 1
fix_modify d1 demflag 1
fix_modify e1 demflag 1
timestep 1e-3
run 3000 pre no post no
Step CPU Atoms biomass c_myNtypes[1] c_myNtypes[2] c_myNtypes[3] c_myNtypes[4] c_myNtypes[5] c_myNtypes[6] 
   72025            0    11473 3.7631176e-13            0         5471         2000         4000            1            1 
   75025   0.62618399    11473 3.7631176e-13            0         5471         2000         4000            1            1 
Loop time of 0.626578 on 100 procs for 3000 steps with 11473 atoms

95.7% CPU use with 100 MPI tasks x no OpenMP threads
timestep 1200
fix_modify k1 demflag 0
fix_modify d2 demflag 0
fix_modify d1 demflag 0
fix_modify e1 demflag 0
Step CPU Atoms biomass c_myNtypes[1] c_myNtypes[2] c_myNtypes[3] c_myNtypes[4] c_myNtypes[5] c_myNtypes[6] 
   75025            0    11473 3.7631176e-13            0         5471         2000         4000            1            1 
number of iterations: 6357 
   75026     7.208909    12085 3.8901321e-13            0         6083         2000         4000            1            1 
Loop time of 7.20932 on 100 procs for 1 steps with 12085 atoms

96.0% CPU use with 100 MPI tasks x no OpenMP threads
fix_modify k1 demflag 1
fix_modify d2 demflag 1
fix_modify d1 demflag 1
fix_modify e1 demflag 1
timestep 1e-3
run 3000 pre no post no
Step CPU Atoms biomass c_myNtypes[1] c_myNtypes[2] c_myNtypes[3] c_myNtypes[4] c_myNtypes[5] c_myNtypes[6] 
   75026            0    12085 3.8901321e-13            0         6083         2000         4000            1            1 
   78026   0.67976093    12085 3.8901321e-13            0         6083         2000         4000            1            1 
Loop time of 0.680162 on 100 procs for 3000 steps with 12085 atoms

95.5% CPU use with 100 MPI tasks x no OpenMP threads
timestep 1200
fix_modify k1 demflag 0
fix_modify d2 demflag 0
fix_modify d1 demflag 0
fix_modify e1 demflag 0
Step CPU Atoms biomass c_myNtypes[1] c_myNtypes[2] c_myNtypes[3] c_myNtypes[4] c_myNtypes[5] c_myNtypes[6] 
   78026            0    12085 3.8901321e-13            0         6083         2000         4000            1            1 
number of iterations: 6300 
   78027     6.773751    12777 4.0251892e-13            0         6775         2000         4000            1            1 
Loop time of 6.77423 on 100 procs for 1 steps with 12777 atoms

96.3% CPU use with 100 MPI tasks x no OpenMP threads
fix_modify k1 demflag 1
fix_modify d2 demflag 1
fix_modify d1 demflag 1
fix_modify e1 demflag 1
timestep 1e-3
run 3000 pre no post no
Step CPU Atoms biomass c_myNtypes[1] c_myNtypes[2] c_myNtypes[3] c_myNtypes[4] c_myNtypes[5] c_myNtypes[6] 
   78027            0    12777 4.0251892e-13            0         6775         2000         4000            1            1 
   81027   0.64151001    12777 4.0251892e-13            0         6775         2000         4000            1            1 
Loop time of 0.641987 on 100 procs for 3000 steps with 12777 atoms

95.6% CPU use with 100 MPI tasks x no OpenMP threads
timestep 1200
fix_modify k1 demflag 0
fix_modify d2 demflag 0
fix_modify d1 demflag 0
fix_modify e1 demflag 0
Step CPU Atoms biomass c_myNtypes[1] c_myNtypes[2] c_myNtypes[3] c_myNtypes[4] c_myNtypes[5] c_myNtypes[6] 
   81027            0    12777 4.0251892e-13            0         6775         2000         4000            1            1 
number of iterations: 6252 
   81028     6.690136    13145  4.16881e-13            0         7143         2000         4000            1            1 
Loop time of 6.69053 on 100 procs for 1 steps with 13145 atoms

96.3% CPU use with 100 MPI tasks x no OpenMP threads
fix_modify k1 demflag 1
fix_modify d2 demflag 1
fix_modify d1 demflag 1
fix_modify e1 demflag 1
timestep 1e-3
run 3000 pre no post no
Step CPU Atoms biomass c_myNtypes[1] c_myNtypes[2] c_myNtypes[3] c_myNtypes[4] c_myNtypes[5] c_myNtypes[6] 
   81028            0    13145  4.16881e-13            0         7143         2000         4000            1            1 
   84028   0.63332796    13145  4.16881e-13            0         7143         2000         4000            1            1 
Loop time of 0.633797 on 100 procs for 3000 steps with 13145 atoms

95.6% CPU use with 100 MPI tasks x no OpenMP threads
timestep 1200
fix_modify k1 demflag 0
fix_modify d2 demflag 0
fix_modify d1 demflag 0
fix_modify e1 demflag 0
Step CPU Atoms biomass c_myNtypes[1] c_myNtypes[2] c_myNtypes[3] c_myNtypes[4] c_myNtypes[5] c_myNtypes[6] 
   84028            0    13145  4.16881e-13            0         7143         2000         4000            1            1 
number of iterations: 6215 
   84029    6.7675729    13522 4.3215496e-13            0         7520         2000         4000            1            1 
Loop time of 6.76783 on 100 procs for 1 steps with 13522 atoms

96.3% CPU use with 100 MPI tasks x no OpenMP threads
fix_modify k1 demflag 1
fix_modify d2 demflag 1
fix_modify d1 demflag 1
fix_modify e1 demflag 1
timestep 1e-3
run 3000 pre no post no
Step CPU Atoms biomass c_myNtypes[1] c_myNtypes[2] c_myNtypes[3] c_myNtypes[4] c_myNtypes[5] c_myNtypes[6] 
   84029            0    13522 4.3215496e-13            0         7520         2000         4000            1            1 
   87029   0.68237805    13522 4.3215496e-13            0         7520         2000         4000            1            1 
Loop time of 0.682734 on 100 procs for 3000 steps with 13522 atoms

95.8% CPU use with 100 MPI tasks x no OpenMP threads
timestep 1200
fix_modify k1 demflag 0
fix_modify d2 demflag 0
fix_modify d1 demflag 0
fix_modify e1 demflag 0
Step CPU Atoms biomass c_myNtypes[1] c_myNtypes[2] c_myNtypes[3] c_myNtypes[4] c_myNtypes[5] c_myNtypes[6] 
   87029            0    13522 4.3215496e-13            0         7520         2000         4000            1            1 
number of iterations: 6185 
   87030    6.6251671    13857 4.4839999e-13            0         7855         2000         4000            1            1 
Loop time of 6.62564 on 100 procs for 1 steps with 13857 atoms

96.3% CPU use with 100 MPI tasks x no OpenMP threads
fix_modify k1 demflag 1
fix_modify d2 demflag 1
fix_modify d1 demflag 1
fix_modify e1 demflag 1
timestep 1e-3
run 3000 pre no post no
Step CPU Atoms biomass c_myNtypes[1] c_myNtypes[2] c_myNtypes[3] c_myNtypes[4] c_myNtypes[5] c_myNtypes[6] 
   87030            0    13857 4.4839999e-13            0         7855         2000         4000            1            1 
   90030     1.068743    13857 4.4839999e-13            0         7855         2000         4000            1            1 
Loop time of 1.06912 on 100 procs for 3000 steps with 13857 atoms

93.5% CPU use with 100 MPI tasks x no OpenMP threads
timestep 1200
fix_modify k1 demflag 0
fix_modify d2 demflag 0
fix_modify d1 demflag 0
fix_modify e1 demflag 0
Step CPU Atoms biomass c_myNtypes[1] c_myNtypes[2] c_myNtypes[3] c_myNtypes[4] c_myNtypes[5] c_myNtypes[6] 
   90030            0    13857 4.4839999e-13            0         7855         2000         4000            1            1 
number of iterations: 6162 
   90031     8.144546    14302 4.6567921e-13            0         8245         2055         4000            1            1 
Loop time of 8.14503 on 100 procs for 1 steps with 14302 atoms

96.1% CPU use with 100 MPI tasks x no OpenMP threads
fix_modify k1 demflag 1
fix_modify d2 demflag 1
fix_modify d1 demflag 1
fix_modify e1 demflag 1
timestep 1e-3
run 3000 pre no post no
Step CPU Atoms biomass c_myNtypes[1] c_myNtypes[2] c_myNtypes[3] c_myNtypes[4] c_myNtypes[5] c_myNtypes[6] 
   90031            0    14302 4.6567921e-13            0         8245         2055         4000            1            1 
   93031    1.0345671    14302 4.6567921e-13            0         8245         2055         4000            1            1 
Loop time of 1.03502 on 100 procs for 3000 steps with 14302 atoms

95.4% CPU use with 100 MPI tasks x no OpenMP threads
timestep 1200
fix_modify k1 demflag 0
fix_modify d2 demflag 0
fix_modify d1 demflag 0
fix_modify e1 demflag 0
Step CPU Atoms biomass c_myNtypes[1] c_myNtypes[2] c_myNtypes[3] c_myNtypes[4] c_myNtypes[5] c_myNtypes[6] 
   93031            0    14302 4.6567921e-13            0         8245         2055         4000            1            1 
number of iterations: 6144 
   93032    9.3426311    14961 4.8405987e-13            0         8587         2372         4000            1            1 
Loop time of 9.34319 on 100 procs for 1 steps with 14961 atoms

96.1% CPU use with 100 MPI tasks x no OpenMP threads
fix_modify k1 demflag 1
fix_modify d2 demflag 1
fix_modify d1 demflag 1
fix_modify e1 demflag 1
timestep 1e-3
run 3000 pre no post no
Step CPU Atoms biomass c_myNtypes[1] c_myNtypes[2] c_myNtypes[3] c_myNtypes[4] c_myNtypes[5] c_myNtypes[6] 
   93032            0    14961 4.8405987e-13            0         8587         2372         4000            1            1 
   96032     1.053509    14961 4.8405987e-13            0         8587         2372         4000            1            1 
Loop time of 1.05408 on 100 procs for 3000 steps with 14961 atoms

95.4% CPU use with 100 MPI tasks x no OpenMP threads
timestep 1200
fix_modify k1 demflag 0
fix_modify d2 demflag 0
fix_modify d1 demflag 0
fix_modify e1 demflag 0
Step CPU Atoms biomass c_myNtypes[1] c_myNtypes[2] c_myNtypes[3] c_myNtypes[4] c_myNtypes[5] c_myNtypes[6] 
   96032            0    14961 4.8405987e-13            0         8587         2372         4000            1            1 
number of iterations: 6130 
   96033    9.2974439    15503 5.036137e-13            0         9042         2459         4000            1            1 
Loop time of 9.29786 on 100 procs for 1 steps with 15503 atoms

96.1% CPU use with 100 MPI tasks x no OpenMP threads
fix_modify k1 demflag 1
fix_modify d2 demflag 1
fix_modify d1 demflag 1
fix_modify e1 demflag 1
timestep 1e-3
run 3000 pre no post no
Step CPU Atoms biomass c_myNtypes[1] c_myNtypes[2] c_myNtypes[3] c_myNtypes[4] c_myNtypes[5] c_myNtypes[6] 
   96033            0    15503 5.036137e-13            0         9042         2459         4000            1            1 
   99033    1.0068409    15503 5.036137e-13            0         9042         2459         4000            1            1 
Loop time of 1.0073 on 100 procs for 3000 steps with 15503 atoms

95.3% CPU use with 100 MPI tasks x no OpenMP threads
timestep 1200
fix_modify k1 demflag 0
fix_modify d2 demflag 0
fix_modify d1 demflag 0
fix_modify e1 demflag 0
Step CPU Atoms biomass c_myNtypes[1] c_myNtypes[2] c_myNtypes[3] c_myNtypes[4] c_myNtypes[5] c_myNtypes[6] 
   99033            0    15503 5.036137e-13            0         9042         2459         4000            1            1 
number of iterations: 6118 
   99034    9.1395609    16227 5.2441717e-13            0         9685         2540         4000            1            1 
Loop time of 9.13989 on 100 procs for 1 steps with 16227 atoms

95.6% CPU use with 100 MPI tasks x no OpenMP threads
fix_modify k1 demflag 1
fix_modify d2 demflag 1
fix_modify d1 demflag 1
fix_modify e1 demflag 1
timestep 1e-3
run 3000 pre no post no
Step CPU Atoms biomass c_myNtypes[1] c_myNtypes[2] c_myNtypes[3] c_myNtypes[4] c_myNtypes[5] c_myNtypes[6] 
   99034            0    16227 5.2441717e-13            0         9685         2540         4000            1            1 
  102034   0.73791504    16227 5.2441717e-13            0         9685         2540         4000            1            1 
Loop time of 0.738512 on 100 procs for 3000 steps with 16227 atoms

95.7% CPU use with 100 MPI tasks x no OpenMP threads
timestep 1200
fix_modify k1 demflag 0
fix_modify d2 demflag 0
fix_modify d1 demflag 0
fix_modify e1 demflag 0
Step CPU Atoms biomass c_myNtypes[1] c_myNtypes[2] c_myNtypes[3] c_myNtypes[4] c_myNtypes[5] c_myNtypes[6] 
  102034            0    16227 5.2441717e-13            0         9685         2540         4000            1            1 
number of iterations: 6115 
  102035    6.4785521    17058 5.4655178e-13            0        10463         2593         4000            1            1 
Loop time of 6.47879 on 100 procs for 1 steps with 17058 atoms

97.0% CPU use with 100 MPI tasks x no OpenMP threads
fix_modify k1 demflag 1
fix_modify d2 demflag 1
fix_modify d1 demflag 1
fix_modify e1 demflag 1
timestep 1e-3
run 3000 pre no post no
Step CPU Atoms biomass c_myNtypes[1] c_myNtypes[2] c_myNtypes[3] c_myNtypes[4] c_myNtypes[5] c_myNtypes[6] 
  102035            0    17058 5.4655178e-13            0        10463         2593         4000            1            1 
  105035   0.57654786    17058 5.4655178e-13            0        10463         2593         4000            1            1 
Loop time of 0.576782 on 100 procs for 3000 steps with 17058 atoms

96.4% CPU use with 100 MPI tasks x no OpenMP threads
timestep 1200
fix_modify k1 demflag 0
fix_modify d2 demflag 0
fix_modify d1 demflag 0
fix_modify e1 demflag 0
Step CPU Atoms biomass c_myNtypes[1] c_myNtypes[2] c_myNtypes[3] c_myNtypes[4] c_myNtypes[5] c_myNtypes[6] 
  105035            0    17058 5.4655178e-13            0        10463         2593         4000            1            1 
number of iterations: 6114 
  105036    6.0207391    18060 5.7010447e-13            0        11378         2680         4000            1            1 
Loop time of 6.02098 on 100 procs for 1 steps with 18060 atoms

97.0% CPU use with 100 MPI tasks x no OpenMP threads
fix_modify k1 demflag 1
fix_modify d2 demflag 1
fix_modify d1 demflag 1
fix_modify e1 demflag 1
timestep 1e-3
run 3000 pre no post no
Step CPU Atoms biomass c_myNtypes[1] c_myNtypes[2] c_myNtypes[3] c_myNtypes[4] c_myNtypes[5] c_myNtypes[6] 
  105036            0    18060 5.7010447e-13            0        11378         2680         4000            1            1 
  108036   0.57824588    18060 5.7010447e-13            0        11378         2680         4000            1            1 
Loop time of 0.578517 on 100 procs for 3000 steps with 18060 atoms

96.4% CPU use with 100 MPI tasks x no OpenMP threads
timestep 1200
fix_modify k1 demflag 0
fix_modify d2 demflag 0
fix_modify d1 demflag 0
fix_modify e1 demflag 0
Step CPU Atoms biomass c_myNtypes[1] c_myNtypes[2] c_myNtypes[3] c_myNtypes[4] c_myNtypes[5] c_myNtypes[6] 
  108036            0    18060 5.7010447e-13            0        11378         2680         4000            1            1 
number of iterations: 6113 
  108037     5.860898    19136 5.9516789e-13            0        12360         2774         4000            1            1 
Loop time of 5.86114 on 100 procs for 1 steps with 19136 atoms

97.3% CPU use with 100 MPI tasks x no OpenMP threads
fix_modify k1 demflag 1
fix_modify d2 demflag 1
fix_modify d1 demflag 1
fix_modify e1 demflag 1
timestep 1e-3
run 3000 pre no post no
Step CPU Atoms biomass c_myNtypes[1] c_myNtypes[2] c_myNtypes[3] c_myNtypes[4] c_myNtypes[5] c_myNtypes[6] 
  108037            0    19136 5.9516789e-13            0        12360         2774         4000            1            1 
  111037   0.59371114    19136 5.9516789e-13            0        12360         2774         4000            1            1 
Loop time of 0.593922 on 100 procs for 3000 steps with 19136 atoms

96.6% CPU use with 100 MPI tasks x no OpenMP threads
timestep 1200
fix_modify k1 demflag 0
fix_modify d2 demflag 0
fix_modify d1 demflag 0
fix_modify e1 demflag 0
Step CPU Atoms biomass c_myNtypes[1] c_myNtypes[2] c_myNtypes[3] c_myNtypes[4] c_myNtypes[5] c_myNtypes[6] 
  111037            0    19136 5.9516789e-13            0        12360         2774         4000            1            1 
number of iterations: 6114 
  111038     5.854363    20219 6.2184084e-13            0        13301         2916         4000            1            1 
Loop time of 5.85455 on 100 procs for 1 steps with 20219 atoms

97.3% CPU use with 100 MPI tasks x no OpenMP threads
fix_modify k1 demflag 1
fix_modify d2 demflag 1
fix_modify d1 demflag 1
fix_modify e1 demflag 1
timestep 1e-3
run 3000 pre no post no
Step CPU Atoms biomass c_myNtypes[1] c_myNtypes[2] c_myNtypes[3] c_myNtypes[4] c_myNtypes[5] c_myNtypes[6] 
  111038            0    20219 6.2184084e-13            0        13301         2916         4000            1            1 
  114038   0.60943198    20219 6.2184084e-13            0        13301         2916         4000            1            1 
Loop time of 0.609642 on 100 procs for 3000 steps with 20219 atoms

96.5% CPU use with 100 MPI tasks x no OpenMP threads
timestep 1200
fix_modify k1 demflag 0
fix_modify d2 demflag 0
fix_modify d1 demflag 0
fix_modify e1 demflag 0
Step CPU Atoms biomass c_myNtypes[1] c_myNtypes[2] c_myNtypes[3] c_myNtypes[4] c_myNtypes[5] c_myNtypes[6] 
  114038            0    20219 6.2184084e-13            0        13301         2916         4000            1            1 
number of iterations: 6113 
  114039     5.876833    21270 6.5022867e-13            0        14184         3084         4000            1            1 
Loop time of 5.87703 on 100 procs for 1 steps with 21270 atoms

97.3% CPU use with 100 MPI tasks x no OpenMP threads
fix_modify k1 demflag 1
fix_modify d2 demflag 1
fix_modify d1 demflag 1
fix_modify e1 demflag 1
timestep 1e-3
run 3000 pre no post no
Step CPU Atoms biomass c_myNtypes[1] c_myNtypes[2] c_myNtypes[3] c_myNtypes[4] c_myNtypes[5] c_myNtypes[6] 
  114039            0    21270 6.5022867e-13            0        14184         3084         4000            1            1 
  117039   0.60456204    21270 6.5022867e-13            0        14184         3084         4000            1            1 
Loop time of 0.604784 on 100 procs for 3000 steps with 21270 atoms

96.6% CPU use with 100 MPI tasks x no OpenMP threads
timestep 1200
fix_modify k1 demflag 0
fix_modify d2 demflag 0
fix_modify d1 demflag 0
fix_modify e1 demflag 0
Step CPU Atoms biomass c_myNtypes[1] c_myNtypes[2] c_myNtypes[3] c_myNtypes[4] c_myNtypes[5] c_myNtypes[6] 
  117039            0    21270 6.5022867e-13            0        14184         3084         4000            1            1 
number of iterations: 6113 
  117040    5.9040301    37410 7.4771795e-13            0        15091         3226         4000        15092            1 
Loop time of 5.90426 on 100 procs for 1 steps with 37410 atoms

97.3% CPU use with 100 MPI tasks x no OpenMP threads
fix_modify k1 demflag 1
fix_modify d2 demflag 1
fix_modify d1 demflag 1
fix_modify e1 demflag 1
timestep 1e-3
run 3000 pre no post no
Step CPU Atoms biomass c_myNtypes[1] c_myNtypes[2] c_myNtypes[3] c_myNtypes[4] c_myNtypes[5] c_myNtypes[6] 
  117040            0    37410 7.4771795e-13            0        15091         3226         4000        15092            1 
  120040   0.77036405    37410 7.4771795e-13            0        15091         3226         4000        15092            1 
Loop time of 0.770632 on 100 procs for 3000 steps with 37410 atoms

96.6% CPU use with 100 MPI tasks x no OpenMP threads
timestep 1200
fix_modify k1 demflag 0
fix_modify d2 demflag 0
fix_modify d1 demflag 0
fix_modify e1 demflag 0
Step CPU Atoms biomass c_myNtypes[1] c_myNtypes[2] c_myNtypes[3] c_myNtypes[4] c_myNtypes[5] c_myNtypes[6] 
  120040            0    37410 7.4771795e-13            0        15091         3226         4000        15092            1 
number of iterations: 6112 
  120041    5.9218872    38294 7.797211e-13            0        15881         3320         4000        15092            1 
Loop time of 5.92213 on 100 procs for 1 steps with 38294 atoms

97.3% CPU use with 100 MPI tasks x no OpenMP threads
fix_modify k1 demflag 1
fix_modify d2 demflag 1
fix_modify d1 demflag 1
fix_modify e1 demflag 1
timestep 1e-3
run 3000 pre no post no
Step CPU Atoms biomass c_myNtypes[1] c_myNtypes[2] c_myNtypes[3] c_myNtypes[4] c_myNtypes[5] c_myNtypes[6] 
  120041            0    38294 7.797211e-13            0        15881         3320         4000        15092            1 
  123041    0.7902751    38294 7.797211e-13            0        15881         3320         4000        15092            1 
Loop time of 0.790516 on 100 procs for 3000 steps with 38294 atoms

96.7% CPU use with 100 MPI tasks x no OpenMP threads
timestep 1200
fix_modify k1 demflag 0
fix_modify d2 demflag 0
fix_modify d1 demflag 0
fix_modify e1 demflag 0
Step CPU Atoms biomass c_myNtypes[1] c_myNtypes[2] c_myNtypes[3] c_myNtypes[4] c_myNtypes[5] c_myNtypes[6] 
  123041            0    38294 7.797211e-13            0        15881         3320         4000        15092            1 
number of iterations: 6113 
  123042     5.861306    39201 8.1379927e-13            0        16701         3407         4000        15092            1 
Loop time of 5.86152 on 100 procs for 1 steps with 39201 atoms

97.3% CPU use with 100 MPI tasks x no OpenMP threads
fix_modify k1 demflag 1
fix_modify d2 demflag 1
fix_modify d1 demflag 1
fix_modify e1 demflag 1
timestep 1e-3
run 3000 pre no post no
Step CPU Atoms biomass c_myNtypes[1] c_myNtypes[2] c_myNtypes[3] c_myNtypes[4] c_myNtypes[5] c_myNtypes[6] 
  123042            0    39201 8.1379927e-13            0        16701         3407         4000        15092            1 
  126042   0.79126191    39201 8.1379927e-13            0        16701         3407         4000        15092            1 
Loop time of 0.791547 on 100 procs for 3000 steps with 39201 atoms

96.8% CPU use with 100 MPI tasks x no OpenMP threads
timestep 1200
fix_modify k1 demflag 0
fix_modify d2 demflag 0
fix_modify d1 demflag 0
fix_modify e1 demflag 0
Step CPU Atoms biomass c_myNtypes[1] c_myNtypes[2] c_myNtypes[3] c_myNtypes[4] c_myNtypes[5] c_myNtypes[6] 
  126042            0    39201 8.1379927e-13            0        16701         3407         4000        15092            1 
number of iterations: 6112 
  126043     5.932162    40221 8.5008861e-13            0        17674         3454         4000        15092            1 
Loop time of 5.93244 on 100 procs for 1 steps with 40221 atoms

97.3% CPU use with 100 MPI tasks x no OpenMP threads
fix_modify k1 demflag 1
fix_modify d2 demflag 1
fix_modify d1 demflag 1
fix_modify e1 demflag 1
timestep 1e-3
run 3000 pre no post no
Step CPU Atoms biomass c_myNtypes[1] c_myNtypes[2] c_myNtypes[3] c_myNtypes[4] c_myNtypes[5] c_myNtypes[6] 
  126043            0    40221 8.5008861e-13            0        17674         3454         4000        15092            1 
  129043     1.389894    40221 8.5008861e-13            0        17674         3454         4000        15092            1 
Loop time of 1.3904 on 100 procs for 3000 steps with 40221 atoms

95.4% CPU use with 100 MPI tasks x no OpenMP threads
timestep 1200
fix_modify k1 demflag 0
fix_modify d2 demflag 0
fix_modify d1 demflag 0
fix_modify e1 demflag 0
Step CPU Atoms biomass c_myNtypes[1] c_myNtypes[2] c_myNtypes[3] c_myNtypes[4] c_myNtypes[5] c_myNtypes[6] 
  129043            0    40221 8.5008861e-13            0        17674         3454         4000        15092            1 
number of iterations: 6113 
  129044    9.3684111    41403 8.8873431e-13            0        18769         3541         4000        15092            1 
Loop time of 9.36874 on 100 procs for 1 steps with 41403 atoms

96.1% CPU use with 100 MPI tasks x no OpenMP threads
fix_modify k1 demflag 1
fix_modify d2 demflag 1
fix_modify d1 demflag 1
fix_modify e1 demflag 1
timestep 1e-3
run 3000 pre no post no
Step CPU Atoms biomass c_myNtypes[1] c_myNtypes[2] c_myNtypes[3] c_myNtypes[4] c_myNtypes[5] c_myNtypes[6] 
  129044            0    41403 8.8873431e-13            0        18769         3541         4000        15092            1 
  132044    1.4354589    41403 8.8873431e-13            0        18769         3541         4000        15092            1 
Loop time of 1.43594 on 100 procs for 3000 steps with 41403 atoms

95.4% CPU use with 100 MPI tasks x no OpenMP threads
timestep 1200
fix_modify k1 demflag 0
fix_modify d2 demflag 0
fix_modify d1 demflag 0
fix_modify e1 demflag 0
Step CPU Atoms biomass c_myNtypes[1] c_myNtypes[2] c_myNtypes[3] c_myNtypes[4] c_myNtypes[5] c_myNtypes[6] 
  132044            0    41403 8.8873431e-13            0        18769         3541         4000        15092            1 
number of iterations: 6112 
  132045     9.360781    42817 9.2989117e-13            0        20169         3555         4000        15092            1 
Loop time of 9.36129 on 100 procs for 1 steps with 42817 atoms

96.1% CPU use with 100 MPI tasks x no OpenMP threads
fix_modify k1 demflag 1
fix_modify d2 demflag 1
fix_modify d1 demflag 1
fix_modify e1 demflag 1
timestep 1e-3
run 3000 pre no post no
Step CPU Atoms biomass c_myNtypes[1] c_myNtypes[2] c_myNtypes[3] c_myNtypes[4] c_myNtypes[5] c_myNtypes[6] 
  132045            0    42817 9.2989117e-13            0        20169         3555         4000        15092            1 
  135045    1.4174061    42817 9.2989117e-13            0        20169         3555         4000        15092            1 
Loop time of 1.41788 on 100 procs for 3000 steps with 42817 atoms

95.6% CPU use with 100 MPI tasks x no OpenMP threads
timestep 1200
fix_modify k1 demflag 0
fix_modify d2 demflag 0
fix_modify d1 demflag 0
fix_modify e1 demflag 0
Step CPU Atoms biomass c_myNtypes[1] c_myNtypes[2] c_myNtypes[3] c_myNtypes[4] c_myNtypes[5] c_myNtypes[6] 
  135045            0    42817 9.2989117e-13            0        20169         3555         4000        15092            1 
number of iterations: 6112 
  135046    9.3297451    44308 9.7372423e-13            0        21587         3628         4000        15092            1 
Loop time of 9.33013 on 100 procs for 1 steps with 44308 atoms

96.1% CPU use with 100 MPI tasks x no OpenMP threads
fix_modify k1 demflag 1
fix_modify d2 demflag 1
fix_modify d1 demflag 1
fix_modify e1 demflag 1
timestep 1e-3
run 3000 pre no post no
Step CPU Atoms biomass c_myNtypes[1] c_myNtypes[2] c_myNtypes[3] c_myNtypes[4] c_myNtypes[5] c_myNtypes[6] 
  135046            0    44308 9.7372423e-13            0        21587         3628         4000        15092            1 
  138046     1.462687    44308 9.7372423e-13            0        21587         3628         4000        15092            1 
Loop time of 1.46318 on 100 procs for 3000 steps with 44308 atoms

95.3% CPU use with 100 MPI tasks x no OpenMP threads
timestep 1200
fix_modify k1 demflag 0
fix_modify d2 demflag 0
fix_modify d1 demflag 0
fix_modify e1 demflag 0
Step CPU Atoms biomass c_myNtypes[1] c_myNtypes[2] c_myNtypes[3] c_myNtypes[4] c_myNtypes[5] c_myNtypes[6] 
  138046            0    44308 9.7372423e-13            0        21587         3628         4000        15092            1 
number of iterations: 6113 
  138047    9.3170948    46309 1.0204095e-12            0        23271         3945         4000        15092            1 
Loop time of 9.31743 on 100 procs for 1 steps with 46309 atoms

96.1% CPU use with 100 MPI tasks x no OpenMP threads
fix_modify k1 demflag 1
fix_modify d2 demflag 1
fix_modify d1 demflag 1
fix_modify e1 demflag 1
timestep 1e-3
run 3000 pre no post no
Step CPU Atoms biomass c_myNtypes[1] c_myNtypes[2] c_myNtypes[3] c_myNtypes[4] c_myNtypes[5] c_myNtypes[6] 
  138047            0    46309 1.0204095e-12            0        23271         3945         4000        15092            1 
  141047      1.50281    46309 1.0204095e-12            0        23271         3945         4000        15092            1 
Loop time of 1.50342 on 100 procs for 3000 steps with 46309 atoms

95.4% CPU use with 100 MPI tasks x no OpenMP threads
timestep 1200
fix_modify k1 demflag 0
fix_modify d2 demflag 0
fix_modify d1 demflag 0
fix_modify e1 demflag 0
Step CPU Atoms biomass c_myNtypes[1] c_myNtypes[2] c_myNtypes[3] c_myNtypes[4] c_myNtypes[5] c_myNtypes[6] 
  141047            0    46309 1.0204095e-12            0        23271         3945         4000        15092            1 
number of iterations: 6112 
  141048    9.3861451    48030 1.0701347e-12            0        24992         3945         4000        15092            1 
Loop time of 9.38659 on 100 procs for 1 steps with 48030 atoms

96.1% CPU use with 100 MPI tasks x no OpenMP threads
fix_modify k1 demflag 1
fix_modify d2 demflag 1
fix_modify d1 demflag 1
fix_modify e1 demflag 1
timestep 1e-3
run 3000 pre no post no
Step CPU Atoms biomass c_myNtypes[1] c_myNtypes[2] c_myNtypes[3] c_myNtypes[4] c_myNtypes[5] c_myNtypes[6] 
  141048            0    48030 1.0701347e-12            0        24992         3945         4000        15092            1 
  144048     1.544492    48030 1.0701347e-12            0        24992         3945         4000        15092            1 
Loop time of 1.54507 on 100 procs for 3000 steps with 48030 atoms

95.4% CPU use with 100 MPI tasks x no OpenMP threads
timestep 1200
fix_modify k1 demflag 0
fix_modify d2 demflag 0
fix_modify d1 demflag 0
fix_modify e1 demflag 0
Step CPU Atoms biomass c_myNtypes[1] c_myNtypes[2] c_myNtypes[3] c_myNtypes[4] c_myNtypes[5] c_myNtypes[6] 
  144048            0    48030 1.0701347e-12            0        24992         3945         4000        15092            1 
number of iterations: 6112 
  144049    9.3427439    49822 1.1230998e-12            0        26729         4000         4000        15092            1 
Loop time of 9.34337 on 100 procs for 1 steps with 49822 atoms

96.1% CPU use with 100 MPI tasks x no OpenMP threads
fix_modify k1 demflag 1
fix_modify d2 demflag 1
fix_modify d1 demflag 1
fix_modify e1 demflag 1
timestep 1e-3
run 3000 pre no post no
Step CPU Atoms biomass c_myNtypes[1] c_myNtypes[2] c_myNtypes[3] c_myNtypes[4] c_myNtypes[5] c_myNtypes[6] 
  144049            0    49822 1.1230998e-12            0        26729         4000         4000        15092            1 
  147049    1.5263569    49822 1.1230998e-12            0        26729         4000         4000        15092            1 
Loop time of 1.52686 on 100 procs for 3000 steps with 49822 atoms

95.4% CPU use with 100 MPI tasks x no OpenMP threads
timestep 1200
fix_modify k1 demflag 0
fix_modify d2 demflag 0
fix_modify d1 demflag 0
fix_modify e1 demflag 0
Step CPU Atoms biomass c_myNtypes[1] c_myNtypes[2] c_myNtypes[3] c_myNtypes[4] c_myNtypes[5] c_myNtypes[6] 
  147049            0    49822 1.1230998e-12            0        26729         4000         4000        15092            1 
number of iterations: 6111 
  147050    9.3697708    51567 1.1795184e-12            0        28474         4000         4000        15092            1 
Loop time of 9.37016 on 100 procs for 1 steps with 51567 atoms

96.0% CPU use with 100 MPI tasks x no OpenMP threads
fix_modify k1 demflag 1
fix_modify d2 demflag 1
fix_modify d1 demflag 1
fix_modify e1 demflag 1
timestep 1e-3
run 3000 pre no post no
Step CPU Atoms biomass c_myNtypes[1] c_myNtypes[2] c_myNtypes[3] c_myNtypes[4] c_myNtypes[5] c_myNtypes[6] 
  147050            0    51567 1.1795184e-12            0        28474         4000         4000        15092            1 
  150050      1.49984    51567 1.1795184e-12            0        28474         4000         4000        15092            1 
Loop time of 1.50062 on 100 procs for 3000 steps with 51567 atoms

95.6% CPU use with 100 MPI tasks x no OpenMP threads
timestep 1200
fix_modify k1 demflag 0
fix_modify d2 demflag 0
fix_modify d1 demflag 0
fix_modify e1 demflag 0
Step CPU Atoms biomass c_myNtypes[1] c_myNtypes[2] c_myNtypes[3] c_myNtypes[4] c_myNtypes[5] c_myNtypes[6] 
  150050            0    51567 1.1795184e-12            0        28474         4000         4000        15092            1 
number of iterations: 6111 
  150051    9.3396199    53323 1.2396179e-12            0        30230         4000         4000        15092            1 
Loop time of 9.34007 on 100 procs for 1 steps with 53323 atoms

96.2% CPU use with 100 MPI tasks x no OpenMP threads
fix_modify k1 demflag 1
fix_modify d2 demflag 1
fix_modify d1 demflag 1
fix_modify e1 demflag 1
timestep 1e-3
run 3000 pre no post no
Step CPU Atoms biomass c_myNtypes[1] c_myNtypes[2] c_myNtypes[3] c_myNtypes[4] c_myNtypes[5] c_myNtypes[6] 
  150051            0    53323 1.2396179e-12            0        30230         4000         4000        15092            1 
  153051     1.472039    53323 1.2396179e-12            0        30230         4000         4000        15092            1 
Loop time of 1.47259 on 100 procs for 3000 steps with 53323 atoms

95.6% CPU use with 100 MPI tasks x no OpenMP threads
timestep 1200
fix_modify k1 demflag 0
fix_modify d2 demflag 0
fix_modify d1 demflag 0
fix_modify e1 demflag 0
Step CPU Atoms biomass c_myNtypes[1] c_myNtypes[2] c_myNtypes[3] c_myNtypes[4] c_myNtypes[5] c_myNtypes[6] 
  153051            0    53323 1.2396179e-12            0        30230         4000         4000        15092            1 
number of iterations: 6111 
  153052    9.3019001    55188 1.3036408e-12            0        32095         4000         4000        15092            1 
Loop time of 9.30247 on 100 procs for 1 steps with 55188 atoms

96.2% CPU use with 100 MPI tasks x no OpenMP threads
fix_modify k1 demflag 1
fix_modify d2 demflag 1
fix_modify d1 demflag 1
fix_modify e1 demflag 1
timestep 1e-3
run 3000 pre no post no
Step CPU Atoms biomass c_myNtypes[1] c_myNtypes[2] c_myNtypes[3] c_myNtypes[4] c_myNtypes[5] c_myNtypes[6] 
  153052            0    55188 1.3036408e-12            0        32095         4000         4000        15092            1 
  156052    1.4975538    55188 1.3036408e-12            0        32095         4000         4000        15092            1 
Loop time of 1.49808 on 100 procs for 3000 steps with 55188 atoms

95.7% CPU use with 100 MPI tasks x no OpenMP threads
timestep 1200
fix_modify k1 demflag 0
fix_modify d2 demflag 0
fix_modify d1 demflag 0
fix_modify e1 demflag 0
Step CPU Atoms biomass c_myNtypes[1] c_myNtypes[2] c_myNtypes[3] c_myNtypes[4] c_myNtypes[5] c_myNtypes[6] 
  156052            0    55188 1.3036408e-12            0        32095         4000         4000        15092            1 
number of iterations: 6111 
  156053    9.2896128    57198 1.3718461e-12            0        34105         4000         4000        15092            1 
Loop time of 9.29 on 100 procs for 1 steps with 57198 atoms

96.2% CPU use with 100 MPI tasks x no OpenMP threads
fix_modify k1 demflag 1
fix_modify d2 demflag 1
fix_modify d1 demflag 1
fix_modify e1 demflag 1
timestep 1e-3
run 3000 pre no post no
Step CPU Atoms biomass c_myNtypes[1] c_myNtypes[2] c_myNtypes[3] c_myNtypes[4] c_myNtypes[5] c_myNtypes[6] 
  156053            0    57198 1.3718461e-12            0        34105         4000         4000        15092            1 
  159053     1.573642    57198 1.3718461e-12            0        34105         4000         4000        15092            1 
Loop time of 1.57421 on 100 procs for 3000 steps with 57198 atoms

95.7% CPU use with 100 MPI tasks x no OpenMP threads
timestep 1200
fix_modify k1 demflag 0
fix_modify d2 demflag 0
fix_modify d1 demflag 0
fix_modify e1 demflag 0
Step CPU Atoms biomass c_myNtypes[1] c_myNtypes[2] c_myNtypes[3] c_myNtypes[4] c_myNtypes[5] c_myNtypes[6] 
  159053            0    57198 1.3718461e-12            0        34105         4000         4000        15092            1 
number of iterations: 6111 
  159054    9.2979319    59310 1.4445094e-12            0        36211         4006         4000        15092            1 
Loop time of 9.29859 on 100 procs for 1 steps with 59310 atoms

96.2% CPU use with 100 MPI tasks x no OpenMP threads
fix_modify k1 demflag 1
fix_modify d2 demflag 1
fix_modify d1 demflag 1
fix_modify e1 demflag 1
timestep 1e-3
run 3000 pre no post no
Step CPU Atoms biomass c_myNtypes[1] c_myNtypes[2] c_myNtypes[3] c_myNtypes[4] c_myNtypes[5] c_myNtypes[6] 
  159054            0    59310 1.4445094e-12            0        36211         4006         4000        15092            1 
  162054    1.5863581    59310 1.4445094e-12            0        36211         4006         4000        15092            1 
Loop time of 1.58672 on 100 procs for 3000 steps with 59310 atoms

95.7% CPU use with 100 MPI tasks x no OpenMP threads
timestep 1200
fix_modify k1 demflag 0
fix_modify d2 demflag 0
fix_modify d1 demflag 0
fix_modify e1 demflag 0
Step CPU Atoms biomass c_myNtypes[1] c_myNtypes[2] c_myNtypes[3] c_myNtypes[4] c_myNtypes[5] c_myNtypes[6] 
  162054            0    59310 1.4445094e-12            0        36211         4006         4000        15092            1 
number of iterations: 6110 
  162055    9.3127308    61716 1.521925e-12            0        38598         4025         4000        15092            1 
Loop time of 9.31317 on 100 procs for 1 steps with 61716 atoms

96.2% CPU use with 100 MPI tasks x no OpenMP threads
fix_modify k1 demflag 1
fix_modify d2 demflag 1
fix_modify d1 demflag 1
fix_modify e1 demflag 1
timestep 1e-3
run 3000 pre no post no
Step CPU Atoms biomass c_myNtypes[1] c_myNtypes[2] c_myNtypes[3] c_myNtypes[4] c_myNtypes[5] c_myNtypes[6] 
  162055            0    61716 1.521925e-12            0        38598         4025         4000        15092            1 
  165055     1.628984    61716 1.521925e-12            0        38598         4025         4000        15092            1 
Loop time of 1.62956 on 100 procs for 3000 steps with 61716 atoms

95.7% CPU use with 100 MPI tasks x no OpenMP threads
timestep 1200
fix_modify k1 demflag 0
fix_modify d2 demflag 0
fix_modify d1 demflag 0
fix_modify e1 demflag 0
Step CPU Atoms biomass c_myNtypes[1] c_myNtypes[2] c_myNtypes[3] c_myNtypes[4] c_myNtypes[5] c_myNtypes[6] 
  165055            0    61716 1.521925e-12            0        38598         4025         4000        15092            1 
number of iterations: 6110 
  165056     9.416851    64370 1.6044066e-12            0        41221         4056         4000        15092            1 
Loop time of 9.4172 on 100 procs for 1 steps with 64370 atoms

96.2% CPU use with 100 MPI tasks x no OpenMP threads
fix_modify k1 demflag 1
fix_modify d2 demflag 1
fix_modify d1 demflag 1
fix_modify e1 demflag 1
timestep 1e-3
run 3000 pre no post no
Step CPU Atoms biomass c_myNtypes[1] c_myNtypes[2] c_myNtypes[3] c_myNtypes[4] c_myNtypes[5] c_myNtypes[6] 
  165056            0    64370 1.6044066e-12            0        41221         4056         4000        15092            1 
  168056     1.714081    64370 1.6044066e-12            0        41221         4056         4000        15092            1 
Loop time of 1.71461 on 100 procs for 3000 steps with 64370 atoms

95.6% CPU use with 100 MPI tasks x no OpenMP threads
timestep 1200
fix_modify k1 demflag 0
fix_modify d2 demflag 0
fix_modify d1 demflag 0
fix_modify e1 demflag 0
Step CPU Atoms biomass c_myNtypes[1] c_myNtypes[2] c_myNtypes[3] c_myNtypes[4] c_myNtypes[5] c_myNtypes[6] 
  168056            0    64370 1.6044066e-12            0        41221         4056         4000        15092            1 
number of iterations: 6110 
  168057    9.2994528    67360 1.6922885e-12            0        44150         4117         4000        15092            1 
Loop time of 9.29987 on 100 procs for 1 steps with 67360 atoms

96.2% CPU use with 100 MPI tasks x no OpenMP threads
fix_modify k1 demflag 1
fix_modify d2 demflag 1
fix_modify d1 demflag 1
fix_modify e1 demflag 1
timestep 1e-3
run 3000 pre no post no
Step CPU Atoms biomass c_myNtypes[1] c_myNtypes[2] c_myNtypes[3] c_myNtypes[4] c_myNtypes[5] c_myNtypes[6] 
  168057            0    67360 1.6922885e-12            0        44150         4117         4000        15092            1 
  171057    1.7271512    67360 1.6922885e-12            0        44150         4117         4000        15092            1 
Loop time of 1.72768 on 100 procs for 3000 steps with 67360 atoms

95.6% CPU use with 100 MPI tasks x no OpenMP threads
timestep 1200
fix_modify k1 demflag 0
fix_modify d2 demflag 0
fix_modify d1 demflag 0
fix_modify e1 demflag 0
Step CPU Atoms biomass c_myNtypes[1] c_myNtypes[2] c_myNtypes[3] c_myNtypes[4] c_myNtypes[5] c_myNtypes[6] 
  171057            0    67360 1.6922885e-12            0        44150         4117         4000        15092            1 
number of iterations: 6110 
  171058    9.3410139    70622 1.7859274e-12            0        47317         4212         4000        15092            1 
Loop time of 9.34162 on 100 procs for 1 steps with 70622 atoms

96.2% CPU use with 100 MPI tasks x no OpenMP threads
fix_modify k1 demflag 1
fix_modify d2 demflag 1
fix_modify d1 demflag 1
fix_modify e1 demflag 1
timestep 1e-3
run 3000 pre no post no
Step CPU Atoms biomass c_myNtypes[1] c_myNtypes[2] c_myNtypes[3] c_myNtypes[4] c_myNtypes[5] c_myNtypes[6] 
  171058            0    70622 1.7859274e-12            0        47317         4212         4000        15092            1 
  174058    1.7676418    70622 1.7859274e-12            0        47317         4212         4000        15092            1 
Loop time of 1.76822 on 100 procs for 3000 steps with 70622 atoms

95.7% CPU use with 100 MPI tasks x no OpenMP threads
timestep 1200
fix_modify k1 demflag 0
fix_modify d2 demflag 0
fix_modify d1 demflag 0
fix_modify e1 demflag 0
Step CPU Atoms biomass c_myNtypes[1] c_myNtypes[2] c_myNtypes[3] c_myNtypes[4] c_myNtypes[5] c_myNtypes[6] 
  174058            0    70622 1.7859274e-12            0        47317         4212         4000        15092            1 
number of iterations: 6110 
  174059     9.251194    74044 1.8857036e-12            0        50623         4328         4000        15092            1 
Loop time of 9.25161 on 100 procs for 1 steps with 74044 atoms

96.2% CPU use with 100 MPI tasks x no OpenMP threads
fix_modify k1 demflag 1
fix_modify d2 demflag 1
fix_modify d1 demflag 1
fix_modify e1 demflag 1
timestep 1e-3
run 3000 pre no post no
Step CPU Atoms biomass c_myNtypes[1] c_myNtypes[2] c_myNtypes[3] c_myNtypes[4] c_myNtypes[5] c_myNtypes[6] 
  174059            0    74044 1.8857036e-12            0        50623         4328         4000        15092            1 
  177059    1.7993829    74044 1.8857036e-12            0        50623         4328         4000        15092            1 
Loop time of 1.7998 on 100 procs for 3000 steps with 74044 atoms

95.7% CPU use with 100 MPI tasks x no OpenMP threads
timestep 1200
fix_modify k1 demflag 0
fix_modify d2 demflag 0
fix_modify d1 demflag 0
fix_modify e1 demflag 0
Step CPU Atoms biomass c_myNtypes[1] c_myNtypes[2] c_myNtypes[3] c_myNtypes[4] c_myNtypes[5] c_myNtypes[6] 
  177059            0    74044 1.8857036e-12            0        50623         4328         4000        15092            1 
number of iterations: 6110 
  177060    9.3237031    77534 1.9920224e-12            0        54032         4409         4000        15092            1 
Loop time of 9.3241 on 100 procs for 1 steps with 77534 atoms

96.2% CPU use with 100 MPI tasks x no OpenMP threads
fix_modify k1 demflag 1
fix_modify d2 demflag 1
fix_modify d1 demflag 1
fix_modify e1 demflag 1
timestep 1e-3
run 3000 pre no post no
Step CPU Atoms biomass c_myNtypes[1] c_myNtypes[2] c_myNtypes[3] c_myNtypes[4] c_myNtypes[5] c_myNtypes[6] 
  177060            0    77534 1.9920224e-12            0        54032         4409         4000        15092            1 
  180060     1.957906    77534 1.9920224e-12            0        54032         4409         4000        15092            1 
Loop time of 1.95832 on 100 procs for 3000 steps with 77534 atoms

94.6% CPU use with 100 MPI tasks x no OpenMP threads
timestep 1200
fix_modify k1 demflag 0
fix_modify d2 demflag 0
fix_modify d1 demflag 0
fix_modify e1 demflag 0
Step CPU Atoms biomass c_myNtypes[1] c_myNtypes[2] c_myNtypes[3] c_myNtypes[4] c_myNtypes[5] c_myNtypes[6] 
  180060            0    77534 1.9920224e-12            0        54032         4409         4000        15092            1 
number of iterations: 6109 
  180061    6.6583049    81273 2.1053164e-12            0        57615         4565         4000        15092            1 
Loop time of 6.65871 on 100 procs for 1 steps with 81273 atoms

96.2% CPU use with 100 MPI tasks x no OpenMP threads
fix_modify k1 demflag 1
fix_modify d2 demflag 1
fix_modify d1 demflag 1
fix_modify e1 demflag 1
timestep 1e-3
run 3000 pre no post no
Step CPU Atoms biomass c_myNtypes[1] c_myNtypes[2] c_myNtypes[3] c_myNtypes[4] c_myNtypes[5] c_myNtypes[6] 
  180061            0    81273 2.1053164e-12            0        57615         4565         4000        15092            1 
  183061    1.5859389    81273 2.1053164e-12            0        57615         4565         4000        15092            1 
Loop time of 1.5863 on 100 procs for 3000 steps with 81273 atoms

95.7% CPU use with 100 MPI tasks x no OpenMP threads
timestep 1200
fix_modify k1 demflag 0
fix_modify d2 demflag 0
fix_modify d1 demflag 0
fix_modify e1 demflag 0
Step CPU Atoms biomass c_myNtypes[1] c_myNtypes[2] c_myNtypes[3] c_myNtypes[4] c_myNtypes[5] c_myNtypes[6] 
  183061            0    81273 2.1053164e-12            0        57615         4565         4000        15092            1 
number of iterations: 6109 
  183062    6.5065811    85148 2.2260464e-12            0        61386         4669         4000        15092            1 
Loop time of 6.5069 on 100 procs for 1 steps with 85148 atoms

96.2% CPU use with 100 MPI tasks x no OpenMP threads
fix_modify k1 demflag 1
fix_modify d2 demflag 1
fix_modify d1 demflag 1
fix_modify e1 demflag 1
timestep 1e-3
run 3000 pre no post no
Step CPU Atoms biomass c_myNtypes[1] c_myNtypes[2] c_myNtypes[3] c_myNtypes[4] c_myNtypes[5] c_myNtypes[6] 
  183062            0    85148 2.2260464e-12            0        61386         4669         4000        15092            1 
  186062    1.6354878    85148 2.2260464e-12            0        61386         4669         4000        15092            1 
Loop time of 1.63599 on 100 procs for 3000 steps with 85148 atoms

95.7% CPU use with 100 MPI tasks x no OpenMP threads
timestep 1200
fix_modify k1 demflag 0
fix_modify d2 demflag 0
fix_modify d1 demflag 0
fix_modify e1 demflag 0
Step CPU Atoms biomass c_myNtypes[1] c_myNtypes[2] c_myNtypes[3] c_myNtypes[4] c_myNtypes[5] c_myNtypes[6] 
[...]
number of iterations: 9848 
  327110    12.277182  2067517 4.4852253e-11            0      1337070        15102         4000       711344            1 
Loop time of 12.2775 on 100 procs for 1 steps with 2067517 atoms

98.4% CPU use with 100 MPI tasks x no OpenMP threads
fix_modify k1 demflag 1
fix_modify d2 demflag 1
fix_modify d1 demflag 1
fix_modify e1 demflag 1
timestep 1e-3
run 3000 pre no post no
Step CPU Atoms biomass c_myNtypes[1] c_myNtypes[2] c_myNtypes[3] c_myNtypes[4] c_myNtypes[5] c_myNtypes[6] 
  327110            0  2067517 4.4852253e-11            0      1337070        15102         4000       711344            1 
  330110    63.775898  2067517 4.4852253e-11            0      1337070        15102         4000       711344            1 
Loop time of 63.7763 on 100 procs for 3000 steps with 2067517 atoms

97.9% CPU use with 100 MPI tasks x no OpenMP threads
timestep 1200
fix_modify k1 demflag 0
fix_modify d2 demflag 0
fix_modify d1 demflag 0
fix_modify e1 demflag 0
Step CPU Atoms biomass c_myNtypes[1] c_myNtypes[2] c_myNtypes[3] c_myNtypes[4] c_myNtypes[5] c_myNtypes[6] 
  330110            0  2067517 4.4852253e-11            0      1337070        15102         4000       711344            1 
number of iterations: 9838 
  330111     10.60442  2156322 4.7556032e-11            0      1425596        15381         4000       711344            1 
Loop time of 10.6045 on 100 procs for 1 steps with 2156322 atoms

98.6% CPU use with 100 MPI tasks x no OpenMP threads
fix_modify k1 demflag 1
fix_modify d2 demflag 1
fix_modify d1 demflag 1
fix_modify e1 demflag 1
timestep 1e-3
run 3000 pre no post no
Step CPU Atoms biomass c_myNtypes[1] c_myNtypes[2] c_myNtypes[3] c_myNtypes[4] c_myNtypes[5] c_myNtypes[6] 
  330111            0  2156322 4.7556032e-11            0      1425596        15381         4000       711344            1 
  333111    60.175947  2156322 4.7556032e-11            0      1425596        15381         4000       711344            1 
Loop time of 60.1763 on 100 procs for 3000 steps with 2156322 atoms

98.1% CPU use with 100 MPI tasks x no OpenMP threads
timestep 1200
fix_modify k1 demflag 0
fix_modify d2 demflag 0
fix_modify d1 demflag 0
fix_modify e1 demflag 0
Step CPU Atoms biomass c_myNtypes[1] c_myNtypes[2] c_myNtypes[3] c_myNtypes[4] c_myNtypes[5] c_myNtypes[6] 
  333111            0  2156322 4.7556032e-11            0      1425596        15381         4000       711344            1 
number of iterations: 9827 
  333112    12.271147  2250158 5.0433009e-11            0      1519179        15634         4000       711344            1 
Loop time of 12.2718 on 100 procs for 1 steps with 2250158 atoms

98.4% CPU use with 100 MPI tasks x no OpenMP threads
fix_modify k1 demflag 1
fix_modify d2 demflag 1
fix_modify d1 demflag 1
fix_modify e1 demflag 1
timestep 1e-3
run 3000 pre no post no
Step CPU Atoms biomass c_myNtypes[1] c_myNtypes[2] c_myNtypes[3] c_myNtypes[4] c_myNtypes[5] c_myNtypes[6] 
  333112            0  2250158 5.0433009e-11            0      1519179        15634         4000       711344            1 
  336112    61.532831  2250158 5.0433009e-11            0      1519179        15634         4000       711344            1 
Loop time of 61.5335 on 100 procs for 3000 steps with 2250158 atoms

97.9% CPU use with 100 MPI tasks x no OpenMP threads
timestep 1200
fix_modify k1 demflag 0
fix_modify d2 demflag 0
fix_modify d1 demflag 0
fix_modify e1 demflag 0
Step CPU Atoms biomass c_myNtypes[1] c_myNtypes[2] c_myNtypes[3] c_myNtypes[4] c_myNtypes[5] c_myNtypes[6] 
  336112            0  2250158 5.0433009e-11            0      1519179        15634         4000       711344            1 
number of iterations: 9915 
  336113    12.430705  2350388 5.3493623e-11            0      1619127        15916         4000       711344            1 
Loop time of 12.4313 on 100 procs for 1 steps with 2350388 atoms

98.4% CPU use with 100 MPI tasks x no OpenMP threads
fix_modify k1 demflag 1
fix_modify d2 demflag 1
fix_modify d1 demflag 1
fix_modify e1 demflag 1
timestep 1e-3
run 3000 pre no post no
Step CPU Atoms biomass c_myNtypes[1] c_myNtypes[2] c_myNtypes[3] c_myNtypes[4] c_myNtypes[5] c_myNtypes[6] 
  336113            0  2350388 5.3493623e-11            0      1619127        15916         4000       711344            1 
  339113    65.567042  2350388 5.3493623e-11            0      1619127        15916         4000       711344            1 
Loop time of 65.5674 on 100 procs for 3000 steps with 2350388 atoms

97.9% CPU use with 100 MPI tasks x no OpenMP threads
timestep 1200
fix_modify k1 demflag 0
fix_modify d2 demflag 0
fix_modify d1 demflag 0
fix_modify e1 demflag 0
Step CPU Atoms biomass c_myNtypes[1] c_myNtypes[2] c_myNtypes[3] c_myNtypes[4] c_myNtypes[5] c_myNtypes[6] 
  339113            0  2350388 5.3493623e-11            0      1619127        15916         4000       711344            1 
number of iterations: 10299 
  339114    12.947987  2457014 5.6748785e-11            0      1725476        16193         4000       711344            1 
Loop time of 12.9486 on 100 procs for 1 steps with 2457014 atoms

98.4% CPU use with 100 MPI tasks x no OpenMP threads
fix_modify k1 demflag 1
fix_modify d2 demflag 1
fix_modify d1 demflag 1
fix_modify e1 demflag 1
timestep 1e-3
run 3000 pre no post no
Step CPU Atoms biomass c_myNtypes[1] c_myNtypes[2] c_myNtypes[3] c_myNtypes[4] c_myNtypes[5] c_myNtypes[6] 
  339114            0  2457014 5.6748785e-11            0      1725476        16193         4000       711344            1 
  342114    70.514028  2457014 5.6748785e-11            0      1725476        16193         4000       711344            1 
Loop time of 70.5147 on 100 procs for 3000 steps with 2457014 atoms

97.9% CPU use with 100 MPI tasks x no OpenMP threads
timestep 1200
fix_modify k1 demflag 0
fix_modify d2 demflag 0
fix_modify d1 demflag 0
fix_modify e1 demflag 0
Step CPU Atoms biomass c_myNtypes[1] c_myNtypes[2] c_myNtypes[3] c_myNtypes[4] c_myNtypes[5] c_myNtypes[6] 
  342114            0  2457014 5.6748785e-11            0      1725476        16193         4000       711344            1 
number of iterations: 12468 
  342115    17.547479  2569692 6.0209229e-11            0      1837870        16477         4000       711344            1 
Loop time of 17.5481 on 100 procs for 1 steps with 2569692 atoms

98.1% CPU use with 100 MPI tasks x no OpenMP threads
fix_modify k1 demflag 1
fix_modify d2 demflag 1
fix_modify d1 demflag 1
fix_modify e1 demflag 1
timestep 1e-3
run 3000 pre no post no
Step CPU Atoms biomass c_myNtypes[1] c_myNtypes[2] c_myNtypes[3] c_myNtypes[4] c_myNtypes[5] c_myNtypes[6] 
  342115            0  2569692 6.0209229e-11            0      1837870        16477         4000       711344            1 
  345115    77.594213  2569692 6.0209229e-11            0      1837870        16477         4000       711344            1 
Loop time of 77.5946 on 100 procs for 3000 steps with 2569692 atoms

97.8% CPU use with 100 MPI tasks x no OpenMP threads
timestep 1200
fix_modify k1 demflag 0
fix_modify d2 demflag 0
fix_modify d1 demflag 0
fix_modify e1 demflag 0
Step CPU Atoms biomass c_myNtypes[1] c_myNtypes[2] c_myNtypes[3] c_myNtypes[4] c_myNtypes[5] c_myNtypes[6] 
  345115            0  2569692 6.0209229e-11            0      1837870        16477         4000       711344            1 
number of iterations: 12228 
  345116    16.179095  2688610 6.3887592e-11            0      1956497        16768         4000       711344            1 
Loop time of 16.1795 on 100 procs for 1 steps with 2688610 atoms

98.4% CPU use with 100 MPI tasks x no OpenMP threads
fix_modify k1 demflag 1
fix_modify d2 demflag 1
fix_modify d1 demflag 1
fix_modify e1 demflag 1
timestep 1e-3
run 3000 pre no post no
Step CPU Atoms biomass c_myNtypes[1] c_myNtypes[2] c_myNtypes[3] c_myNtypes[4] c_myNtypes[5] c_myNtypes[6] 
  345116            0  2688610 6.3887592e-11            0      1956497        16768         4000       711344            1 
  348116    112.93635  2688610 6.3887592e-11            0      1956497        16768         4000       711344            1 
Loop time of 112.937 on 100 procs for 3000 steps with 2688610 atoms

97.0% CPU use with 100 MPI tasks x no OpenMP threads
timestep 1200
fix_modify k1 demflag 0
fix_modify d2 demflag 0
fix_modify d1 demflag 0
fix_modify e1 demflag 0
Step CPU Atoms biomass c_myNtypes[1] c_myNtypes[2] c_myNtypes[3] c_myNtypes[4] c_myNtypes[5] c_myNtypes[6] 
  348116            0  2688610 6.3887592e-11            0      1956497        16768         4000       711344            1 
number of iterations: 12646 
  348117      16.6919  2815340 6.7796402e-11            0      2082889        17106         4000       711344            1 
Loop time of 16.6923 on 100 procs for 1 steps with 2815340 atoms

98.4% CPU use with 100 MPI tasks x no OpenMP threads
fix_modify k1 demflag 1
fix_modify d2 demflag 1
fix_modify d1 demflag 1
fix_modify e1 demflag 1
timestep 1e-3
run 3000 pre no post no
Step CPU Atoms biomass c_myNtypes[1] c_myNtypes[2] c_myNtypes[3] c_myNtypes[4] c_myNtypes[5] c_myNtypes[6] 
  348117            0  2815340 6.7796402e-11            0      2082889        17106         4000       711344            1 
  351117    84.738697  2815340 6.7796402e-11            0      2082889        17106         4000       711344            1 
Loop time of 84.7394 on 100 procs for 3000 steps with 2815340 atoms

97.8% CPU use with 100 MPI tasks x no OpenMP threads
timestep 1200
fix_modify k1 demflag 0
fix_modify d2 demflag 0
fix_modify d1 demflag 0
fix_modify e1 demflag 0
Step CPU Atoms biomass c_myNtypes[1] c_myNtypes[2] c_myNtypes[3] c_myNtypes[4] c_myNtypes[5] c_myNtypes[6] 
  351117            0  2815340 6.7796402e-11            0      2082889        17106         4000       711344            1 
number of iterations: 13065 
  351118    17.303148  2952138 7.1957785e-11            0      2217324        17447         4000       713366            1 
Loop time of 17.3038 on 100 procs for 1 steps with 2952138 atoms

98.4% CPU use with 100 MPI tasks x no OpenMP threads
fix_modify k1 demflag 1
fix_modify d2 demflag 1
fix_modify d1 demflag 1
fix_modify e1 demflag 1
timestep 1e-3
run 3000 pre no post no
Step CPU Atoms biomass c_myNtypes[1] c_myNtypes[2] c_myNtypes[3] c_myNtypes[4] c_myNtypes[5] c_myNtypes[6] 
  351118            0  2952138 7.1957785e-11            0      2217324        17447         4000       713366            1 
  354118    89.613716  2952138 7.1957785e-11            0      2217324        17447         4000       713366            1 
Loop time of 89.6144 on 100 procs for 3000 steps with 2952138 atoms

97.9% CPU use with 100 MPI tasks x no OpenMP threads
timestep 1200
fix_modify k1 demflag 0
fix_modify d2 demflag 0
fix_modify d1 demflag 0
fix_modify e1 demflag 0
Step CPU Atoms biomass c_myNtypes[1] c_myNtypes[2] c_myNtypes[3] c_myNtypes[4] c_myNtypes[5] c_myNtypes[6] 
  354118            0  2952138 7.1957785e-11            0      2217324        17447         4000       713366            1 
number of iterations: 13491 
  354119    18.086594  3105442 7.6409104e-11            0      2360960        17799         4000       722682            1 
Loop time of 18.087 on 100 procs for 1 steps with 3105442 atoms

98.3% CPU use with 100 MPI tasks x no OpenMP threads
fix_modify k1 demflag 1
fix_modify d2 demflag 1
fix_modify d1 demflag 1
fix_modify e1 demflag 1
timestep 1e-3
run 3000 pre no post no
Step CPU Atoms biomass c_myNtypes[1] c_myNtypes[2] c_myNtypes[3] c_myNtypes[4] c_myNtypes[5] c_myNtypes[6] 
  354119            0  3105442 7.6409104e-11            0      2360960        17799         4000       722682            1 
  357119     93.64968  3105442 7.6409104e-11            0      2360960        17799         4000       722682            1 
Loop time of 93.6501 on 100 procs for 3000 steps with 3105442 atoms

97.9% CPU use with 100 MPI tasks x no OpenMP threads
timestep 1200
fix_modify k1 demflag 0
fix_modify d2 demflag 0
fix_modify d1 demflag 0
fix_modify e1 demflag 0
Step CPU Atoms biomass c_myNtypes[1] c_myNtypes[2] c_myNtypes[3] c_myNtypes[4] c_myNtypes[5] c_myNtypes[6] 
  357119            0  3105442 7.6409104e-11            0      2360960        17799         4000       722682            1 
number of iterations: 13924 
  357120    18.481951  3284686 8.1209305e-11            0      2513122        18190         4000       749373            1 
Loop time of 18.4826 on 100 procs for 1 steps with 3284686 atoms

98.4% CPU use with 100 MPI tasks x no OpenMP threads
fix_modify k1 demflag 1
fix_modify d2 demflag 1
fix_modify d1 demflag 1
fix_modify e1 demflag 1
timestep 1e-3
run 3000 pre no post no
Step CPU Atoms biomass c_myNtypes[1] c_myNtypes[2] c_myNtypes[3] c_myNtypes[4] c_myNtypes[5] c_myNtypes[6] 
  357120            0  3284686 8.1209305e-11            0      2513122        18190         4000       749373            1 
  360120    97.199154  3284686 8.1209305e-11            0      2513122        18190         4000       749373            1 
Loop time of 97.1999 on 100 procs for 3000 steps with 3284686 atoms

97.8% CPU use with 100 MPI tasks x no OpenMP threads
timestep 1200
fix_modify k1 demflag 0
fix_modify d2 demflag 0
fix_modify d1 demflag 0
fix_modify e1 demflag 0
Step CPU Atoms biomass c_myNtypes[1] c_myNtypes[2] c_myNtypes[3] c_myNtypes[4] c_myNtypes[5] c_myNtypes[6] 
  360120            0  3284686 8.1209305e-11            0      2513122        18190         4000       749373            1 
number of iterations: 14364 
  360121    19.248279  3507712 8.6447072e-11            0      2674980        18637         4000       810094            1 
Loop time of 19.2487 on 100 procs for 1 steps with 3507712 atoms

98.2% CPU use with 100 MPI tasks x no OpenMP threads
fix_modify k1 demflag 1
fix_modify d2 demflag 1
fix_modify d1 demflag 1
fix_modify e1 demflag 1
timestep 1e-3
run 3000 pre no post no
Step CPU Atoms biomass c_myNtypes[1] c_myNtypes[2] c_myNtypes[3] c_myNtypes[4] c_myNtypes[5] c_myNtypes[6] 
  360121            0  3507712 8.6447072e-11            0      2674980        18637         4000       810094            1 
  363121    107.26956  3507712 8.6447072e-11            0      2674980        18637         4000       810094            1 
Loop time of 107.27 on 100 procs for 3000 steps with 3507712 atoms

97.9% CPU use with 100 MPI tasks x no OpenMP threads
timestep 1200
fix_modify k1 demflag 0
fix_modify d2 demflag 0
fix_modify d1 demflag 0
fix_modify e1 demflag 0
Step CPU Atoms biomass c_myNtypes[1] c_myNtypes[2] c_myNtypes[3] c_myNtypes[4] c_myNtypes[5] c_myNtypes[6] 
  363121            0  3507712 8.6447072e-11            0      2674980        18637         4000       810094            1 
number of iterations: 17346 
  363122    24.367873  3799135 9.2246006e-11            0      2846563        19078         4000       929493            1 
Loop time of 24.3684 on 100 procs for 1 steps with 3799135 atoms

98.3% CPU use with 100 MPI tasks x no OpenMP threads
fix_modify k1 demflag 1
fix_modify d2 demflag 1
fix_modify d1 demflag 1
fix_modify e1 demflag 1
timestep 1e-3
run 3000 pre no post no
Step CPU Atoms biomass c_myNtypes[1] c_myNtypes[2] c_myNtypes[3] c_myNtypes[4] c_myNtypes[5] c_myNtypes[6] 
  363122            0  3799135 9.2246006e-11            0      2846563        19078         4000       929493            1 
  366122    117.97352  3799135 9.2246006e-11            0      2846563        19078         4000       929493            1 
Loop time of 117.974 on 100 procs for 3000 steps with 3799135 atoms

97.8% CPU use with 100 MPI tasks x no OpenMP threads
timestep 1200
fix_modify k1 demflag 0
fix_modify d2 demflag 0
fix_modify d1 demflag 0
fix_modify e1 demflag 0
Step CPU Atoms biomass c_myNtypes[1] c_myNtypes[2] c_myNtypes[3] c_myNtypes[4] c_myNtypes[5] c_myNtypes[6] 
  366122            0  3799135 9.2246006e-11            0      2846563        19078         4000       929493            1 
number of iterations: 16967 
  366123    23.965339  4191887 9.8761966e-11            0      3029503        19566         4000      1138817            1 
Loop time of 23.9658 on 100 procs for 1 steps with 4191887 atoms

98.3% CPU use with 100 MPI tasks x no OpenMP threads
fix_modify k1 demflag 1
fix_modify d2 demflag 1
fix_modify d1 demflag 1
fix_modify e1 demflag 1
timestep 1e-3
run 3000 pre no post no
Step CPU Atoms biomass c_myNtypes[1] c_myNtypes[2] c_myNtypes[3] c_myNtypes[4] c_myNtypes[5] c_myNtypes[6] 
  366123            0  4191887 9.8761966e-11            0      3029503        19566         4000      1138817            1 
  369123    143.12351  4191887 9.8761966e-11            0      3029503        19566         4000      1138817            1 
Loop time of 143.124 on 100 procs for 3000 steps with 4191887 atoms

97.8% CPU use with 100 MPI tasks x no OpenMP threads
timestep 1200
fix_modify k1 demflag 0
fix_modify d2 demflag 0
fix_modify d1 demflag 0
fix_modify e1 demflag 0
Step CPU Atoms biomass c_myNtypes[1] c_myNtypes[2] c_myNtypes[3] c_myNtypes[4] c_myNtypes[5] c_myNtypes[6] 
  369123            0  4191887 9.8761966e-11            0      3029503        19566         4000      1138817            1 
number of iterations: 17504 
  369124     24.93334  4700371  1.06077e-10            0      3223105        20057         4000      1453208            1 
Loop time of 24.9338 on 100 procs for 1 steps with 4700371 atoms

98.2% CPU use with 100 MPI tasks x no OpenMP threads
fix_modify k1 demflag 1
fix_modify d2 demflag 1
fix_modify d1 demflag 1
fix_modify e1 demflag 1
timestep 1e-3
run 3000 pre no post no
Step CPU Atoms biomass c_myNtypes[1] c_myNtypes[2] c_myNtypes[3] c_myNtypes[4] c_myNtypes[5] c_myNtypes[6] 
  369124            0  4700371  1.06077e-10            0      3223105        20057         4000      1453208            1 
  372124    182.00231  4700371  1.06077e-10            0      3223105        20057         4000      1453208            1 
Loop time of 182.003 on 100 procs for 3000 steps with 4700371 atoms

97.7% CPU use with 100 MPI tasks x no OpenMP threads
timestep 1200
fix_modify k1 demflag 0
fix_modify d2 demflag 0
fix_modify d1 demflag 0
fix_modify e1 demflag 0
Step CPU Atoms biomass c_myNtypes[1] c_myNtypes[2] c_myNtypes[3] c_myNtypes[4] c_myNtypes[5] c_myNtypes[6] 
  372124            0  4700371  1.06077e-10            0      3223105        20057         4000      1453208            1 
number of iterations: 18044 
  372125    28.409684  5322063 1.1419531e-10            0      3427446        20556         4000      1870060            1 
Loop time of 28.4134 on 100 procs for 1 steps with 5322063 atoms

98.2% CPU use with 100 MPI tasks x no OpenMP threads
fix_modify k1 demflag 1
fix_modify d2 demflag 1
fix_modify d1 demflag 1
fix_modify e1 demflag 1
timestep 1e-3
run 3000 pre no post no
Step CPU Atoms biomass c_myNtypes[1] c_myNtypes[2] c_myNtypes[3] c_myNtypes[4] c_myNtypes[5] c_myNtypes[6] 
  372125            0  5322063 1.1419531e-10            0      3427446        20556         4000      1870060            1 
  375125    229.27968  5322063 1.1419531e-10            0      3427446        20556         4000      1870060            1 
Loop time of 229.282 on 100 procs for 3000 steps with 5322063 atoms

97.7% CPU use with 100 MPI tasks x no OpenMP threads
timestep 1200
fix_modify k1 demflag 0
fix_modify d2 demflag 0
fix_modify d1 demflag 0
fix_modify e1 demflag 0
Step CPU Atoms biomass c_myNtypes[1] c_myNtypes[2] c_myNtypes[3] c_myNtypes[4] c_myNtypes[5] c_myNtypes[6] 
  375125            0  5322063 1.1419531e-10            0      3427446        20556         4000      1870060            1 
number of iterations: 18589 
  375126     32.98811  6035777 1.2303281e-10            0      3643009        21109         4000      2367658            1 
Loop time of 32.9923 on 100 procs for 1 steps with 6035777 atoms

98.1% CPU use with 100 MPI tasks x no OpenMP threads
