ITEM: TIMESTEP
0
ITEM: NUMBER OF ATOMS
5
ITEM: BOX BOUNDS ff ff ff
0 0.0001
0 0.0001
0 0.0001
ITEM: ATOMS id type diameter x y z vx vy vz fx fy fz 
4 4 1.0539e-06 5e-05 5e-05 4.9e-05 0 0 0 0 0 -8.22e-06 
2 2 1.2839e-06 5e-05 4.9e-05 5e-05 0 0 0 0 -3.122e-05 0 
3 3 1.0283e-06 5e-05 5e-05 5e-05 0 0 0 0 2e-05 -4.3e-05 
1 1 1.0839e-06 5e-05 5.1e-05 5e-05 0 0 0 0 1.122e-05 0 
5 5 1.4839e-06 5e-05 5e-05 5.1e-05 0 0 0 0 0 5.122e-05 
ITEM: TIMESTEP
500
ITEM: NUMBER OF ATOMS
6
ITEM: BOX BOUNDS ff ff ff
0 0.0001
0 0.0001
0 0.0001
ITEM: ATOMS id type diameter x y z vx vy vz fx fy fz 
4 4 1.05045e-06 5e-05 4.97735e-05 4.40052e-05 0 -4.58775e-11 -9.98947e-10 0 0 0 
2 2 1.33813e-06 5e-05 4.40212e-05 5.04585e-05 0 -9.95685e-10 9.27986e-11 0 0 0 
3 3 1.06354e-06 4.99165e-05 4.62453e-05 4.73882e-05 -1.94687e-11 -8.90552e-10 -4.54464e-10 0 0 0 
1 1 7.85614e-06 5.05331e-05 4.98795e-05 4.90996e-05 1.65222e-10 -8.5777e-10 -4.86757e-10 0 0 0 
5 5 1.4839e-06 5e-05 4.98116e-05 5.59964e-05 0 -3.81391e-11 9.99272e-10 0 0 0 
6 4 9.07185e-07 4.92897e-05 5.63351e-05 5.2763e-05 -1.65222e-10 8.5777e-10 4.86757e-10 0 0 0 
ITEM: TIMESTEP
1000
ITEM: NUMBER OF ATOMS
9
ITEM: BOX BOUNDS ff ff ff
0 0.0001
0 0.0001
0 0.0001
ITEM: ATOMS id type diameter x y z vx vy vz fx fy fz 
4 4 1.04701e-06 4.78445e-05 5.21913e-05 4.16717e-05 -5.52537e-10 6.09126e-10 -5.68918e-10 0 0 0 
2 2 1.39465e-06 4.95187e-05 4.07156e-05 4.67437e-05 -9.64588e-11 -6.60452e-10 -7.44647e-10 0 0 0 
3 3 1.09999e-06 4.63017e-05 4.38578e-05 4.98649e-05 -7.33555e-10 -4.69856e-10 4.91053e-10 0 0 0 
1 1 4.20851e-05 5.59423e-05 4.68083e-05 4.65547e-05 9.73295e-10 -1.84736e-10 1.36269e-10 0 0 0 
5 5 1.4839e-06 5e-05 4.96209e-05 6.09928e-05 0 -3.81391e-11 9.99272e-10 0 0 0 
6 4 9.04215e-07 4.84635e-05 6.0624e-05 5.51968e-05 -1.65222e-10 8.5777e-10 4.86757e-10 0 0 0 
7 5 1.43074e-05 5.05519e-05 4.8541e-05 4.98307e-05 1.65222e-10 -8.5777e-10 -4.86757e-10 0 0 0 
8 4 5.08369e-06 4.59309e-05 5.4694e-05 4.0218e-05 -5.53865e-10 6.62848e-10 -5.03851e-10 0 0 0 
9 4 5.50924e-06 5.07855e-05 4.93896e-05 5.65234e-05 9.64588e-11 6.60452e-10 7.44647e-10 0 0 0 
ITEM: TIMESTEP
1500
ITEM: NUMBER OF ATOMS
13
ITEM: BOX BOUNDS ff ff ff
0 0.0001
0 0.0001
0 0.0001
ITEM: ATOMS id type diameter x y z vx vy vz fx fy fz 
13 4 2.88593e-05 2.05451e-05 4.56925e-05 2.32574e-05 9.73295e-10 -1.84736e-10 1.36269e-10 0 0 0 
8 4 5.06704e-06 4.31615e-05 5.80082e-05 3.76988e-05 -5.53865e-10 6.62848e-10 -5.03851e-10 0 0 0 
4 4 1.04358e-06 4.50819e-05 5.5237e-05 3.88271e-05 -5.52537e-10 6.09126e-10 -5.68918e-10 0 0 0 
11 1 0.000102868 4.10146e-05 3.70343e-05 4.3447e-05 5.3786e-10 7.32577e-10 4.17178e-10 0.00199093 0.00271169 0.00154421 
2 2 1.1324e-06 5.0831e-05 3.7894e-05 4.2211e-05 2.77798e-10 -4.90014e-10 -8.26265e-10 0 0 0 
10 2 1.17415e-06 4.8083e-05 4.27413e-05 5.03845e-05 -2.77798e-10 4.90014e-10 8.26265e-10 0 0 0 
3 3 1.13697e-06 4.26339e-05 4.15085e-05 5.23202e-05 -7.33555e-10 -4.69856e-10 4.91053e-10 0 0 0 
7 5 1.43074e-05 5.1378e-05 4.42522e-05 4.73969e-05 1.65222e-10 -8.5777e-10 -4.86757e-10 0 0 0 
1 1 0.000115193 7.18761e-05 5.8775e-05 5.05836e-05 -8.46474e-10 -4.75172e-10 -2.40197e-10 -0.00568083 -0.00318896 -0.001612 
6 4 9.01254e-07 4.76374e-05 6.49128e-05 5.76306e-05 -1.65222e-10 8.5777e-10 4.86757e-10 0 0 0 
9 4 5.4912e-06 5.12678e-05 5.26919e-05 6.02467e-05 9.64588e-11 6.60452e-10 7.44647e-10 0 0 0 
5 5 1.4839e-06 5e-05 4.94302e-05 6.59891e-05 0 -3.81391e-11 9.99272e-10 0 0 0 
12 4 2.94401e-05 8.02731e-05 4.825e-05 8.17806e-05 -9.97645e-10 5.5201e-11 -4.07185e-11 0 0 0 
ITEM: TIMESTEP
2000
ITEM: NUMBER OF ATOMS
19
ITEM: BOX BOUNDS ff ff ff
0 0.0001
0 0.0001
0 0.0001
ITEM: ATOMS id type diameter x y z vx vy vz fx fy fz 
13 4 2.87648e-05 2.54116e-05 4.47688e-05 2.39387e-05 9.73295e-10 -1.84736e-10 1.36269e-10 0 0 0 
8 4 5.05045e-06 4.03922e-05 6.13224e-05 3.51795e-05 -5.53865e-10 6.62848e-10 -5.03851e-10 0 0 0 
4 4 1.04017e-06 4.23192e-05 5.82826e-05 3.59825e-05 -5.52537e-10 6.09126e-10 -5.68918e-10 0 0 0 
11 1 0.000101685 4.88654e-05 4.9086e-05 5.24134e-05 4.48981e-10 3.90446e-10 -8.03721e-10 0.00032715 0.000284499 -0.000585632 
2 2 1.18002e-06 5.222e-05 3.5444e-05 3.80797e-05 2.77798e-10 -4.90014e-10 -8.26265e-10 0 0 0 
10 2 1.22353e-06 4.90395e-05 4.19682e-05 5.01599e-05 5.06476e-10 -5.8826e-10 -6.30422e-10 0 0 0 
3 3 1.18183e-06 3.89661e-05 3.91593e-05 5.47754e-05 -7.33555e-10 -4.69856e-10 4.91053e-10 0 0 0 
7 5 1.43074e-05 5.22041e-05 3.99633e-05 4.49631e-05 1.65222e-10 -8.5777e-10 -4.86757e-10 0 0 0 
1 1 0.00011495 4.59795e-05 4.6185e-05 5.35245e-05 5.97323e-10 5.79538e-10 -5.54384e-10 0.00216854 0.00210397 -0.00201265 
6 4 8.98304e-07 4.68113e-05 6.92017e-05 6.00644e-05 -1.65222e-10 8.5777e-10 4.86757e-10 0 0 0 
9 4 5.47322e-06 5.17501e-05 5.59942e-05 6.39699e-05 9.64588e-11 6.60452e-10 7.44647e-10 0 0 0 
5 5 1.4839e-06 5e-05 4.92395e-05 7.09855e-05 0 -3.81391e-11 9.99272e-10 0 0 0 
12 4 2.93437e-05 7.52848e-05 4.8526e-05 8.1577e-05 -9.97645e-10 5.5201e-11 -4.07185e-11 0 0 0 
14 5 8.87073e-05 5.35408e-05 4.64592e-05 5.35408e-05 -5.7735e-10 5.7735e-10 -5.7735e-10 0 0 0 
15 1 0.000127841 4.17894e-05 5.82119e-05 4.17888e-05 5.77426e-10 -5.7727e-10 5.77355e-10 0.00409782 -0.00409671 0.00409731 
16 4 5.86993e-05 4.89435e-05 5.28999e-05 3.15278e-05 5.3786e-10 7.32577e-10 4.17178e-10 0 0 0 
17 4 7.38163e-05 3.7357e-05 3.70547e-05 6.22212e-05 1.50824e-11 9.14018e-10 4.05393e-10 0 0 0 
18 4 6.5519e-05 6.59783e-05 5.46223e-05 3.32725e-05 7.54097e-10 1.26132e-11 6.56642e-10 0 0 0 
19 4 8.1858e-05 4.11029e-05 4.1051e-05 5.82547e-05 -5.60292e-10 -5.84532e-11 -8.2623e-10 0 0 0 
ITEM: TIMESTEP
2500
ITEM: NUMBER OF ATOMS
22
ITEM: BOX BOUNDS ff ff ff
0 0.0001
0 0.0001
0 0.0001
ITEM: ATOMS id type diameter x y z vx vy vz fx fy fz 
13 4 2.86706e-05 3.02781e-05 4.38451e-05 2.46201e-05 9.73295e-10 -1.84736e-10 1.36269e-10 0 0 0 
16 4 5.85071e-05 5.16328e-05 5.65628e-05 3.36137e-05 5.3786e-10 7.32577e-10 4.17178e-10 0 0 0 
18 4 6.53045e-05 6.42048e-05 5.46229e-05 3.3305e-05 -9.41316e-10 -6.48226e-12 -3.37465e-10 0 0 0 
8 4 5.03392e-06 3.76229e-05 6.46367e-05 3.26603e-05 -5.53865e-10 6.62848e-10 -5.03851e-10 0 0 0 
4 4 1.03676e-06 3.95565e-05 6.13282e-05 3.31379e-05 -5.52537e-10 6.09126e-10 -5.68918e-10 0 0 0 
2 2 1.22933e-06 5.3609e-05 3.29939e-05 3.39483e-05 2.77798e-10 -4.90014e-10 -8.26265e-10 0 0 0 
7 5 1.43074e-05 5.30302e-05 3.56745e-05 4.25293e-05 1.65222e-10 -8.5777e-10 -4.86757e-10 0 0 0 
22 1 0.000123404 4.87434e-05 5.20575e-05 4.82709e-05 5.66547e-10 7.00466e-10 4.34019e-10 0.0126616 0.0156545 0.00969978 
20 1 0.000105547 4.70469e-05 4.90707e-05 4.70843e-05 -4.49652e-10 -8.41127e-10 -3.00531e-10 -0.00934377 -0.0174786 -0.00624503 
21 1 0.000117052 5.08897e-05 4.98937e-05 4.94494e-05 -6.06494e-10 5.38166e-10 5.85271e-10 -0.00179783 0.00159529 0.00173492 
1 1 0.000114186 4.87851e-05 4.99955e-05 5.08695e-05 6.06663e-10 5.22606e-10 -5.99036e-10 0.0016831 0.0014499 -0.00166194 
10 2 1.27465e-06 5.15719e-05 3.90269e-05 4.70078e-05 5.06476e-10 -5.8826e-10 -6.30422e-10 0 0 0 
14 5 8.87073e-05 5.26839e-05 4.68664e-05 5.28133e-05 -4.05389e-10 -6.30516e-10 -6.61899e-10 0 0 0 
3 3 1.23001e-06 3.52984e-05 3.681e-05 5.72307e-05 -7.33555e-10 -4.69856e-10 4.91053e-10 0 0 0 
11 1 9.88162e-05 5.40602e-05 4.9233e-05 5.51111e-05 -6.20545e-10 1.5803e-11 -7.84012e-10 -0.000656935 1.67297e-05 -0.000829988 
19 4 8.159e-05 4.11181e-05 4.10469e-05 5.61537e-05 -2.80403e-10 -2.12697e-11 -9.59647e-10 0 0 0 
15 1 0.000133415 5.51636e-05 4.48374e-05 5.51632e-05 -5.77284e-10 5.7742e-10 -5.77347e-10 -0.00437402 0.00437505 -0.00437449 
6 4 8.95363e-07 4.59852e-05 7.34905e-05 6.24981e-05 -1.65222e-10 8.5777e-10 4.86757e-10 0 0 0 
17 4 7.35746e-05 3.73578e-05 3.71026e-05 6.13719e-05 -1.24534e-11 -7.54696e-10 -6.55957e-10 0 0 0 
9 4 5.4553e-06 5.22324e-05 5.92964e-05 6.76931e-05 9.64588e-11 6.60452e-10 7.44647e-10 0 0 0 
5 5 1.4839e-06 5e-05 4.90489e-05 7.59819e-05 0 -3.81391e-11 9.99272e-10 0 0 0 
12 4 2.92477e-05 7.02966e-05 4.8802e-05 8.13734e-05 -9.97645e-10 5.5201e-11 -4.07185e-11 0 0 0 
ITEM: TIMESTEP
3000
ITEM: NUMBER OF ATOMS
28
ITEM: BOX BOUNDS ff ff ff
0 0.0001
0 0.0001
0 0.0001
ITEM: ATOMS id type diameter x y z vx vy vz fx fy fz 
13 4 2.85768e-05 3.51446e-05 4.29214e-05 2.53014e-05 9.73295e-10 -1.84736e-10 1.36269e-10 0 0 0 
16 4 5.83156e-05 5.43221e-05 6.02257e-05 3.56995e-05 5.3786e-10 7.32577e-10 4.17178e-10 0 0 0 
18 4 6.50907e-05 6.46941e-05 5.46263e-05 3.42317e-05 8.32031e-10 5.72968e-12 5.547e-10 0 0 0 
8 4 5.01744e-06 3.48536e-05 6.79509e-05 3.0141e-05 -5.53865e-10 6.62848e-10 -5.03851e-10 0 0 0 
4 4 1.03337e-06 3.67938e-05 6.43739e-05 3.02933e-05 -5.52537e-10 6.09126e-10 -5.68918e-10 0 0 0 
2 2 1.28004e-06 5.4998e-05 3.05438e-05 2.9817e-05 2.77798e-10 -4.90014e-10 -8.26265e-10 0 0 0 
7 5 1.43074e-05 5.38563e-05 3.13856e-05 4.00956e-05 1.65222e-10 -8.5777e-10 -4.86757e-10 0 0 0 
22 1 0.000124969 5.17788e-05 5.23342e-05 4.77474e-05 -6.20611e-10 -5.61019e-10 5.47813e-10 -0.0030303 -0.00273933 0.00267484 
20 1 0.000101197 5.5439e-05 5.5439e-05 4.4561e-05 -5.7735e-10 -5.7735e-10 5.7735e-10 -0.000956757 -0.000956757 0.000956757 
21 1 0.000123711 5.26716e-05 4.99614e-05 5.17862e-05 -2.79066e-10 3.42611e-10 -8.97073e-10 -0.0116977 0.0143613 -0.0376029 
1 1 0.000110188 5.01426e-05 4.70153e-05 5.25791e-05 9.60228e-10 1.27149e-10 -2.48586e-10 0.0200309 0.0026524 -0.00518565 
10 2 1.32724e-06 5.41043e-05 3.60856e-05 4.38557e-05 5.06476e-10 -5.8826e-10 -6.30422e-10 0 0 0 
14 5 8.87073e-05 5.34836e-05 4.44367e-05 5.19133e-05 1.45816e-11 -7.66519e-10 -6.42056e-10 0 0 0 
3 3 1.27979e-06 3.16306e-05 3.44607e-05 5.9686e-05 -7.33555e-10 -4.69856e-10 4.91053e-10 0 0 0 
11 1 0.000101986 5.32988e-05 5.06634e-05 5.47988e-05 1.71664e-10 2.19452e-10 9.60402e-10 0.00354801 0.00453569 0.0198499 
19 4 8.13229e-05 4.28227e-05 4.10882e-05 5.80198e-05 5.547e-10 1.84371e-11 8.31846e-10 0 0 0 
15 1 0.000141336 5.66851e-05 5.66848e-05 5.66847e-05 -5.7732e-10 -5.77359e-10 -5.77371e-10 -0.00514059 -0.00514093 -0.00514104 
6 4 8.92431e-07 4.51591e-05 7.77794e-05 6.49319e-05 -1.65222e-10 8.5777e-10 4.86757e-10 0 0 0 
17 4 7.33337e-05 3.73774e-05 4.11351e-05 6.24035e-05 5.49671e-12 9.57153e-10 2.89529e-10 0 0 0 
9 4 5.43744e-06 5.27147e-05 6.25987e-05 7.14164e-05 9.64588e-11 6.60452e-10 7.44647e-10 0 0 0 
5 5 1.4839e-06 5e-05 4.88582e-05 8.09782e-05 0 -3.81391e-11 9.99272e-10 0 0 0 
12 4 2.91519e-05 6.53084e-05 4.9078e-05 8.11698e-05 -9.97645e-10 5.5201e-11 -4.07185e-11 0 0 0 
23 1 0.000122356 4.76352e-05 4.9589e-05 5.08572e-05 -7.65298e-10 -4.8569e-11 6.41842e-10 -0.0150217 -0.00095334 0.0125984 
24 1 0.000109997 4.69455e-05 4.68429e-05 5.31567e-05 -9.93177e-10 2.101e-11 1.14705e-10 -0.0194804 0.000412094 0.00224984 
25 1 0.000110123 5.34668e-05 4.68865e-05 5.42651e-05 1.42087e-10 -7.85428e-10 6.02424e-10 0.00283882 -0.0156925 0.0120361 
26 1 0.000118394 5.0082e-05 5.0018e-05 4.8809e-05 7.79147e-10 6.52389e-11 -6.23437e-10 0.0159448 0.00133507 -0.0127583 
27 1 9.58959e-05 5.39632e-05 4.7987e-05 4.37383e-05 -4.23589e-10 -2.25996e-22 9.05855e-10 -0.000368059 -1.96369e-16 0.000787103 
28 1 0.000125096 4.76589e-05 5.21111e-05 4.80616e-05 5.90592e-10 -5.76047e-10 5.65129e-10 0.00293503 -0.00286274 0.00280849 
ITEM: TIMESTEP
3500
ITEM: NUMBER OF ATOMS
40
ITEM: BOX BOUNDS ff ff ff
0 0.0001
0 0.0001
0 0.0001
ITEM: ATOMS id type diameter x y z vx vy vz fx fy fz 
13 4 2.84832e-05 4.0011e-05 4.19977e-05 2.59827e-05 9.73295e-10 -1.84736e-10 1.36269e-10 0 0 0 
2 2 1.33121e-06 5.6387e-05 2.80938e-05 2.56857e-05 2.77798e-10 -4.90014e-10 -8.26265e-10 0 0 0 
4 4 1.02998e-06 3.40311e-05 6.74195e-05 2.74487e-05 -5.52537e-10 6.09126e-10 -5.68918e-10 0 0 0 
8 4 5.00101e-06 3.20842e-05 7.12652e-05 2.76218e-05 -5.53865e-10 6.62848e-10 -5.03851e-10 0 0 0 
18 4 6.48776e-05 6.60548e-05 5.46397e-05 3.55332e-05 -9.28595e-10 -3.83296e-12 -3.71075e-10 0 0 0 
16 4 5.81246e-05 5.70114e-05 6.38885e-05 3.77854e-05 5.3786e-10 7.32577e-10 4.17178e-10 0 0 0 
7 5 1.43074e-05 5.46824e-05 2.70968e-05 3.76618e-05 1.65222e-10 -8.5777e-10 -4.86757e-10 0 0 0 
39 1 9.81279e-05 4.12813e-05 5.87187e-05 4.12813e-05 5.7735e-10 -5.7735e-10 5.7735e-10 0.00144106 -0.00144106 0.00144106 
33 1 9.49796e-05 4.2656e-05 5.01987e-05 4.33075e-05 7.43588e-10 0 6.68638e-10 0.000837331 0 0.000752933 
15 1 0.000139138 5.48572e-05 4.56244e-05 4.56243e-05 -5.34005e-10 5.97852e-10 5.97839e-10 -0.00426302 0.00477272 0.00477262 
25 1 0.000105103 4.39502e-05 5.6049e-05 4.39234e-05 -5.38588e-10 5.35208e-10 -6.5075e-10 -0.009433 0.0093738 -0.0113974 
10 2 1.38029e-06 5.66366e-05 3.31443e-05 4.07036e-05 5.06476e-10 -5.8826e-10 -6.30422e-10 0 0 0 
20 1 0.000107583 4.92689e-05 5.0762e-05 4.59479e-05 4.16755e-10 -4.57447e-10 7.8553e-10 0.000823704 -0.000904131 0.00155258 
24 1 0.000107665 4.66151e-05 5.33985e-05 4.70644e-05 5.49566e-10 -5.471e-10 6.31394e-10 0.0123015 -0.0122463 0.0141331 
26 1 0.000115528 4.60142e-05 4.59565e-05 4.58567e-05 -3.52558e-10 -6.69978e-10 -6.53324e-10 -0.00637707 -0.0121186 -0.0118173 
1 1 0.000116595 4.77483e-05 4.8817e-05 4.86642e-05 4.30485e-10 6.42414e-10 6.34024e-10 0.0110077 0.0164269 0.0162123 
28 1 0.000124578 5.1204e-05 5.1985e-05 4.90437e-05 -5.82169e-10 -6.10467e-10 5.37038e-10 -0.00271964 -0.00285184 0.00250881 
38 1 0.000121272 5.09939e-05 4.89736e-05 4.8656e-05 1.78872e-10 8.50804e-10 -4.94102e-10 0.00414272 0.0197049 -0.0114435 
31 1 0.000120862 4.88576e-05 5.11748e-05 4.93832e-05 5.87754e-10 -5.86749e-10 5.57019e-10 0.00239351 -0.00238942 0.00226835 
23 1 0.000117886 4.99338e-05 4.61716e-05 5.09181e-05 -6.64406e-10 -7.3047e-10 1.58048e-10 -0.0233375 -0.025658 0.00555148 
29 1 0.000118576 5.09836e-05 5.09447e-05 5.11755e-05 -7.22781e-10 -2.4574e-11 -6.9064e-10 -0.0178094 -0.000605507 -0.0170175 
14 5 8.87073e-05 5.37774e-05 4.43787e-05 5.29157e-05 1.95395e-10 -9.77376e-10 -8.09764e-11 0 0 0 
40 1 0.000125769 4.6986e-05 4.97779e-05 5.20741e-05 -3.06726e-10 -9.4143e-10 -1.40103e-10 -0.00655463 -0.0201181 -0.00299395 
35 1 0.000126668 4.70542e-05 4.70027e-05 5.29156e-05 5.77017e-10 5.79675e-10 -5.75351e-10 0.00333489 0.00335025 -0.00332526 
21 1 0.000126586 4.82362e-05 5.26364e-05 5.20717e-05 5.5603e-10 8.20137e-10 -1.3493e-10 0.0128446 0.0189456 -0.00311695 
37 1 0.000114852 5.3012e-05 4.80208e-05 5.19923e-05 7.64498e-10 6.07969e-10 2.14281e-10 0.0163034 0.0129653 0.00456968 
36 1 0.000112369 5.3138e-05 4.78407e-05 5.40247e-05 -5.75767e-10 4.95114e-10 -6.50657e-10 -0.00179233 0.00154127 -0.00202547 
22 1 0.000130912 5.25832e-05 5.35421e-05 5.24201e-05 -5.8024e-10 -5.6412e-10 -5.87444e-10 -0.00362131 -0.0035207 -0.00366627 
11 1 0.000108259 5.41363e-05 5.06673e-05 5.41592e-05 7.23583e-10 -1.1758e-10 6.80149e-10 0.0142355 -0.00231323 0.013381 
27 1 9.36833e-05 5.86097e-05 4.13903e-05 5.54478e-05 -6.67303e-10 6.67303e-10 -3.30777e-10 -0.000869959 0.000869959 -0.000431232 
32 1 0.000103095 5.55905e-05 5.55452e-05 5.53721e-05 -5.81063e-10 -5.74027e-10 -5.76939e-10 -0.00117632 -0.00116207 -0.00116797 
19 4 8.10567e-05 4.15121e-05 4.10447e-05 5.68633e-05 -6.60807e-10 -2.19639e-11 -7.50234e-10 0 0 0 
34 1 0.000143643 4.36148e-05 5.6386e-05 5.6386e-05 5.77427e-10 -5.77312e-10 -5.77312e-10 0.00531272 -0.00531166 -0.00531166 
3 3 1.32971e-06 2.79628e-05 3.21114e-05 6.21412e-05 -7.33555e-10 -4.69856e-10 4.91053e-10 0 0 0 
30 1 9.40339e-05 5.87456e-05 5.80299e-05 5.87456e-05 -5.87042e-10 -5.57462e-10 -5.87042e-10 -0.000880706 -0.00083633 -0.000880706 
17 4 7.30936e-05 3.73902e-05 4.33554e-05 6.24595e-05 -4.39117e-12 -7.64643e-10 -6.44439e-10 0 0 0 
6 4 8.8951e-07 4.4333e-05 8.20682e-05 6.73657e-05 -1.65222e-10 8.5777e-10 4.86757e-10 0 0 0 
9 4 5.41964e-06 5.3197e-05 6.59009e-05 7.51396e-05 9.64588e-11 6.60452e-10 7.44647e-10 0 0 0 
5 5 1.4839e-06 5e-05 4.86675e-05 8.59746e-05 0 -3.81391e-11 9.99272e-10 0 0 0 
12 4 2.90565e-05 6.03202e-05 4.9354e-05 8.09662e-05 -9.97645e-10 5.5201e-11 -4.07185e-11 0 0 0 
ITEM: TIMESTEP
4000
ITEM: NUMBER OF ATOMS
65
ITEM: BOX BOUNDS ff ff ff
0 0.0001
0 0.0001
0 0.0001
ITEM: ATOMS id type diameter x y z vx vy vz fx fy fz 
13 4 2.839e-05 4.48775e-05 4.10741e-05 2.66641e-05 9.73295e-10 -1.84736e-10 1.36269e-10 0 0 0 
2 2 1.38104e-06 5.7776e-05 2.56437e-05 2.15543e-05 2.77798e-10 -4.90014e-10 -8.26265e-10 0 0 0 
4 4 1.02661e-06 3.12684e-05 7.04651e-05 2.46041e-05 -5.52537e-10 6.09126e-10 -5.68918e-10 0 0 0 
8 4 4.98464e-06 2.93149e-05 7.45794e-05 2.51025e-05 -5.53865e-10 6.62848e-10 -5.03851e-10 0 0 0 
18 4 6.46652e-05 6.14119e-05 5.46206e-05 3.36778e-05 -9.28595e-10 -3.83296e-12 -3.71075e-10 0 0 0 
16 4 5.79343e-05 5.97007e-05 6.75514e-05 3.98713e-05 5.3786e-10 7.32577e-10 4.17178e-10 0 0 0 
7 5 1.43074e-05 5.55085e-05 2.28079e-05 3.5228e-05 1.65222e-10 -8.5777e-10 -4.86757e-10 0 0 0 
39 1 9.41837e-05 3.96107e-05 5.92506e-05 5.92506e-05 6.86625e-10 -5.14075e-10 -5.14075e-10 0.00134577 -0.00100757 -0.00100757 
33 1 9.52035e-05 4.17647e-05 4.83038e-05 5.82353e-05 7.07107e-10 -4.90136e-24 -7.07107e-10 0.000983563 -6.81764e-18 -0.000983563 
15 1 0.000139829 4.4828e-05 4.40667e-05 4.40204e-05 6.06182e-10 5.61576e-10 5.63183e-10 0.00544199 0.00504155 0.00505598 
25 1 0.000104586 4.43841e-05 5.67821e-05 5.68053e-05 5.14628e-10 -6.0501e-10 -6.07553e-10 0.00147229 -0.00173086 -0.00173813 
10 2 1.10017e-06 5.50331e-05 3.03192e-05 4.40361e-05 -3.97667e-10 -5.00083e-10 7.69271e-10 0 0 0 
20 1 0.000113758 4.98863e-05 5.0154e-05 5.47217e-05 3.47852e-10 6.31554e-10 6.92921e-10 0.00712247 0.0129314 0.0141879 
24 1 0.000113517 5.23525e-05 5.47728e-05 5.41079e-05 4.2402e-10 5.30133e-10 7.34279e-10 0.00798164 0.00997908 0.0138219 
26 1 0.000112016 5.38036e-05 4.81417e-05 5.40622e-05 6.70636e-10 -1.97421e-10 7.15033e-10 0.0132595 -0.00390333 0.0141373 
1 1 0.000123434 5.01404e-05 5.21424e-05 4.8823e-05 1.78076e-10 6.19652e-10 -7.64409e-10 0.00988599 0.0344004 -0.0424367 
28 1 0.000120801 5.18058e-05 4.88366e-05 5.19402e-05 -5.58632e-10 -7.998e-10 2.19662e-10 -0.0186943 -0.0267649 0.00735087 
38 1 0.000114211 5.00229e-05 4.63251e-05 4.59164e-05 -7.96827e-11 -6.38684e-10 -7.65332e-10 -0.00159036 -0.0127473 -0.015275 
31 1 0.000127282 4.74456e-05 5.30236e-05 4.99207e-05 -3.45657e-11 -6.27977e-10 -7.77464e-10 -0.000840536 -0.0152706 -0.0189057 
23 1 0.000116388 4.74902e-05 4.62016e-05 4.68749e-05 -6.08667e-10 -6.34663e-10 -4.76158e-10 -0.0117007 -0.0122005 -0.00915343 
29 1 0.000117372 5.30824e-05 5.12276e-05 5.39812e-05 -5.96027e-10 -4.52301e-10 -6.63457e-10 -0.00242626 -0.00184119 -0.00270075 
14 5 8.87073e-05 5.39999e-05 4.43354e-05 5.28077e-05 -7.2015e-10 5.547e-10 4.16764e-10 -4.72692e-06 3.64094e-06 2.73555e-06 
40 1 0.000119866 4.8919e-05 4.77729e-05 5.19662e-05 4.94171e-10 -1.34776e-10 -8.58854e-10 0.0170939 -0.00466204 -0.0297086 
35 1 0.000132163 4.80531e-05 5.47024e-05 5.30582e-05 -3.07022e-10 5.54964e-10 7.73144e-10 -0.0109451 0.0197841 0.0275621 
21 1 0.000118572 4.79585e-05 5.29918e-05 4.70918e-05 -3.03138e-10 5.72749e-10 7.61621e-10 -0.0061902 0.0116958 0.0155526 
37 1 0.000117512 5.0865e-05 5.28593e-05 5.16329e-05 5.04425e-10 -8.36931e-10 -2.12372e-10 0.0129115 -0.0214225 -0.00543597 
36 1 0.000112339 5.52061e-05 4.66823e-05 4.66268e-05 -6.7386e-10 5.19907e-10 5.24985e-10 -0.00233036 0.00179796 0.00181552 
22 1 0.000137046 5.54084e-05 5.39145e-05 5.2833e-05 -6.42646e-10 -5.39726e-10 -5.43785e-10 -0.00475736 -0.00399547 -0.00402551 
11 1 0.000112234 5.28048e-05 4.40286e-05 4.41118e-05 -9.75286e-10 1.45171e-10 1.66563e-10 -0.0224718 0.00334493 0.00383783 
27 1 9.6632e-05 5.88465e-05 4.11535e-05 4.11535e-05 -5.7735e-10 5.7735e-10 5.7735e-10 -0.00120553 0.00120553 0.00120553 
32 1 0.00010787 4.5346e-05 4.89586e-05 4.5112e-05 2.68537e-10 -9.32798e-10 -2.40366e-10 0.00535987 -0.0186182 -0.00479759 
19 4 8.07913e-05 4.36985e-05 4.1046e-05 5.691e-05 9.35264e-10 1.03578e-11 3.538e-10 0 0 0 
34 1 0.000137233 5.42065e-05 4.53341e-05 5.49694e-05 -5.88004e-10 6.06195e-10 -5.35518e-10 -0.00470618 0.00485177 -0.00428609 
3 3 1.37744e-06 2.4295e-05 2.97621e-05 6.45965e-05 -7.33555e-10 -4.69856e-10 4.91053e-10 0 0 0 
30 1 8.96828e-05 4.07267e-05 5.75351e-05 4.8014e-05 8.572e-10 -5.14983e-10 7.42443e-258 0.000747232 -0.000448918 6.47197e-252 
17 4 7.28543e-05 3.73682e-05 3.95322e-05 5.92373e-05 -4.39117e-12 -7.64643e-10 -6.44439e-10 0 0 0 
6 4 8.86597e-07 4.35069e-05 8.63571e-05 6.97995e-05 -1.65222e-10 8.5777e-10 4.86757e-10 0 0 0 
9 4 5.4019e-06 5.36793e-05 6.92032e-05 7.88628e-05 9.64588e-11 6.60452e-10 7.44647e-10 0 0 0 
5 5 1.4839e-06 5e-05 4.84768e-05 9.0971e-05 0 -3.81391e-11 9.99272e-10 0 0 0 
12 4 2.89613e-05 5.53319e-05 4.963e-05 8.07626e-05 -9.97645e-10 5.5201e-11 -4.07185e-11 0 0 0 
41 1 0.000101818 5.6197e-05 4.38989e-05 4.38969e-05 9.99778e-10 1.99648e-11 -6.66558e-12 0.0194593 0.000388587 -0.000129736 
42 1 9.47965e-05 4.78879e-05 5.21116e-05 4.18872e-05 -1.35286e-12 1.86097e-12 9.99997e-10 -1.49113e-06 2.05118e-06 0.00110221 
43 1 0.000138501 5.71794e-05 5.60357e-05 5.57568e-05 -6.07193e-10 -5.66762e-10 -5.56864e-10 -0.00537839 -0.00502026 -0.00493259 
44 1 0.00010566 4.55929e-05 5.49834e-05 4.41737e-05 5.0969e-10 -5.99494e-10 6.17109e-10 0.00132524 -0.00155874 0.00160454 
45 2 1.17072e-06 5.89223e-05 3.521e-05 3.65126e-05 3.97667e-10 5.00083e-10 -7.69271e-10 0 0 0 
46 1 0.000100657 4.96146e-05 5.02237e-05 4.45637e-05 4.21565e-10 -6.98594e-10 -5.78143e-10 0.00864816 -0.0143312 -0.0118603 
47 1 0.000101151 4.28596e-05 5.14511e-05 4.28728e-05 6.90797e-10 -2.17865e-10 6.89445e-10 0.00139787 -0.000440863 0.00139513 
48 1 0.000118886 4.79034e-05 5.00156e-05 4.74787e-05 -6.35407e-10 2.05965e-10 -7.44202e-10 -0.0292785 0.00949051 -0.0342916 
49 1 0.000108903 4.4757e-05 5.205e-05 4.61329e-05 -8.9702e-11 9.13293e-10 3.97303e-10 -0.00181223 0.0184511 0.00802664 
50 1 0.00012819 5.16937e-05 4.61198e-05 5.13353e-05 -5.40534e-10 6.60488e-10 -5.21132e-10 -0.00310274 0.00379129 -0.00299137 
51 1 0.000127643 5.30392e-05 4.88027e-05 4.88311e-05 -2.97414e-10 -9.2745e-10 -2.26675e-10 -0.00629486 -0.0196298 -0.00479765 
52 1 0.000113738 4.67072e-05 5.1746e-05 5.42902e-05 6.86973e-10 -7.21635e-10 8.5506e-11 0.0165678 -0.0174037 0.00206216 
53 1 0.000119397 5.34541e-05 5.21477e-05 4.99746e-05 2.30363e-10 9.72714e-10 -2.75704e-11 0.00910245 0.0384353 -0.0010894 
54 1 0.000119808 4.75522e-05 4.69715e-05 4.99748e-05 -4.22873e-10 -7.09193e-10 5.64113e-10 -0.0173463 -0.0290912 0.02314 
55 1 0.000131215 4.5931e-05 4.67464e-05 5.35104e-05 -9.09177e-10 -1.83036e-10 3.74025e-10 -0.0167246 -0.003367 0.00688031 
56 1 0.00012071 4.82195e-05 4.99083e-05 5.2023e-05 -4.0678e-10 -5.0818e-10 7.59133e-10 -0.00789455 -0.00986248 0.0147328 
57 1 0.000133746 5.30133e-05 5.25338e-05 4.69795e-05 -5.84839e-10 -5.61793e-10 5.85109e-10 -0.00381651 -0.00366611 0.00381827 
58 1 0.000112116 4.51078e-05 4.64737e-05 4.69152e-05 6.6988e-10 5.45336e-10 5.03855e-10 0.00224224 0.00182536 0.00168652 
59 1 0.000112448 4.45244e-05 5.4126e-05 5.36342e-05 -6.22973e-10 7.126e-10 -3.22654e-10 -0.0120815 0.0138196 -0.00625731 
60 1 0.000124207 5.0082e-05 4.89627e-05 4.90242e-05 6.65523e-10 5.27347e-10 5.2819e-10 0.0475218 0.0376554 0.0377155 
61 1 0.000104019 5.46273e-05 5.66574e-05 5.67996e-05 -4.79586e-10 -6.11861e-10 -6.28986e-10 -0.00125174 -0.00159698 -0.00164168 
62 1 9.05804e-05 4.22307e-05 6.15979e-05 6.15979e-05 2.69088e-10 -6.81026e-10 -6.81026e-10 0.000491396 -0.00124366 -0.00124366 
63 1 9.78816e-05 5.84666e-05 5.90863e-05 5.84566e-05 -5.50778e-10 -6.28312e-10 -5.49424e-10 -0.00127879 -0.00145881 -0.00127565 
64 1 0.000149586 4.20042e-05 5.79958e-05 4.20049e-05 5.77316e-10 -5.77316e-10 5.77418e-10 0.00622786 -0.00622786 0.00622896 
65 1 9.80539e-05 5.84368e-05 5.64427e-05 5.88222e-05 -6.10949e-10 -4.27715e-10 -6.66184e-10 -0.00133997 -0.000938091 -0.00146112 
ITEM: TIMESTEP
4500
ITEM: NUMBER OF ATOMS
115
ITEM: BOX BOUNDS ff ff ff
0 0.0001
0 0.0001
0 0.0001
ITEM: ATOMS id type diameter x y z vx vy vz fx fy fz 
66 2 1.07771e-06 5.5094e-05 2.49764e-05 1.71402e-05 -6.03521e-10 -6.36814e-11 -7.948e-10 0 0 0 
2 2 1.18121e-06 6.08995e-05 2.5589e-05 2.47856e-05 6.03521e-10 6.36814e-11 7.948e-10 0 0 0 
4 4 1.02325e-06 2.85057e-05 7.35107e-05 2.17596e-05 -5.52537e-10 6.09126e-10 -5.68918e-10 0 0 0 
8 4 4.96832e-06 2.65456e-05 7.78936e-05 2.25833e-05 -5.53865e-10 6.62848e-10 -5.03851e-10 0 0 0 
13 4 2.8297e-05 4.9744e-05 4.01504e-05 2.73454e-05 9.73295e-10 -1.84736e-10 1.36269e-10 0 0 0 
18 4 6.44535e-05 5.87778e-05 5.46097e-05 3.29103e-05 8.18267e-10 3.37756e-12 5.74828e-10 0 0 0 
7 5 1.43074e-05 5.63347e-05 1.85191e-05 3.27942e-05 1.65222e-10 -8.5777e-10 -4.86757e-10 0 0 0 
112 1 8.94336e-05 4.9339e-05 4.81203e-05 4.06347e-05 -1.10118e-156 2.78694e-156 1e-09 -8.99031e-151 2.27533e-150 0.000816426 
45 2 1.20885e-06 6.09106e-05 3.77104e-05 3.26663e-05 3.97667e-10 5.00083e-10 -7.69271e-10 0 0 0 
91 1 9.30396e-05 5.11226e-05 5.92655e-05 4.07345e-05 -1.08346e-182 -7.07107e-10 7.07107e-10 -1.4819e-176 -0.000967146 0.000967146 
87 1 9.46745e-05 5.86635e-05 4.39642e-05 4.13365e-05 -6.41559e-10 4.20482e-10 6.41559e-10 -0.00094219 0.000617518 0.00094219 
65 1 9.62835e-05 4.87966e-05 5.80968e-05 4.18328e-05 -1.37991e-13 -7.06101e-10 7.08111e-10 -2.14044e-07 -0.00109527 0.00109839 
46 1 9.59927e-05 4.10267e-05 5.88922e-05 4.10267e-05 5.81729e-10 -5.68496e-10 5.81725e-10 0.0011198 -0.00109432 0.00111979 
93 1 9.562e-05 4.59733e-05 5.8593e-05 4.10642e-05 1.94585e-10 -6.6023e-10 7.25419e-10 0.000321549 -0.00109102 0.00119874 
113 1 9.74945e-05 5.75079e-05 4.62948e-05 4.24921e-05 -6.72496e-10 3.09026e-10 6.72496e-10 -0.00101303 0.000465506 0.00101303 
16 4 5.77447e-05 6.22466e-05 7.10598e-05 4.1846e-05 -6.57466e-10 -5.547e-10 -5.09947e-10 0 0 0 
95 1 9.91098e-05 4.68841e-05 4.40021e-05 4.34294e-05 3.28784e-10 6.43161e-10 6.91553e-10 0.00050435 0.0009866 0.00106083 
33 1 0.000101145 5.51868e-05 4.96133e-05 4.29397e-05 5.29287e-10 -3.99013e-10 -7.48762e-10 0.0108134 -0.00815193 -0.0152974 
43 1 0.00014606 4.11162e-05 4.14534e-05 4.148e-05 5.75204e-10 5.77343e-10 5.79496e-10 0.00628317 0.00630654 0.00633005 
41 1 0.000102212 5.48166e-05 4.41534e-05 4.41534e-05 -5.47174e-10 5.91862e-10 5.91862e-10 -0.00101223 0.00109489 0.00109489 
34 1 0.000145145 5.83712e-05 5.89472e-05 4.16327e-05 -5.73014e-10 -5.58978e-10 5.99332e-10 -0.00630539 -0.00615094 0.00659499 
49 1 0.000104027 4.21179e-05 5.53868e-05 4.21181e-05 6.4108e-10 -4.21971e-10 6.41059e-10 0.00192203 -0.00126511 0.00192196 
64 1 0.000143848 5.64233e-05 5.58454e-05 4.37417e-05 -6.32305e-10 -5.40638e-10 5.54888e-10 -0.00581303 -0.00497031 0.00510131 
11 1 0.000104234 5.09826e-05 4.38477e-05 4.38525e-05 -1.63038e-10 -6.34326e-10 -7.55678e-10 -0.00335347 -0.0130472 -0.0155433 
97 1 0.000104537 4.48715e-05 5.23909e-05 4.47207e-05 -8.55888e-10 -1.94847e-10 -4.79051e-10 -0.0168821 -0.00384328 -0.0094491 
73 1 0.000105171 4.34756e-05 5.83656e-05 4.4132e-05 5.34887e-10 -7.01954e-10 4.70273e-10 0.00170782 -0.00224124 0.00150151 
20 1 0.000105636 4.51365e-05 5.5084e-05 4.519e-05 5.71166e-10 -5.96628e-10 5.63741e-10 0.00129563 -0.00135338 0.00127878 
81 1 0.000140011 4.41063e-05 4.33005e-05 4.32894e-05 5.58696e-10 5.86278e-10 5.86631e-10 0.00510965 0.00536191 0.00536514 
67 1 9.13172e-05 4.00301e-05 5.99699e-05 4.3906e-05 6.83706e-10 -6.83706e-10 2.55134e-10 0.00089974 -0.00089974 0.00033575 
10 2 1.136e-06 5.30448e-05 2.78188e-05 4.78824e-05 -3.97667e-10 -5.00083e-10 7.69271e-10 0 0 0 
61 1 0.000109987 4.84587e-05 5.5716e-05 4.43005e-05 4.22164e-10 -6.41822e-10 6.40189e-10 0.00139355 -0.00211863 0.00211324 
32 1 0.000109658 5.38933e-05 5.69693e-05 4.3499e-05 3.63756e-10 6.36091e-10 -6.80493e-10 0.0128177 0.022414 -0.0239786 
84 1 0.000111148 5.19984e-05 4.75635e-05 4.37938e-05 -2.70683e-10 1.99969e-10 -9.41671e-10 -0.0100082 0.00739365 -0.0348174 
76 1 0.000112378 4.43349e-05 4.57433e-05 4.60252e-05 -6.41998e-10 -5.6399e-10 -5.19378e-10 -0.0124521 -0.0109391 -0.0100738 
101 1 0.000135157 5.68086e-05 5.30117e-05 4.61553e-05 -6.65287e-10 -5.10599e-10 5.44685e-10 -0.00513527 -0.00394126 0.00420436 
104 1 0.000112935 4.78724e-05 4.58232e-05 4.62305e-05 4.96698e-10 -8.33723e-10 -2.41242e-10 0.0200036 -0.0335766 -0.00971556 
69 1 0.000133436 5.49944e-05 4.53025e-05 4.71889e-05 -6.11493e-10 5.98553e-10 5.17504e-10 -0.00447313 0.00437847 0.00378559 
106 1 0.000116424 5.09824e-05 5.46896e-05 4.49953e-05 -9.02731e-10 -4.24022e-10 7.26815e-11 -0.0387176 -0.018186 0.00311726 
78 1 0.000116937 4.8002e-05 5.29095e-05 4.65737e-05 8.37142e-10 3.14391e-11 5.46081e-10 0.0202701 0.00076125 0.0132225 
108 1 0.00011682 4.4815e-05 5.28289e-05 4.71099e-05 -5.2444e-10 -3.1413e-10 -7.91382e-10 -0.0109553 -0.00656205 -0.0165317 
83 1 0.000117285 5.41261e-05 5.51363e-05 4.61725e-05 5.3829e-10 -3.36296e-10 7.72754e-10 0.0199465 -0.0124616 0.0286347 
80 1 0.000118404 4.60941e-05 4.85901e-05 4.57847e-05 -4.6416e-10 6.69031e-10 -5.80477e-10 -0.01769 0.0254981 -0.0221231 
50 1 0.000129071 5.14028e-05 4.60702e-05 4.64552e-05 -4.9627e-10 -1.75161e-10 8.50314e-10 -0.0230528 -0.00813657 0.0394988 
22 1 0.000129034 5.54207e-05 5.29003e-05 4.88665e-05 8.12729e-10 -9.25162e-11 -5.7525e-10 0.0309924 -0.00352799 -0.0219364 
105 1 0.000129551 5.2961e-05 5.11533e-05 4.60551e-05 -6.37072e-10 6.64955e-10 3.89839e-10 -0.0256283 0.02675 0.0156826 
109 1 0.000118625 5.48595e-05 4.95183e-05 4.90612e-05 8.81041e-10 2.72553e-10 3.86628e-10 0.034777 0.0107584 0.0152612 
24 1 0.000119009 5.42117e-05 4.8466e-05 4.66852e-05 9.60452e-10 -2.20462e-10 1.70083e-10 0.032808 -0.00753074 0.00580985 
102 1 0.000120134 5.19354e-05 4.68843e-05 4.90427e-05 -3.47492e-10 -9.24878e-10 1.54431e-10 -0.0132667 -0.0353103 0.00589592 
51 1 0.00011915 5.09163e-05 5.38942e-05 4.73152e-05 4.79536e-10 2.92665e-10 -8.2728e-10 0.00960816 0.00586393 -0.0165757 
75 1 0.000119775 5.29839e-05 5.15051e-05 4.99793e-05 -8.98066e-10 6.16109e-11 4.35524e-10 -0.0374131 0.00256669 0.0181438 
57 1 0.00012724 4.70149e-05 4.80719e-05 4.81826e-05 3.2861e-10 4.56756e-10 8.26673e-10 0.0205631 0.0285819 0.0517298 
54 1 0.000125993 4.91617e-05 4.61696e-05 4.91738e-05 5.24373e-10 7.05814e-10 4.76298e-10 0.00288305 0.00388062 0.00261872 