  Granular Flow Simulation 

       9 atoms 
       1 atom types 
       5 nutrients

   0.000000e-04   2.000000e-05  xlo xhi 
   0.000000e-04   2.000000e-05  ylo yhi 
   0.000000e-04   6.000000e-04  zlo zhi

 Atoms

     1 1 2.0e-6 15 0.5e-5 0.5e-5 1e-6 2.0e-6
     2 1 2.0e-6 15 1.0e-5 0.5e-5 1e-6 2.0e-6
     3 1 2.0e-6 15 1.5e-5 0.5e-5 1e-6 2.0e-6
     4 1 2.0e-6 15 0.5e-5 1.0e-5 1e-6 2.0e-6
     5 1 2.0e-6 15 1.0e-5 1.0e-5 1e-6 2.0e-6
     6 1 2.0e-6 15 1.5e-5 1.0e-5 1e-6 2.0e-6
     7 1 2.0e-6 15 0.5e-5 1.5e-5 1e-6 2.0e-6
     8 1 2.0e-6 15 1.0e-5 1.5e-5 1e-6 2.0e-6
     9 1 2.0e-6 15 1.5e-5 1.5e-5 1e-6 2.0e-6

 Nutrients

     1 sub l 0.03 0.03 0.03 0.03 0.03 0.03 0.03
     2 o2 l 0.01 0.01 0.01 0.01 0.01 0.01 0.01
     3 no2 l 1e-4 1e-4 1e-4 1e-4 1e-4 1e-4 1e-4
     4 no3 l 1e-4 1e-4 1e-4 1e-4 1e-4 1e-4 1e-4
     5 nh4 l 1e-4 1e-4 1e-4 1e-4 1e-4 1e-4 1e-4

 Diffusion Coeffs
    
     sub 1e-9
     o2 2.3e-9
     no2 0
     no3 0
     nh4 0

 Type Name

     1 het

 Ks
     
     het 4e-3 2e-4 0 0 0

Growth Rate

     het 0.000069444

 Yield
    
     het 0.63

 Maintenance
 
     het 0

 Decay

     het 0.00000463


