LAMMPS (5 Nov 2016)
# NUFEB simulation

atom_style	bio
atom_modify	map array sort 1000 5.0e-7
boundary	pp pp ff
newton		off
processors  * * 1

comm_modify	vel yes

read_data_bio atom.in
  orthogonal box = (0 0 0) to (2e-05 2e-05 4e-05)
  2 by 2 by 1 MPI processor grid
  reading atoms ...
  9 atoms
  5 nutrients

group HET type 1
9 atoms in group HET

neighbor	5e-7 bin
neigh_modify	delay 0 one 2000

##############Define DEM Variables&Commands##############

pair_style  gran/hooke/history 1.e-4 NULL 1.e-5 NULL 0.0 1
pair_coeff  * *

timestep 300

variable kanc equal 50

fix 1 all nve/limit 1e-8
fix fv all viscous 1e-5

fix zw all wall/gran hooke/history 2000 NULL 500.0 NULL 1.5 0 zplane  0.0   4e-05
fix zwa all walladh v_kanc zplane  0.0   4e-05

##############Define IBm Variables##############

#EPS density, ratio variables and division diameter
variable EPSdens equal 30
variable EPSratio equal 1.25
variable divDia equal 2e-6

#kinetics variables
variable etaHET equal 0.0
variable diffT equal 1e-4
variable tol equal 1e-7
variable layer equal 0

##############Define IBm Commands##############

fix k1 all kinetics 1 15 15 30 v_diffT v_layer demflag 0
fix kgm all kinetics/growth/monod v_EPSdens v_etaHET
fix g1 all kinetics/diffusion v_tol pp pp nd kg bulk 2.31e-7 1.25e-3 0.1
fix d1 all divide 1 v_EPSdens v_divDia 31231 demflag 0
fix vf1 all verify 1 bm1 3 demflag 0

##############Simulation Output##############

compute myPres all pressure thermo_temp
compute myHeight all ave_height 10 10

dump		id all custom 200000 snapshot.bubblemd id type diameter x y z
thermo_style    custom step cpu atoms biomass c_myPres c_myHeight
thermo		1000
thermo_modify	lost ignore

##############Two-loops Run##############

run 1000 pre no post no every 1 "fix_modify k1 demflag 1" "fix_modify vf1 demflag 1" "fix_modify d1 demflag 1" "timestep 1e-3" "run 10000 pre no post no" "timestep 300" "fix_modify k1 demflag 0" "fix_modify vf1 demflag 0" "fix_modify d1 demflag 0"
WARNING: EPS is not defined in fix_kinetics/kinetics/monod (../fix_bio_kinetics_monod.cpp:255)
Neighbor list info ...
  2 neighbor list requests
  update every 1 steps, delay 0 steps, check yes
  max neighbors/atom: 2000, page size: 100000
  master list distance cutoff = 2.5e-06
  ghost atom cutoff = 2.5e-06
  binsize = 1.25e-06 -> bins = 17 17 33
Memory usage per processor = 8.49683 Mbytes
Step CPU Atoms biomass c_myPres c_myHeight 
       0            0        9 6.0318579e-16            0      1.8e-07 
number of iteration: 133 
height = 2.993857e-07 
S-sub-bulk = 2.999655e-02
S-sub-base = 2.999958e-02
S-o2-bulk = 1.000000e-02
S-o2-base = 9.999928e-03

       1  0.087887049       18 6.1321841e-16 0.0022256019 2.9938573e-07 
Loop time of 0.0879078 on 4 procs for 1 steps with 18 atoms

99.0% CPU use with 4 MPI tasks x no OpenMP threads
fix_modify k1 demflag 1
fix_modify vf1 demflag 1
fix_modify d1 demflag 1
timestep 1e-3
run 10000 pre no post no
Step CPU Atoms biomass c_myPres c_myHeight 
       1            0       18 6.1321841e-16 0.0022256019 2.9938573e-07 
    1000 0.0087080002       18 6.1321841e-16 1.3052583e-05 3.0354372e-07 
    2000  0.017331839       18 6.1321841e-16 1.3052583e-05 3.0354372e-07 
    3000  0.023763895       18 6.1321841e-16 1.3052583e-05 3.0354372e-07 
    4000  0.030730009       18 6.1321841e-16 1.3052583e-05 3.0354372e-07 
    5000  0.035828829       18 6.1321841e-16 1.3052583e-05 3.0354372e-07 
    6000  0.040874958       18 6.1321841e-16 1.3052583e-05 3.0354372e-07 
    7000  0.045825958       18 6.1321841e-16 1.3052583e-05 3.0354372e-07 
    8000  0.050646067       18 6.1321841e-16 1.3052583e-05 3.0354372e-07 
    9000  0.055539846       18 6.1321841e-16 1.3052583e-05 3.0354372e-07 
   10000  0.061439037       18 6.1321841e-16 1.3052583e-05 3.0354372e-07 
   10001  0.061467886       18 6.1321841e-16 5.4359834e-05 3.0402857e-07 
Loop time of 0.061481 on 4 procs for 10000 steps with 18 atoms

97.6% CPU use with 4 MPI tasks x no OpenMP threads
timestep 300
fix_modify k1 demflag 0
fix_modify vf1 demflag 0
fix_modify d1 demflag 0
Step CPU Atoms biomass c_myPres c_myHeight 
   10001            0       18 6.1321841e-16 5.4359834e-05 3.0402857e-07 
number of iteration: 1 
height = 3.040623e-07 
S-sub-bulk = 2.999655e-02
S-sub-base = 2.999957e-02
S-o2-bulk = 1.000000e-02
S-o2-base = 9.999927e-03

   10002 0.0014560223       18 6.234179e-16 5.9970476e-05 3.0406234e-07 
Loop time of 0.00146961 on 4 procs for 1 steps with 18 atoms

136.1% CPU use with 4 MPI tasks x no OpenMP threads
fix_modify k1 demflag 1
fix_modify vf1 demflag 1
fix_modify d1 demflag 1
timestep 1e-3
run 10000 pre no post no
Step CPU Atoms biomass c_myPres c_myHeight 
   10002            0       18 6.234179e-16 5.9970476e-05 3.0406234e-07 
   11000 0.0046629906       18 6.234179e-16 3.7837007e-05 3.0436424e-07 
   12000 0.0092849731       18 6.234179e-16 3.7837007e-05 3.0436424e-07 
   13000  0.013885975       18 6.234179e-16 3.7837007e-05 3.0436424e-07 
   14000  0.018322945       18 6.234179e-16 3.7837007e-05 3.0436424e-07 
   15000  0.022647858       18 6.234179e-16 3.7837007e-05 3.0436424e-07 
   16000  0.028074026       18 6.234179e-16 3.7837007e-05 3.0436424e-07 
   17000  0.033608913       18 6.234179e-16 3.7837007e-05 3.0436424e-07 
   18000  0.037824869       18 6.234179e-16 3.7837007e-05 3.0436424e-07 
   19000  0.042042971       18 6.234179e-16 3.7837007e-05 3.0436424e-07 
   20000  0.046165943       18 6.234179e-16 3.7837007e-05 3.0436424e-07 
   20002  0.046196938       18 6.234179e-16 3.7837007e-05 3.0436424e-07 
Loop time of 0.0462077 on 4 procs for 10000 steps with 18 atoms

99.6% CPU use with 4 MPI tasks x no OpenMP threads
timestep 300
fix_modify k1 demflag 0
fix_modify vf1 demflag 0
fix_modify d1 demflag 0
Step CPU Atoms biomass c_myPres c_myHeight 
   20002            0       18 6.234179e-16 3.7837007e-05 3.0436424e-07 
number of iteration: 1 
height = 3.053702e-07 
S-sub-bulk = 2.999655e-02
S-sub-base = 2.999957e-02
S-o2-bulk = 1.000000e-02
S-o2-base = 9.999926e-03

   20003 0.0011670589       18 6.3378703e-16 4.3137783e-05 3.0537021e-07 
Loop time of 0.00117987 on 4 procs for 1 steps with 18 atoms

84.8% CPU use with 4 MPI tasks x no OpenMP threads
fix_modify k1 demflag 1
fix_modify vf1 demflag 1
fix_modify d1 demflag 1
timestep 1e-3
run 10000 pre no post no
Step CPU Atoms biomass c_myPres c_myHeight 
   20003            0       18 6.3378703e-16 4.3137783e-05 3.0537021e-07 
   21000 0.0040020943       18 6.3378703e-16 9.6879068e-24 3.0519154e-07 
   22000 0.0079581738       18 6.3378703e-16 9.6879068e-24 3.0519154e-07 
   23000  0.012979984       18 6.3378703e-16 9.6879068e-24 3.0519154e-07 
   24000   0.01820302       18 6.3378703e-16 9.6879068e-24 3.0519154e-07 
   25000  0.024073124       18 6.3378703e-16 9.6879068e-24 3.0519154e-07 
   26000  0.028017998       18 6.3378703e-16 9.6879068e-24 3.0519154e-07 
   27000  0.031769991       18 6.3378703e-16 9.6879068e-24 3.0519154e-07 
   28000  0.035452127       18 6.3378703e-16 9.6879068e-24 3.0519154e-07 
   29000  0.039433002       18 6.3378703e-16 9.6879068e-24 3.0519154e-07 
   30000  0.043847084       18 6.3378703e-16 9.6879068e-24 3.0519154e-07 
   30003   0.04389596       18 6.3378703e-16  3.82165e-05 3.0550704e-07 
Loop time of 0.0439074 on 4 procs for 10000 steps with 18 atoms

100.2% CPU use with 4 MPI tasks x no OpenMP threads
timestep 300
fix_modify k1 demflag 0
fix_modify vf1 demflag 0
fix_modify d1 demflag 0
Step CPU Atoms biomass c_myPres c_myHeight 
   30003            0       18 6.3378703e-16  3.82165e-05 3.0550704e-07 
number of iteration: 1 
height = 3.057159e-07 
S-sub-bulk = 2.999655e-02
S-sub-base = 2.999957e-02
S-o2-bulk = 1.000000e-02
S-o2-base = 9.999925e-03

   30004 0.0010650158       18 6.4432864e-16 2.8678206e-05 3.0571589e-07 
Loop time of 0.00107574 on 4 procs for 1 steps with 18 atoms

93.0% CPU use with 4 MPI tasks x no OpenMP threads
fix_modify k1 demflag 1
fix_modify vf1 demflag 1
fix_modify d1 demflag 1
timestep 1e-3
run 10000 pre no post no
Step CPU Atoms biomass c_myPres c_myHeight 
   30004            0       18 6.4432864e-16 2.8678206e-05 3.0571589e-07 
   31000 0.0059118271       18 6.4432864e-16 3.1619968e-06 3.0634021e-07 
   32000  0.010803938       18 6.4432864e-16 3.1619968e-06 3.0634019e-07 
   33000  0.014618874       18 6.4432864e-16 3.1619968e-06 3.0634017e-07 
   34000  0.018405914       18 6.4432864e-16 3.1619968e-06 3.0634016e-07 
   35000  0.022105932       18 6.4432864e-16 3.1619968e-06 3.0634014e-07 
   36000  0.026834965       18 6.4432864e-16 3.1619968e-06 3.0634012e-07 
   37000  0.030669928       18 6.4432864e-16 3.1619968e-06 3.063401e-07 
   38000  0.036937952       18 6.4432864e-16 3.1619968e-06 3.0634008e-07 
   39000   0.04198885       18 6.4432864e-16 3.1619968e-06 3.0634006e-07 
   40000  0.045822859       18 6.4432864e-16 3.1619968e-06 3.0634004e-07 
   40004  0.045866013       18 6.4432864e-16 3.1619968e-06 3.0634004e-07 
Loop time of 0.045877 on 4 procs for 10000 steps with 18 atoms

98.1% CPU use with 4 MPI tasks x no OpenMP threads
timestep 300
fix_modify k1 demflag 0
fix_modify vf1 demflag 0
fix_modify d1 demflag 0
Step CPU Atoms biomass c_myPres c_myHeight 
   40004            0       18 6.4432864e-16 3.1619968e-06 3.0634004e-07 
number of iteration: 1 
height = 3.069362e-07 
S-sub-bulk = 2.999655e-02
S-sub-base = 2.999957e-02
S-o2-bulk = 1.000000e-02
S-o2-base = 9.999924e-03

   40005 0.0011360645       18 6.5504557e-16 0.00024237066 3.0693616e-07 
Loop time of 0.00114655 on 4 procs for 1 steps with 18 atoms

87.2% CPU use with 4 MPI tasks x no OpenMP threads
fix_modify k1 demflag 1
fix_modify vf1 demflag 1
fix_modify d1 demflag 1
timestep 1e-3
run 10000 pre no post no
Step CPU Atoms biomass c_myPres c_myHeight 
   40005            0       18 6.5504557e-16 0.00024237066 3.0693616e-07 
   41000 0.0036859512       18 6.5504557e-16 8.1557314e-05 3.0732374e-07 
   42000 0.0073690414       18 6.5504557e-16 8.1557314e-05 3.0732371e-07 
   43000  0.012027979       18 6.5504557e-16 8.1557314e-05 3.0732367e-07 
   44000  0.016537905       18 6.5504557e-16 8.1557314e-05 3.0732364e-07 
   45000  0.022638083       18 6.5504557e-16 8.1557314e-05 3.073236e-07 
   46000      0.02651       18 6.5504557e-16 8.1557314e-05 3.0732357e-07 
   47000  0.030166864       18 6.5504557e-16 8.1557314e-05 3.0732354e-07 
   48000  0.033905029       18 6.5504557e-16 8.1557314e-05 3.073235e-07 
   49000  0.037626028       18 6.5504557e-16 8.1557314e-05 3.0732347e-07 
   50000  0.042336941       18 6.5504557e-16 8.1557314e-05 3.0732343e-07 
   50005  0.042387962       18 6.5504557e-16 0.00024710235 3.0721024e-07 
Loop time of 0.0423968 on 4 procs for 10000 steps with 18 atoms

99.1% CPU use with 4 MPI tasks x no OpenMP threads
timestep 300
fix_modify k1 demflag 0
fix_modify vf1 demflag 0
fix_modify d1 demflag 0
Step CPU Atoms biomass c_myPres c_myHeight 
   50005            0       18 6.5504557e-16 0.00024710235 3.0721024e-07 
number of iteration: 1 
height = 3.078536e-07 
S-sub-bulk = 2.999655e-02
S-sub-base = 2.999957e-02
S-o2-bulk = 1.000000e-02
S-o2-base = 9.999924e-03

   50006 0.0010988712       18 6.6594076e-16 0.00018520248 3.0785358e-07 
Loop time of 0.00111008 on 4 procs for 1 steps with 18 atoms

90.1% CPU use with 4 MPI tasks x no OpenMP threads
fix_modify k1 demflag 1
fix_modify vf1 demflag 1
fix_modify d1 demflag 1
timestep 1e-3
run 10000 pre no post no
Step CPU Atoms biomass c_myPres c_myHeight 
   50006            0       18 6.6594076e-16 0.00018520248 3.0785358e-07 
   51000 0.0055611134       18 6.6594076e-16 0.00018344709 3.0813466e-07 
   52000  0.011885166       18 6.6594076e-16 0.00018344709 3.0813463e-07 
   53000  0.017729044       18 6.6594076e-16 0.00018344709 3.081346e-07 
   54000  0.023581982       18 6.6594076e-16 0.00018344709 3.0813457e-07 
   55000  0.028576136       18 6.6594076e-16 0.00018344709 3.0813455e-07 
   56000  0.032499075       18 6.6594076e-16 0.00018344709 3.0813452e-07 
   57000   0.03809309       18 6.6594076e-16 0.00018344709 3.0813449e-07 
   58000  0.042462111       18 6.6594076e-16 0.00018344709 3.0813446e-07 
   59000  0.046365976       18 6.6594076e-16 0.00018344709 3.0813443e-07 
   60000  0.050145149       18 6.6594076e-16 0.00018344709 3.0813441e-07 
   60006  0.050196171       18 6.6594076e-16 0.00018344709 3.0813441e-07 
Loop time of 0.0502071 on 4 procs for 10000 steps with 18 atoms

101.6% CPU use with 4 MPI tasks x no OpenMP threads
timestep 300
fix_modify k1 demflag 0
fix_modify vf1 demflag 0
fix_modify d1 demflag 0
Step CPU Atoms biomass c_myPres c_myHeight 
   60006            0       18 6.6594076e-16 0.00018344709 3.0813441e-07 
number of iteration: 1 
height = 3.085546e-07 
S-sub-bulk = 2.999655e-02
S-sub-base = 2.999956e-02
S-o2-bulk = 1.000000e-02
S-o2-base = 9.999923e-03

   60007 0.0010769367       18 6.7701716e-16 0.00039253301 3.0855462e-07 
Loop time of 0.00108719 on 4 procs for 1 steps with 18 atoms

0.0% CPU use with 4 MPI tasks x no OpenMP threads
fix_modify k1 demflag 1
fix_modify vf1 demflag 1
fix_modify d1 demflag 1
timestep 1e-3
run 10000 pre no post no
Step CPU Atoms biomass c_myPres c_myHeight 
   60007            0       18 6.7701716e-16 0.00039253301 3.0855462e-07 
   61000 0.0040371418       18 6.7701716e-16 0.00017109547 3.0903985e-07 
   62000 0.0087189674       18 6.7701716e-16 0.00017109547 3.0903981e-07 
   63000  0.013317108       18 6.7701716e-16 0.00017109547 3.0903978e-07 
   64000  0.018712997       18 6.7701716e-16 0.00017109547 3.0903975e-07 
   65000  0.022512913       18 6.7701716e-16 0.00017109547 3.0903971e-07 
   66000  0.026273966       18 6.7701716e-16 0.00017109547 3.0903968e-07 
   67000  0.030082941       18 6.7701716e-16 0.00017109547 3.0903965e-07 
   68000  0.033796072       18 6.7701716e-16 0.00017109547 3.0903961e-07 
   69000  0.038687944       18 6.7701716e-16 0.00017109547 3.0903958e-07 
   70000  0.044444084       18 6.7701716e-16 0.00017109547 3.0903955e-07 
   70007  0.044503927       18 6.7701716e-16 8.4298585e-05 3.0898536e-07 
Loop time of 0.0445137 on 4 procs for 10000 steps with 18 atoms

101.1% CPU use with 4 MPI tasks x no OpenMP threads
timestep 300
fix_modify k1 demflag 0
fix_modify vf1 demflag 0
fix_modify d1 demflag 0
Step CPU Atoms biomass c_myPres c_myHeight 
   70007            0       18 6.7701716e-16 8.4298585e-05 3.0898536e-07 
number of iteration: 1 
height = 3.095756e-07 
S-sub-bulk = 2.999655e-02
S-sub-base = 2.999956e-02
S-o2-bulk = 1.000000e-02
S-o2-base = 9.999922e-03

   70008 0.0010700226       18 6.882778e-16 0.00032598648 3.0957556e-07 
Loop time of 0.00108099 on 4 procs for 1 steps with 18 atoms

92.5% CPU use with 4 MPI tasks x no OpenMP threads
fix_modify k1 demflag 1
fix_modify vf1 demflag 1
fix_modify d1 demflag 1
timestep 1e-3
run 10000 pre no post no
Step CPU Atoms biomass c_myPres c_myHeight 
   70008            0       18 6.882778e-16 0.00032598648 3.0957556e-07 
   71000 0.0047969818       18 6.882778e-16 0.00035159802 3.0971582e-07 
   72000 0.0086340904       18 6.882778e-16 0.00035159802 3.0971578e-07 
   73000  0.012418032       18 6.882778e-16 0.00035159802 3.0971575e-07 
   74000   0.01613903       18 6.882778e-16 0.00035159802 3.0971571e-07 
   75000  0.021144152       18 6.882778e-16 0.00035159802 3.0971567e-07 
   76000  0.024916172       18 6.882778e-16 0.00035159802 3.0971564e-07 
   77000  0.030364037       18 6.882778e-16 0.00035159802 3.097156e-07 
   78000  0.035116196       18 6.882778e-16 0.00035159802 3.0971556e-07 
   79000  0.038954973       18 6.882778e-16 0.00035159802 3.0971552e-07 
   80000  0.042720079       18 6.882778e-16 0.00035159802 3.0971549e-07 
   80008  0.042788982       18 6.882778e-16 0.00035159802 3.0971549e-07 
Loop time of 0.0427999 on 4 procs for 10000 steps with 18 atoms

100.5% CPU use with 4 MPI tasks x no OpenMP threads
timestep 300
fix_modify k1 demflag 0
fix_modify vf1 demflag 0
fix_modify d1 demflag 0
Step CPU Atoms biomass c_myPres c_myHeight 
   80008            0       18 6.882778e-16 0.00035159802 3.0971549e-07 
number of iteration: 1 
height = 3.102006e-07 
S-sub-bulk = 2.999655e-02
S-sub-base = 2.999956e-02
S-o2-bulk = 1.000000e-02
S-o2-base = 9.999921e-03

   80009   0.00106287       18 6.9972572e-16 0.00037184978 3.1020061e-07 
Loop time of 0.00107288 on 4 procs for 1 steps with 18 atoms

93.2% CPU use with 4 MPI tasks x no OpenMP threads
fix_modify k1 demflag 1
fix_modify vf1 demflag 1
fix_modify d1 demflag 1
timestep 1e-3
run 10000 pre no post no
Step CPU Atoms biomass c_myPres c_myHeight 
   80009            0       18 6.9972572e-16 0.00037184978 3.1020061e-07 
   81000 0.0036997795       18 6.9972572e-16 9.5522833e-05 3.1068942e-07 
   82000 0.0085608959       18 6.9972572e-16 9.5522833e-05 3.1068937e-07 
   83000  0.012566805       18 6.9972572e-16 9.5522833e-05 3.1068933e-07 
   84000  0.018162012       18 6.9972572e-16 9.5522833e-05 3.1068929e-07 
   85000  0.022468805       18 6.9972572e-16 9.5522833e-05 3.1068924e-07 
   86000  0.026221991       18 6.9972572e-16 9.5522833e-05 3.106892e-07 
   87000  0.029944897       18 6.9972572e-16 9.5522833e-05 3.1068915e-07 
   88000  0.033685923       18 6.9972572e-16 9.5522833e-05 3.1068911e-07 
   89000  0.038626909       18 6.9972572e-16 9.5522833e-05 3.1068906e-07 
   90000  0.042392969       18 6.9972572e-16 9.5522833e-05 3.1068902e-07 
   90009  0.042454958       18 6.9972572e-16 0.00015532957 3.1057719e-07 
Loop time of 0.0424633 on 4 procs for 10000 steps with 18 atoms

101.3% CPU use with 4 MPI tasks x no OpenMP threads
timestep 300
fix_modify k1 demflag 0
fix_modify vf1 demflag 0
fix_modify d1 demflag 0
Step CPU Atoms biomass c_myPres c_myHeight 
   90009            0       18 6.9972572e-16 0.00015532957 3.1057719e-07 
number of iteration: 1 
height = 3.112310e-07 
S-sub-bulk = 2.999655e-02
S-sub-base = 2.999955e-02
S-o2-bulk = 1.000000e-02
S-o2-base = 9.999920e-03

   90010 0.0010650158       18 7.1136406e-16 0.00019064335 3.1123096e-07 
Loop time of 0.00108004 on 4 procs for 1 steps with 18 atoms

92.6% CPU use with 4 MPI tasks x no OpenMP threads
fix_modify k1 demflag 1
fix_modify vf1 demflag 1
fix_modify d1 demflag 1
timestep 1e-3
run 10000 pre no post no
Step CPU Atoms biomass c_myPres c_myHeight 
   90010            0       18 7.1136406e-16 0.00019064335 3.1123096e-07 
   91000 0.0055618286       18 7.1136406e-16 0.00011654295 3.1153389e-07 
   92000  0.010004997       18 7.1136406e-16 0.00011654295 3.1153384e-07 
   93000  0.013888836       18 7.1136406e-16 0.00011654295 3.115338e-07 
   94000  0.017653942       18 7.1136406e-16 0.00011654295 3.1153375e-07 
   95000  0.021430969       18 7.1136406e-16 0.00011654295 3.115337e-07 
   96000  0.026379824       18 7.1136406e-16 0.00011654295 3.1153365e-07 
   97000  0.030303001       18 7.1136406e-16 0.00011654295 3.115336e-07 
   98000  0.035931826       18 7.1136406e-16 0.00011654295 3.1153356e-07 
   99000  0.040127993       18 7.1136406e-16 0.00011654295 3.1153351e-07 
  100000  0.044036865       18 7.1136406e-16 0.00011654295 3.1153346e-07 
  100010  0.044116974       18 7.1136406e-16 0.00011654295 3.1153346e-07 
Loop time of 0.0441264 on 4 procs for 10000 steps with 18 atoms

99.7% CPU use with 4 MPI tasks x no OpenMP threads
timestep 300
fix_modify k1 demflag 0
fix_modify vf1 demflag 0
fix_modify d1 demflag 0
Step CPU Atoms biomass c_myPres c_myHeight 
  100010            0       18 7.1136406e-16 0.00011654295 3.1153346e-07 
number of iteration: 1 
height = 3.119669e-07 
S-sub-bulk = 2.999655e-02
S-sub-base = 2.999955e-02
S-o2-bulk = 1.000000e-02
S-o2-base = 9.999919e-03

  100011 0.0010669231       18 7.2319597e-16 0.00052798426 3.119669e-07 
Loop time of 0.00107747 on 4 procs for 1 steps with 18 atoms

185.6% CPU use with 4 MPI tasks x no OpenMP threads
fix_modify k1 demflag 1
fix_modify vf1 demflag 1
fix_modify d1 demflag 1
timestep 1e-3
run 10000 pre no post no
Step CPU Atoms biomass c_myPres c_myHeight 
  100011            0       18 7.2319597e-16 0.00052798426 3.119669e-07 
  101000 0.0036649704       18 7.2319597e-16 0.0001516123 3.1245521e-07 
  102000 0.0073590279       18 7.2319597e-16 0.0001516123 3.1245516e-07 
  103000  0.012249947       18 7.2319597e-16 0.0001516123 3.124551e-07 
  104000  0.016811132       18 7.2319597e-16 0.0001516123 3.1245505e-07 
  105000  0.022198915       18 7.2319597e-16 0.0001516123 3.1245499e-07 
  106000  0.026041031       18 7.2319597e-16 0.0001516123 3.1245494e-07 
  107000  0.029769897       18 7.2319597e-16 0.0001516123 3.1245488e-07 
  108000   0.03350091       18 7.2319597e-16 0.0001516123 3.1245483e-07 
  109000  0.037207127       18 7.2319597e-16 0.0001516123 3.1245477e-07 
  110000  0.042030096       18 7.2319597e-16 0.0001516123 3.1245472e-07 
  110011  0.042104959       18 7.2319597e-16 3.080521e-05 3.124019e-07 
Loop time of 0.042115 on 4 procs for 10000 steps with 18 atoms

97.4% CPU use with 4 MPI tasks x no OpenMP threads
timestep 300
fix_modify k1 demflag 0
fix_modify vf1 demflag 0
fix_modify d1 demflag 0
Step CPU Atoms biomass c_myPres c_myHeight 
  110011            0       18 7.2319597e-16 3.080521e-05 3.124019e-07 
number of iteration: 1 
height = 3.130026e-07 
S-sub-bulk = 2.999655e-02
S-sub-base = 2.999955e-02
S-o2-bulk = 1.000000e-02
S-o2-base = 9.999918e-03

  110012 0.0010299683       18 7.3522468e-16 0.00031355095 3.1300265e-07 
Loop time of 0.00104141 on 4 procs for 1 steps with 18 atoms

192.0% CPU use with 4 MPI tasks x no OpenMP threads
fix_modify k1 demflag 1
fix_modify vf1 demflag 1
fix_modify d1 demflag 1
timestep 1e-3
run 10000 pre no post no
Step CPU Atoms biomass c_myPres c_myHeight 
  110012            0       18 7.3522468e-16 0.00031355095 3.1300265e-07 
  111000 0.0046510696       18 7.3522468e-16 0.00027286228 3.1329512e-07 
  112000  0.010124922       18 7.3522468e-16 0.00027286228 3.1329506e-07 
  113000   0.01474905       18 7.3522468e-16 0.00027286228  3.13295e-07 
  114000  0.019248009       18 7.3522468e-16 0.00027286228 3.1329495e-07 
  115000  0.023714066       18 7.3522468e-16 0.00027286228 3.1329489e-07 
  116000  0.029228926       18 7.3522468e-16 0.00027286228 3.1329483e-07 
  117000  0.033936024       18 7.3522468e-16 0.00027286228 3.1329477e-07 
  118000  0.039932966       18 7.3522468e-16 0.00027286228 3.1329471e-07 
  119000  0.044651985       18 7.3522468e-16 0.00027286228 3.1329465e-07 
  120000  0.049143076       18 7.3522468e-16 0.00027286228 3.1329459e-07 
  120012  0.049235106       18 7.3522468e-16 0.00027286228 3.1329459e-07 
Loop time of 0.049244 on 4 procs for 10000 steps with 18 atoms

99.5% CPU use with 4 MPI tasks x no OpenMP threads
timestep 300
fix_modify k1 demflag 0
fix_modify vf1 demflag 0
fix_modify d1 demflag 0
Step CPU Atoms biomass c_myPres c_myHeight 
  120012            0       18 7.3522468e-16 0.00027286228 3.1329459e-07 
number of iteration: 1 
height = 3.137728e-07 
S-sub-bulk = 2.999655e-02
S-sub-base = 2.999955e-02
S-o2-bulk = 1.000000e-02
S-o2-base = 9.999917e-03

  120013 0.0010819435       18 7.4745346e-16 0.00027599546 3.1377277e-07 
Loop time of 0.00109202 on 4 procs for 1 steps with 18 atoms

91.6% CPU use with 4 MPI tasks x no OpenMP threads
fix_modify k1 demflag 1
fix_modify vf1 demflag 1
fix_modify d1 demflag 1
timestep 1e-3
run 10000 pre no post no
Step CPU Atoms biomass c_myPres c_myHeight 
  120013            0       18 7.4745346e-16 0.00027599546 3.1377277e-07 
  121000 0.0036609173       18 7.4745346e-16 1.8754233e-05 3.1424911e-07 
  122000 0.0085101128       18 7.4745346e-16 1.8754233e-05 3.1424903e-07 
  123000  0.012202978       18 7.4745346e-16 1.8754233e-05 3.1424896e-07 
  124000  0.017374039       18 7.4745346e-16 1.8754233e-05 3.1424888e-07 
  125000  0.022162914       18 7.4745346e-16 1.8754233e-05 3.142488e-07 
  126000  0.025958061       18 7.4745346e-16 1.8754233e-05 3.1424872e-07 
  127000  0.029720068       18 7.4745346e-16 1.8754233e-05 3.1424865e-07 
  128000  0.033377886       18 7.4745346e-16 1.8754233e-05 3.1424857e-07 
  129000  0.037448883       18 7.4745346e-16 1.8754233e-05 3.1424849e-07 
  130000  0.041771889       18 7.4745346e-16 1.8754233e-05 3.1424842e-07 
  130013  0.041851997       18 7.4745346e-16 0.00016423062 3.1413796e-07 
Loop time of 0.0418608 on 4 procs for 10000 steps with 18 atoms

100.3% CPU use with 4 MPI tasks x no OpenMP threads
timestep 300
fix_modify k1 demflag 0
fix_modify vf1 demflag 0
fix_modify d1 demflag 0
Step CPU Atoms biomass c_myPres c_myHeight 
  130013            0       18 7.4745346e-16 0.00016423062 3.1413796e-07 
number of iteration: 1 
height = 3.148024e-07 
S-sub-bulk = 2.999655e-02
S-sub-base = 2.999954e-02
S-o2-bulk = 1.000000e-02
S-o2-base = 9.999916e-03

  130014 0.0010280609       18 7.5988564e-16 0.0001058181 3.148024e-07 
Loop time of 0.00103807 on 4 procs for 1 steps with 18 atoms

0.0% CPU use with 4 MPI tasks x no OpenMP threads
fix_modify k1 demflag 1
fix_modify vf1 demflag 1
fix_modify d1 demflag 1
timestep 1e-3
run 10000 pre no post no
Step CPU Atoms biomass c_myPres c_myHeight 
  130014            0       18 7.5988564e-16 0.0001058181 3.148024e-07 
  131000 0.0053679943       18 7.5988564e-16 8.5283301e-05 3.1506897e-07 
  132000  0.010248899       18 7.5988564e-16 8.5283301e-05 3.150689e-07 
  133000  0.014102936       18 7.5988564e-16 8.5283301e-05 3.1506883e-07 
  134000  0.017836094       18 7.5988564e-16 8.5283301e-05 3.1506876e-07 
  135000  0.021600962       18 7.5988564e-16 8.5283301e-05 3.1506869e-07 
  136000   0.02649498       18 7.5988564e-16 8.5283301e-05 3.1506862e-07 
  137000  0.030239105       18 7.5988564e-16 8.5283301e-05 3.1506855e-07 
  138000  0.035393953       18 7.5988564e-16 8.5283301e-05 3.1506848e-07 
  139000  0.040121078       18 7.5988564e-16 8.5283301e-05 3.1506841e-07 
  140000  0.044068098       18 7.5988564e-16 8.5283301e-05 3.1506834e-07 
  140014  0.044164896       18 7.5988564e-16 8.5283301e-05 3.1506834e-07 
Loop time of 0.0441744 on 4 procs for 10000 steps with 18 atoms

99.6% CPU use with 4 MPI tasks x no OpenMP threads
timestep 300
fix_modify k1 demflag 0
fix_modify vf1 demflag 0
fix_modify d1 demflag 0
Step CPU Atoms biomass c_myPres c_myHeight 
  140014            0       18 7.5988564e-16 8.5283301e-05 3.1506834e-07 
number of iteration: 1 
height = 3.155153e-07 
S-sub-bulk = 2.999655e-02
S-sub-base = 2.999954e-02
S-o2-bulk = 1.000000e-02
S-o2-base = 9.999915e-03

  140015 0.0010681152       18 7.725246e-16 0.00053135221 3.1551527e-07 
Loop time of 0.00107825 on 4 procs for 1 steps with 18 atoms

92.7% CPU use with 4 MPI tasks x no OpenMP threads
fix_modify k1 demflag 1
fix_modify vf1 demflag 1
fix_modify d1 demflag 1
timestep 1e-3
run 10000 pre no post no
Step CPU Atoms biomass c_myPres c_myHeight 
  140015            0       18 7.725246e-16 0.00053135221 3.1551527e-07 
  141000 0.0036530495       18 7.725246e-16 6.7374449e-05 3.1599918e-07 
  142000  0.007365942       18 7.725246e-16 6.7374449e-05 3.159991e-07 
  143000  0.012197971       18 7.725246e-16 6.7374449e-05 3.1599903e-07 
  144000  0.016126871       18 7.725246e-16 6.7374449e-05 3.1599895e-07 
  145000  0.021780014       18 7.725246e-16 6.7374449e-05 3.1599887e-07 
  146000  0.025924921       18 7.725246e-16 6.7374449e-05 3.159988e-07 
  147000  0.029697895       18 7.725246e-16 6.7374449e-05 3.1599872e-07 
  148000  0.033403873       18 7.725246e-16 6.7374449e-05 3.1599864e-07 
  149000  0.037102938       18 7.725246e-16 6.7374449e-05 3.1599857e-07 
  150000  0.041861057       18 7.725246e-16 6.7374449e-05 3.1599849e-07 
  150015  0.041949987       18 7.725246e-16 6.2519462e-05 3.1594705e-07 
Loop time of 0.0419595 on 4 procs for 10000 steps with 18 atoms

102.5% CPU use with 4 MPI tasks x no OpenMP threads
timestep 300
fix_modify k1 demflag 0
fix_modify vf1 demflag 0
fix_modify d1 demflag 0
Step CPU Atoms biomass c_myPres c_myHeight 
  150015            0       18 7.725246e-16 6.2519462e-05 3.1594705e-07 
number of iteration: 1 
height = 3.165586e-07 
S-sub-bulk = 2.999655e-02
S-sub-base = 2.999954e-02
S-o2-bulk = 1.000000e-02
S-o2-base = 9.999914e-03

  150016 0.0010311604       18 7.8537378e-16 0.00020882135 3.165586e-07 
Loop time of 0.00104141 on 4 procs for 1 steps with 18 atoms

0.0% CPU use with 4 MPI tasks x no OpenMP threads
fix_modify k1 demflag 1
fix_modify vf1 demflag 1
fix_modify d1 demflag 1
timestep 1e-3
run 10000 pre no post no
Step CPU Atoms biomass c_myPres c_myHeight 
  150016            0       18 7.8537378e-16 0.00020882135 3.165586e-07 
  151000  0.003923893       18 7.8537378e-16 0.00023694613 3.1686638e-07 
  152000 0.0094809532       18 7.8537378e-16 0.00023694613 3.168663e-07 
  153000  0.013789892       18 7.8537378e-16 0.00023694613 3.1686622e-07 
  154000  0.017525911       18 7.8537378e-16 0.00023694613 3.1686614e-07 
  155000  0.021211863       18 7.8537378e-16 0.00023694613 3.1686606e-07 
  156000   0.02488184       18 7.8537378e-16 0.00023694613 3.1686597e-07 
  157000  0.029632807       18 7.8537378e-16 0.00023694613 3.1686589e-07 
  158000  0.033347845       18 7.8537378e-16 0.00023694613 3.1686581e-07 
  159000  0.038502932       18 7.8537378e-16 0.00023694613 3.1686573e-07 
  160000  0.043357849       18 7.8537378e-16 0.00023694613 3.1686565e-07 
  160016  0.043460846       18 7.8537378e-16 0.00023694613 3.1686565e-07 
Loop time of 0.0434699 on 4 procs for 10000 steps with 18 atoms

101.2% CPU use with 4 MPI tasks x no OpenMP threads
timestep 300
fix_modify k1 demflag 0
fix_modify vf1 demflag 0
fix_modify d1 demflag 0
Step CPU Atoms biomass c_myPres c_myHeight 
  160016            0       18 7.8537378e-16 0.00023694613 3.1686565e-07 
number of iteration: 1 
height = 3.173778e-07 
S-sub-bulk = 2.999655e-02
S-sub-base = 2.999953e-02
S-o2-bulk = 1.000000e-02
S-o2-base = 9.999912e-03

  160017  0.001086235       18 7.9843667e-16 0.00027391018 3.1737775e-07 
Loop time of 0.00109601 on 4 procs for 1 steps with 18 atoms

91.2% CPU use with 4 MPI tasks x no OpenMP threads
fix_modify k1 demflag 1
fix_modify vf1 demflag 1
fix_modify d1 demflag 1
timestep 1e-3
run 10000 pre no post no
Step CPU Atoms biomass c_myPres c_myHeight 
  160017            0       18 7.9843667e-16 0.00027391018 3.1737775e-07 
  161000  0.003715992       18 7.9843667e-16 3.7675691e-06 3.1770416e-07 
  162000 0.0074179173       18 7.9843667e-16 3.7675691e-06 3.1770407e-07 
  163000  0.011173964       18 7.9843667e-16 3.7675691e-06 3.1770398e-07 
  164000  0.015961885       18 7.9843667e-16 3.7675691e-06 3.1770389e-07 
  165000  0.019703865       18 7.9843667e-16 3.7675691e-06 3.177038e-07 
  166000  0.026278973       18 7.9843667e-16 3.7675691e-06 3.1770372e-07 
  167000  0.030683994       18 7.9843667e-16 3.7675691e-06 3.1770363e-07 
  168000  0.034466982       18 7.9843667e-16 3.7675691e-06 3.1770354e-07 
  169000  0.038162947       18 7.9843667e-16 3.7675691e-06 3.1770345e-07 
  170000  0.041951895       18 7.9843667e-16 3.7675691e-06 3.1770336e-07 
  170017  0.042063951       18 7.9843667e-16 0.00014442909 3.1759427e-07 
Loop time of 0.0420728 on 4 procs for 10000 steps with 18 atoms

102.2% CPU use with 4 MPI tasks x no OpenMP threads
timestep 300
fix_modify k1 demflag 0
fix_modify vf1 demflag 0
fix_modify d1 demflag 0
Step CPU Atoms biomass c_myPres c_myHeight 
  170017            0       18 7.9843667e-16 0.00014442909 3.1759427e-07 
number of iteration: 1 
height = 3.182697e-07 
S-sub-bulk = 2.999655e-02
S-sub-base = 2.999953e-02
S-o2-bulk = 1.000000e-02
S-o2-base = 9.999911e-03

  170018 0.0010421276       18 8.1171683e-16 0.00010094857 3.1826967e-07 
Loop time of 0.00105286 on 4 procs for 1 steps with 18 atoms

0.0% CPU use with 4 MPI tasks x no OpenMP threads
fix_modify k1 demflag 1
fix_modify vf1 demflag 1
fix_modify d1 demflag 1
timestep 1e-3
run 10000 pre no post no
Step CPU Atoms biomass c_myPres c_myHeight 
  170018            0       18 8.1171683e-16 0.00010094857 3.1826967e-07 
  171000 0.0048549175       18 8.1171683e-16 7.3375939e-05 3.1857411e-07 
  172000 0.0089030266       18 8.1171683e-16 7.3375939e-05 3.1857402e-07 
  173000    0.0144701       18 8.1171683e-16 7.3375939e-05 3.1857392e-07 
  174000  0.018754959       18 8.1171683e-16 7.3375939e-05 3.1857383e-07 
  175000  0.022772074       18 8.1171683e-16 7.3375939e-05 3.1857374e-07 
  176000  0.026472092       18 8.1171683e-16 7.3375939e-05 3.1857365e-07 
  177000  0.030261993       18 8.1171683e-16 7.3375939e-05 3.1857356e-07 
  178000  0.035070896       18 8.1171683e-16 7.3375939e-05 3.1857346e-07 
  179000  0.039141893       18 8.1171683e-16 7.3375939e-05 3.1857337e-07 
  180000  0.044682026       18 8.1171683e-16 7.3375939e-05 3.1857328e-07 
  180018  0.044790983       18 8.1171683e-16 7.3375939e-05 3.1857328e-07 
Loop time of 0.0448017 on 4 procs for 10000 steps with 18 atoms

100.4% CPU use with 4 MPI tasks x no OpenMP threads
timestep 300
fix_modify k1 demflag 0
fix_modify vf1 demflag 0
fix_modify d1 demflag 0
Step CPU Atoms biomass c_myPres c_myHeight 
  180018            0       18 8.1171683e-16 7.3375939e-05 3.1857328e-07 
number of iteration: 1 
height = 3.190340e-07 
S-sub-bulk = 2.999655e-02
S-sub-base = 2.999952e-02
S-o2-bulk = 1.000000e-02
S-o2-base = 9.999910e-03

  180019 0.0011332035       18 8.2521788e-16 0.00051285314 3.1903396e-07 
Loop time of 0.00114512 on 4 procs for 1 steps with 18 atoms

87.3% CPU use with 4 MPI tasks x no OpenMP threads
fix_modify k1 demflag 1
fix_modify vf1 demflag 1
fix_modify d1 demflag 1
timestep 1e-3
run 10000 pre no post no
Step CPU Atoms biomass c_myPres c_myHeight 
  180019            0       18 8.2521788e-16 0.00051285314 3.1903396e-07 
  181000 0.0040719509       18 8.2521788e-16 0.0001803469 3.1945085e-07 
  182000   0.00781703       18 8.2521788e-16 0.0001803469 3.1945075e-07 
  183000  0.011561155       18 8.2521788e-16 0.0001803469 3.1945066e-07 
  184000  0.015293121       18 8.2521788e-16 0.0001803469 3.1945056e-07 
  185000  0.020252943       18 8.2521788e-16 0.0001803469 3.1945046e-07 
  186000  0.024712086       18 8.2521788e-16 0.0001803469 3.1945036e-07 
  187000  0.030105114       18 8.2521788e-16 0.0001803469 3.1945026e-07 
  188000  0.034091949       18 8.2521788e-16 0.0001803469 3.1945016e-07 
  189000  0.037821054       18 8.2521788e-16 0.0001803469 3.1945006e-07 
  190000  0.041609049       18 8.2521788e-16 0.0001803469 3.1944996e-07 
  190019  0.041727066       18 8.2521788e-16 6.4910436e-05 3.1946951e-07 
Loop time of 0.0417361 on 4 procs for 10000 steps with 18 atoms

100.6% CPU use with 4 MPI tasks x no OpenMP threads
timestep 300
fix_modify k1 demflag 0
fix_modify vf1 demflag 0
fix_modify d1 demflag 0
Step CPU Atoms biomass c_myPres c_myHeight 
  190019            0       18 8.2521788e-16 6.4910436e-05 3.1946951e-07 
number of iteration: 1 
height = 3.200225e-07 
S-sub-bulk = 2.999655e-02
S-sub-base = 2.999952e-02
S-o2-bulk = 1.000000e-02
S-o2-base = 9.999909e-03

  190020 0.0010919571       18 8.3894348e-16 0.00040502642 3.2002253e-07 
Loop time of 0.00110292 on 4 procs for 1 steps with 18 atoms

90.7% CPU use with 4 MPI tasks x no OpenMP threads
fix_modify k1 demflag 1
fix_modify vf1 demflag 1
fix_modify d1 demflag 1
timestep 1e-3
run 10000 pre no post no
Step CPU Atoms biomass c_myPres c_myHeight 
  190020            0       18 8.3894348e-16 0.00040502642 3.2002253e-07 
  191000 0.0040090084       18 8.3894348e-16 0.00021436113 3.2048661e-07 
  192000 0.0085821152       18 8.3894348e-16 0.00021436113 3.2048651e-07 
  193000  0.013386011       18 8.3894348e-16 0.00021436113 3.2048641e-07 
  194000  0.018564939       18 8.3894348e-16 0.00021436113 3.2048631e-07 
  195000  0.022383928       18 8.3894348e-16 0.00021436113 3.2048621e-07 
  196000   0.02613616       18 8.3894348e-16 0.00021436113 3.204861e-07 
  197000   0.02987504       18 8.3894348e-16 0.00021436113  3.20486e-07 
  198000  0.033606052       18 8.3894348e-16 0.00021436113 3.204859e-07 
  199000  0.038393974       18 8.3894348e-16 0.00021436113 3.204858e-07 
  200000   0.04320097       18 8.3894348e-16 0.00021436113 3.204857e-07 
  200020  0.043319941       18 8.3894348e-16 0.00021436113 3.204857e-07 
Loop time of 0.04333 on 4 procs for 10000 steps with 18 atoms

101.5% CPU use with 4 MPI tasks x no OpenMP threads
timestep 300
fix_modify k1 demflag 0
fix_modify vf1 demflag 0
fix_modify d1 demflag 0
Step CPU Atoms biomass c_myPres c_myHeight 
  200020            0       18 8.3894348e-16 0.00021436113 3.204857e-07 
number of iteration: 1 
height = 3.210121e-07 
S-sub-bulk = 2.999655e-02
S-sub-base = 2.999952e-02
S-o2-bulk = 1.000000e-02
S-o2-base = 9.999908e-03

  200021 0.0010581017       18 8.5289738e-16 0.00030025463 3.2101214e-07 
Loop time of 0.00107098 on 4 procs for 1 steps with 18 atoms

93.4% CPU use with 4 MPI tasks x no OpenMP threads
fix_modify k1 demflag 1
fix_modify vf1 demflag 1
fix_modify d1 demflag 1
timestep 1e-3
run 10000 pre no post no
Step CPU Atoms biomass c_myPres c_myHeight 
  200021            0       18 8.5289738e-16 0.00030025463 3.2101214e-07 
  201000 0.0056607723       18 8.5289738e-16 5.8207185e-05 3.2181017e-07 
  202000 0.0094788074       18 8.5289738e-16 5.8207185e-05 3.2181007e-07 
  203000   0.01324296       18 8.5289738e-16 5.8207185e-05 3.2180997e-07 
  204000  0.016982794       18 8.5289738e-16 5.8207185e-05 3.2180986e-07 
  205000  0.021067858       18 8.5289738e-16 5.8207185e-05 3.2180976e-07 
  206000  0.025601864       18 8.5289738e-16 5.8207185e-05 3.2180966e-07 
  207000  0.030342817       18 8.5289738e-16 5.8207185e-05 3.2180956e-07 
  208000  0.035959005       18 8.5289738e-16 5.8207185e-05 3.2180946e-07 
  209000  0.040614843       18 8.5289738e-16 5.8207185e-05 3.2180935e-07 
  210000  0.045130968       18 8.5289738e-16 5.8207185e-05 3.2180925e-07 
  210021  0.045256853       18 8.5289738e-16 4.4179093e-05 3.2182836e-07 
Loop time of 0.0452654 on 4 procs for 10000 steps with 18 atoms

101.6% CPU use with 4 MPI tasks x no OpenMP threads
timestep 300
fix_modify k1 demflag 0
fix_modify vf1 demflag 0
fix_modify d1 demflag 0
Step CPU Atoms biomass c_myPres c_myHeight 
  210021            0       18 8.5289738e-16 4.4179093e-05 3.2182836e-07 
number of iteration: 1 
height = 3.223881e-07 
S-sub-bulk = 2.999655e-02
S-sub-base = 2.999951e-02
S-o2-bulk = 1.000000e-02
S-o2-base = 9.999906e-03

  210022  0.001101017       18 8.6708336e-16 0.00023942068 3.2238815e-07 
Loop time of 0.00111151 on 4 procs for 1 steps with 18 atoms

0.0% CPU use with 4 MPI tasks x no OpenMP threads
fix_modify k1 demflag 1
fix_modify vf1 demflag 1
fix_modify d1 demflag 1
timestep 1e-3
run 10000 pre no post no
Step CPU Atoms biomass c_myPres c_myHeight 
  210022            0       18 8.6708336e-16 0.00023942068 3.2238815e-07 
  211000 0.0036809444       18 8.6708336e-16 0.00021385651 3.2272702e-07 
  212000 0.0086278915       18 8.6708336e-16 0.00021385651 3.2272692e-07 
  213000  0.013152838       18 8.6708336e-16 0.00021385651 3.2272682e-07 
  214000  0.018580914       18 8.6708336e-16 0.00021385651 3.2272672e-07 
  215000  0.022534847       18 8.6708336e-16 0.00021385651 3.2272662e-07 
  216000   0.02628684       18 8.6708336e-16 0.00021385651 3.2272651e-07 
  217000  0.030040026       18 8.6708336e-16 0.00021385651 3.2272641e-07 
  218000  0.033768892       18 8.6708336e-16 0.00021385651 3.2272631e-07 
  219000  0.038461924       18 8.6708336e-16 0.00021385651 3.2272621e-07 
  220000  0.043113947       18 8.6708336e-16 0.00021385651 3.2272611e-07 
  220022  0.043249846       18 8.6708336e-16 0.00021385651 3.227261e-07 
Loop time of 0.0432594 on 4 procs for 10000 steps with 18 atoms

101.7% CPU use with 4 MPI tasks x no OpenMP threads
timestep 300
fix_modify k1 demflag 0
fix_modify vf1 demflag 0
fix_modify d1 demflag 0
Step CPU Atoms biomass c_myPres c_myHeight 
  220022            0       18 8.6708336e-16 0.00021385651 3.227261e-07 
number of iteration: 1 
height = 3.233269e-07 
S-sub-bulk = 2.999655e-02
S-sub-base = 2.999951e-02
S-o2-bulk = 1.000000e-02
S-o2-base = 9.999905e-03

  220023 0.0010700226       18 8.815053e-16 0.00031291229 3.2332685e-07 
Loop time of 0.00108194 on 4 procs for 1 steps with 18 atoms

92.4% CPU use with 4 MPI tasks x no OpenMP threads
fix_modify k1 demflag 1
fix_modify vf1 demflag 1
fix_modify d1 demflag 1
timestep 1e-3
run 10000 pre no post no
Step CPU Atoms biomass c_myPres c_myHeight 
  220023            0       18 8.815053e-16 0.00031291229 3.2332685e-07 
  221000 0.0051012039       18 8.815053e-16 0.0002320832 3.2402627e-07 
  222000 0.0089659691       18 8.815053e-16 0.0002320832 3.2402617e-07 
  223000  0.012756109       18 8.815053e-16 0.0002320832 3.2402607e-07 
  224000  0.021382093       18 8.815053e-16 0.0002320832 3.2402596e-07 
  225000  0.025837183       18 8.815053e-16 0.0002320832 3.2402586e-07 
  226000  0.029546022       18 8.815053e-16 0.0002320832 3.2402576e-07 
  227000  0.034212112       18 8.815053e-16 0.0002320832 3.2402566e-07 
  228000  0.037960052       18 8.815053e-16 0.0002320832 3.2402556e-07 
  229000  0.041784048       18 8.815053e-16 0.0002320832 3.2402546e-07 
  230000  0.045567036       18 8.815053e-16 0.0002320832 3.2402536e-07 
  230023  0.045684099       18 8.815053e-16 8.1681736e-05 3.2404341e-07 
Loop time of 0.0456941 on 4 procs for 10000 steps with 18 atoms

98.5% CPU use with 4 MPI tasks x no OpenMP threads
timestep 300
fix_modify k1 demflag 0
fix_modify vf1 demflag 0
fix_modify d1 demflag 0
Step CPU Atoms biomass c_myPres c_myHeight 
  230023            0       18 8.815053e-16 8.1681736e-05 3.2404341e-07 
number of iteration: 1 
height = 3.246107e-07 
S-sub-bulk = 2.999655e-02
S-sub-base = 2.999950e-02
S-o2-bulk = 1.000000e-02
S-o2-base = 9.999904e-03

  230024 0.0010809898       18 8.9616711e-16 0.00047792165 3.2461066e-07 
Loop time of 0.00109124 on 4 procs for 1 steps with 18 atoms

0.0% CPU use with 4 MPI tasks x no OpenMP threads
fix_modify k1 demflag 1
fix_modify vf1 demflag 1
fix_modify d1 demflag 1
timestep 1e-3
run 10000 pre no post no
Step CPU Atoms biomass c_myPres c_myHeight 
  230024            0       18 8.9616711e-16 0.00047792165 3.2461066e-07 
  231000 0.0036230087       18 8.9616711e-16 0.00019604188 3.2513053e-07 
  232000 0.0073978901       18 8.9616711e-16 0.00019601563 3.2513045e-07 
  233000  0.011164904       18 8.9616711e-16 0.00019598938 3.2513037e-07 
  234000  0.014921904       18 8.9616711e-16 0.00019596312 3.2513029e-07 
  235000  0.019737959       18 8.9616711e-16 0.00019593687 3.251302e-07 
  236000  0.023473024       18 8.9616711e-16 0.00019591061 3.2513012e-07 
  237000  0.027188063       18 8.9616711e-16 0.00019588436 3.2513004e-07 
  238000  0.031426907       18 8.9616711e-16 0.0001958581 3.2512996e-07 
  239000  0.035243988       18 8.9616711e-16 0.00019583184 3.2512988e-07 
  240000  0.039819002       18 8.9616711e-16 0.00019580559 3.251298e-07 
  240024   0.03994298       18 8.9616711e-16 0.00019580495 3.251298e-07 
Loop time of 0.0399516 on 4 procs for 10000 steps with 18 atoms

97.6% CPU use with 4 MPI tasks x no OpenMP threads
timestep 300
fix_modify k1 demflag 0
fix_modify vf1 demflag 0
fix_modify d1 demflag 0
Step CPU Atoms biomass c_myPres c_myHeight 
  240024            0       18 8.9616711e-16 0.00019580495 3.251298e-07 
number of iteration: 1 
height = 3.258785e-07 
S-sub-bulk = 2.999655e-02
S-sub-base = 2.999950e-02
S-o2-bulk = 1.000000e-02
S-o2-base = 9.999902e-03

  240025 0.0010180473       18 9.1107279e-16 0.00043890823 3.2587847e-07 
Loop time of 0.0010283 on 4 procs for 1 steps with 18 atoms

291.7% CPU use with 4 MPI tasks x no OpenMP threads
fix_modify k1 demflag 1
fix_modify vf1 demflag 1
fix_modify d1 demflag 1
timestep 1e-3
run 10000 pre no post no
Step CPU Atoms biomass c_myPres c_myHeight 
  240025            0       18 9.1107279e-16 0.00043890823 3.2587847e-07 
  241000 0.0036327839       18 9.1107279e-16 0.00014722962 3.2670688e-07 
  242000 0.0078158379       18 9.1107279e-16 0.00014722962 3.2670678e-07 
  243000  0.011890888       18 9.1107279e-16 0.00014722962 3.2670668e-07 
  244000     0.015625       18 9.1107279e-16 0.00014722962 3.2670658e-07 
  245000  0.019427776       18 9.1107279e-16 0.00014722962 3.2670649e-07 
  246000  0.024732828       18 9.1107279e-16 0.00014722962 3.2670639e-07 
  247000  0.030757904       18 9.1107279e-16 0.00014722962 3.2670629e-07 
  248000  0.037439823       18 9.1107279e-16 0.00014722962 3.2670619e-07 
  249000  0.043825865       18 9.1107279e-16 0.00014722962 3.2670609e-07 
  250000  0.049182892       18 9.1107279e-16 0.00014722962 3.2670599e-07 
  250025   0.04932785       18 9.1107279e-16 5.4247629e-05 3.2672253e-07 
Loop time of 0.0493386 on 4 procs for 10000 steps with 18 atoms

99.3% CPU use with 4 MPI tasks x no OpenMP threads
timestep 300
fix_modify k1 demflag 0
fix_modify vf1 demflag 0
fix_modify d1 demflag 0
Step CPU Atoms biomass c_myPres c_myHeight 
  250025            0       18 9.1107279e-16 5.4247629e-05 3.2672253e-07 
number of iteration: 1 
height = 3.272978e-07 
S-sub-bulk = 2.999655e-02
S-sub-base = 2.999950e-02
S-o2-bulk = 1.000000e-02
S-o2-base = 9.999901e-03

  250026 0.0012128353       18 9.2622639e-16 0.00038561041 3.2729776e-07 
Loop time of 0.0012238 on 4 procs for 1 steps with 18 atoms

0.0% CPU use with 4 MPI tasks x no OpenMP threads
fix_modify k1 demflag 1
fix_modify vf1 demflag 1
fix_modify d1 demflag 1
timestep 1e-3
run 10000 pre no post no
Step CPU Atoms biomass c_myPres c_myHeight 
  250026            0       18 9.2622639e-16 0.00038561041 3.2729776e-07 
  251000   0.00461483       18 9.2622639e-16 0.00027251291 3.2784499e-07 
  252000 0.0084350109       18 9.2622639e-16 0.0002724926 3.278449e-07 
  253000  0.013451815       18 9.2622639e-16 0.00027247229 3.278448e-07 
  254000  0.018623829       18 9.2622639e-16 0.00027245198 3.2784471e-07 
  255000  0.022838831       18 9.2622639e-16 0.00027243167 3.2784462e-07 
  256000  0.026616812       18 9.2622639e-16 0.00027241136 3.2784453e-07 
  257000  0.030767918       18 9.2622639e-16 0.00027239105 3.2784444e-07 
  258000  0.035218954       18 9.2622639e-16 0.00027237074 3.2784435e-07 
  259000  0.039000988       18 9.2622639e-16 0.00027235043 3.2784425e-07 
  260000  0.044499874       18 9.2622639e-16 0.00027233012 3.2784416e-07 
  260026  0.044661999       18 9.2622639e-16 0.00027232959 3.2784416e-07 
Loop time of 0.0446754 on 4 procs for 10000 steps with 18 atoms

98.5% CPU use with 4 MPI tasks x no OpenMP threads
timestep 300
fix_modify k1 demflag 0
fix_modify vf1 demflag 0
fix_modify d1 demflag 0
Step CPU Atoms biomass c_myPres c_myHeight 
  260026            0       18 9.2622639e-16 0.00027232959 3.2784416e-07 
number of iteration: 1 
height = 3.284291e-07 
S-sub-bulk = 2.999655e-02
S-sub-base = 2.999949e-02
S-o2-bulk = 1.000000e-02
S-o2-base = 9.999900e-03

  260027 0.0010750294       18 9.4163203e-16 0.00027431462 3.2842913e-07 
Loop time of 0.00108784 on 4 procs for 1 steps with 18 atoms

275.8% CPU use with 4 MPI tasks x no OpenMP threads
fix_modify k1 demflag 1
fix_modify vf1 demflag 1
fix_modify d1 demflag 1
timestep 1e-3
run 10000 pre no post no
Step CPU Atoms biomass c_myPres c_myHeight 
  260027            0       18 9.4163203e-16 0.00027431462 3.2842913e-07 
  261000 0.0044021606       18 9.4163203e-16 8.5234959e-05 3.2909112e-07 
  262000  0.009016037       18 9.4163203e-16 8.5234959e-05 3.2909103e-07 
  263000  0.013228178       18 9.4163203e-16 8.5234959e-05 3.2909093e-07 
  264000  0.018349171       18 9.4163203e-16 8.5234959e-05 3.2909083e-07 
  265000  0.022546053       18 9.4163203e-16 8.5234959e-05 3.2909073e-07 
  266000  0.026766062       18 9.4163203e-16 8.5234959e-05 3.2909063e-07 
  267000  0.031002045       18 9.4163203e-16 8.5234959e-05 3.2909054e-07 
  268000  0.036441088       18 9.4163203e-16 8.5234959e-05 3.2909044e-07 
  269000   0.04162097       18 9.4163203e-16 8.5234959e-05 3.2909034e-07 
  270000    0.0464921       18 9.4163203e-16 8.5234959e-05 3.2909024e-07 
  270027  0.046710968       18 9.4163203e-16 0.00019707654 3.2904141e-07 
Loop time of 0.046726 on 4 procs for 10000 steps with 18 atoms

96.3% CPU use with 4 MPI tasks x no OpenMP threads
timestep 300
fix_modify k1 demflag 0
fix_modify vf1 demflag 0
fix_modify d1 demflag 0
Step CPU Atoms biomass c_myPres c_myHeight 
  270027            0       18 9.4163203e-16 0.00019707654 3.2904141e-07 
number of iteration: 1 
height = 3.296406e-07 
S-sub-bulk = 2.999655e-02
S-sub-base = 2.999949e-02
S-o2-bulk = 1.000000e-02
S-o2-base = 9.999898e-03

  270028 0.0010638237       18 9.5729391e-16 0.00021169212 3.2964064e-07 
Loop time of 0.00107592 on 4 procs for 1 steps with 18 atoms

278.8% CPU use with 4 MPI tasks x no OpenMP threads
fix_modify k1 demflag 1
fix_modify vf1 demflag 1
fix_modify d1 demflag 1
timestep 1e-3
run 10000 pre no post no
Step CPU Atoms biomass c_myPres c_myHeight 
  270028            0       18 9.5729391e-16 0.00021169212 3.2964064e-07 
  271000 0.0041980743       18 9.5729391e-16 2.1354701e-07 3.3030494e-07 
  272000 0.0090270042       18 9.5729391e-16 2.1354701e-07 3.3030487e-07 
  273000  0.015207052       18 9.5729391e-16 2.1354701e-07 3.3030479e-07 
  274000  0.019651175       18 9.5729391e-16 2.1354701e-07 3.3030472e-07 
  275000  0.023914099       18 9.5729391e-16 2.1354701e-07 3.3030465e-07 
  276000  0.028786182       18 9.5729391e-16 2.1354701e-07 3.3030457e-07 
  277000   0.03335309       18 9.5729391e-16 2.1354701e-07 3.303045e-07 
  278000  0.037985086       18 9.5729391e-16 2.1354701e-07 3.3030443e-07 
  279000  0.043908119       18 9.5729391e-16 2.1354701e-07 3.3030435e-07 
  280000   0.04841423       18 9.5729391e-16 2.1354701e-07 3.3030428e-07 
  280028  0.048581123       18 9.5729391e-16 2.1354701e-07 3.3030428e-07 
Loop time of 0.0485902 on 4 procs for 10000 steps with 18 atoms

100.8% CPU use with 4 MPI tasks x no OpenMP threads
timestep 300
fix_modify k1 demflag 0
fix_modify vf1 demflag 0
fix_modify d1 demflag 0
Step CPU Atoms biomass c_myPres c_myHeight 
  280028            0       18 9.5729391e-16 2.1354701e-07 3.3030428e-07 
number of iteration: 1 
height = 3.308869e-07 
S-sub-bulk = 2.999655e-02
S-sub-base = 2.999948e-02
S-o2-bulk = 1.000000e-02
S-o2-base = 9.999897e-03

  280029 0.0010910034       18 9.7321628e-16 0.0004249096 3.308869e-07 
Loop time of 0.00110149 on 4 procs for 1 steps with 18 atoms

0.0% CPU use with 4 MPI tasks x no OpenMP threads
fix_modify k1 demflag 1
fix_modify vf1 demflag 1
fix_modify d1 demflag 1
timestep 1e-3
run 10000 pre no post no
Step CPU Atoms biomass c_myPres c_myHeight 
  280029            0       18 9.7321628e-16 0.0004249096 3.308869e-07 
  281000 0.0040588379       18 9.7321628e-16 3.3097668e-05 3.316629e-07 
  282000 0.0083448887       18 9.7321628e-16 3.3097668e-05 3.3166281e-07 
  283000  0.013478041       18 9.7321628e-16 3.3097668e-05 3.3166271e-07 
  284000  0.018388987       18 9.7321628e-16 3.3097668e-05 3.3166261e-07 
  285000  0.023936987       18 9.7321628e-16 3.3097668e-05 3.3166252e-07 
  286000  0.028486013       18 9.7321628e-16 3.3097668e-05 3.3166242e-07 
  287000  0.032727957       18 9.7321628e-16 3.3097668e-05 3.3166233e-07 
  288000   0.03694582       18 9.7321628e-16 3.3097668e-05 3.3166223e-07 
  289000  0.042204857       18 9.7321628e-16 3.3097668e-05 3.3166213e-07 
  290000  0.046594858       18 9.7321628e-16 3.3097668e-05 3.3166204e-07 
  290029  0.046839952       18 9.7321628e-16 0.00021499035 3.3149631e-07 
Loop time of 0.0468538 on 4 procs for 10000 steps with 18 atoms

102.4% CPU use with 4 MPI tasks x no OpenMP threads
timestep 300
fix_modify k1 demflag 0
fix_modify vf1 demflag 0
fix_modify d1 demflag 0
Step CPU Atoms biomass c_myPres c_myHeight 
  290029            0       18 9.7321628e-16 0.00021499035 3.3149631e-07 
number of iteration: 1 
height = 3.322185e-07 
S-sub-bulk = 2.999655e-02
S-sub-base = 2.999948e-02
S-o2-bulk = 1.000000e-02
S-o2-base = 9.999895e-03

  290030  0.001085043       18 9.8940349e-16 9.2616477e-05 3.3221852e-07 
Loop time of 0.00109959 on 4 procs for 1 steps with 18 atoms

0.0% CPU use with 4 MPI tasks x no OpenMP threads
fix_modify k1 demflag 1
fix_modify vf1 demflag 1
fix_modify d1 demflag 1
timestep 1e-3
run 10000 pre no post no
Step CPU Atoms biomass c_myPres c_myHeight 
  290030            0       18 9.8940349e-16 9.2616477e-05 3.3221852e-07 
  291000 0.0055589676       18 9.8940349e-16 0.00011603177 3.3267822e-07 
  292000  0.009980917       18 9.8940349e-16 0.00011601919 3.3267814e-07 
  293000  0.014172077       18 9.8940349e-16 0.00011600661 3.3267806e-07 
  294000  0.018331051       18 9.8940349e-16 0.00011599403 3.3267797e-07 
  295000  0.023179054       18 9.8940349e-16 0.00011598145 3.3267789e-07 
  296000  0.027787924       18 9.8940349e-16 0.00011596887 3.3267781e-07 
  297000   0.03344202       18 9.8940349e-16 0.00011595628 3.3267772e-07 
  298000  0.038371086       18 9.8940349e-16 0.0001159437 3.3267764e-07 
  299000  0.042653084       18 9.8940349e-16 0.00011593112 3.3267756e-07 
  300000  0.046836138       18 9.8940349e-16 0.00011591854 3.3267747e-07 
  300030  0.047004938       18 9.8940349e-16 0.00011591816 3.3267747e-07 
Loop time of 0.047014 on 4 procs for 10000 steps with 18 atoms

102.1% CPU use with 4 MPI tasks x no OpenMP threads
timestep 300
fix_modify k1 demflag 0
fix_modify vf1 demflag 0
fix_modify d1 demflag 0
Step CPU Atoms biomass c_myPres c_myHeight 
  300030            0       18 9.8940349e-16 0.00011591816 3.3267747e-07 
number of iteration: 1 
height = 3.333621e-07 
S-sub-bulk = 2.999655e-02
S-sub-base = 2.999947e-02
S-o2-bulk = 1.000000e-02
S-o2-base = 9.999894e-03

  300031  0.001085043       18 1.0058599e-15 0.00045218286 3.3336208e-07 
Loop time of 0.00109601 on 4 procs for 1 steps with 18 atoms

0.0% CPU use with 4 MPI tasks x no OpenMP threads
fix_modify k1 demflag 1
fix_modify vf1 demflag 1
fix_modify d1 demflag 1
timestep 1e-3
run 10000 pre no post no
Step CPU Atoms biomass c_myPres c_myHeight 
  300031            0       18 1.0058599e-15 0.00045218286 3.3336208e-07 
  301000 0.0040278435       18 1.0058599e-15 0.00018362201 3.3436545e-07 
  302000 0.0093109608       18 1.0058599e-15 0.00018362201 3.3436534e-07 
  303000  0.014544964       18 1.0058599e-15 0.00018362201 3.3436523e-07 
  304000  0.019890785       18 1.0058599e-15 0.00018362201 3.3436513e-07 
  305000  0.024107933       18 1.0058599e-15 0.00018362201 3.3436502e-07 
  306000  0.028270006       18 1.0058599e-15 0.00018362201 3.3436492e-07 
  307000  0.032457829       18 1.0058599e-15 0.00018362201 3.3436481e-07 
  308000  0.037642956       18 1.0058599e-15 0.00018362201 3.343647e-07 
  309000  0.041942835       18 1.0058599e-15 0.00018362201 3.343646e-07 
  310000  0.047796965       18 1.0058599e-15 0.00018362201 3.3436449e-07 
  310031  0.048036814       18 1.0058599e-15 3.3817771e-05 3.3426303e-07 
Loop time of 0.0480531 on 4 procs for 10000 steps with 18 atoms

99.9% CPU use with 4 MPI tasks x no OpenMP threads
timestep 300
fix_modify k1 demflag 0
fix_modify vf1 demflag 0
fix_modify d1 demflag 0
Step CPU Atoms biomass c_myPres c_myHeight 
  310031            0       18 1.0058599e-15 3.3817771e-05 3.3426303e-07 
number of iteration: 1 
height = 3.349271e-07 
S-sub-bulk = 2.999655e-02
S-sub-base = 2.999947e-02
S-o2-bulk = 1.000000e-02
S-o2-base = 9.999892e-03

  310032 0.0011041164       18 1.0225901e-15 0.00036558516 3.3492713e-07 
Loop time of 0.00111485 on 4 procs for 1 steps with 18 atoms

179.4% CPU use with 4 MPI tasks x no OpenMP threads
fix_modify k1 demflag 1
fix_modify vf1 demflag 1
fix_modify d1 demflag 1
timestep 1e-3
run 10000 pre no post no
Step CPU Atoms biomass c_myPres c_myHeight 
  310032            0       18 1.0225901e-15 0.00036558516 3.3492713e-07 
  311000 0.0043239594       18 1.0225901e-15 0.00025114284 3.3540142e-07 
  312000 0.0085909367       18 1.0225901e-15 0.00025113041 3.3540133e-07 
  313000  0.012863874       18 1.0225901e-15 0.00025111798 3.3540124e-07 
  314000  0.017823935       18 1.0225901e-15 0.00025110555 3.3540115e-07 
  315000  0.022426844       18 1.0225901e-15 0.00025109312 3.3540106e-07 
  316000  0.028057814       18 1.0225901e-15 0.00025108069 3.3540097e-07 
  317000  0.033171892       18 1.0225901e-15 0.00025106826 3.3540089e-07 
  318000  0.037509918       18 1.0225901e-15 0.00025105583 3.354008e-07 
  319000  0.041747808       18 1.0225901e-15 0.0002510434 3.3540071e-07 
  320000  0.045997858       18 1.0225901e-15 0.00025103097 3.3540062e-07 
  320032  0.046234846       18 1.0225901e-15 0.00025103057 3.3540062e-07 
Loop time of 0.0462468 on 4 procs for 10000 steps with 18 atoms

97.3% CPU use with 4 MPI tasks x no OpenMP threads
timestep 300
fix_modify k1 demflag 0
fix_modify vf1 demflag 0
fix_modify d1 demflag 0
Step CPU Atoms biomass c_myPres c_myHeight 
  320032            0       18 1.0225901e-15 0.00025103057 3.3540062e-07 
number of iteration: 1 
height = 3.359521e-07 
S-sub-bulk = 2.999655e-02
S-sub-base = 2.999946e-02
S-o2-bulk = 1.000000e-02
S-o2-base = 9.999891e-03

  320033 0.0012660027       18 1.0395985e-15 0.00038695263 3.3595212e-07 
Loop time of 0.00127876 on 4 procs for 1 steps with 18 atoms

0.0% CPU use with 4 MPI tasks x no OpenMP threads
fix_modify k1 demflag 1
fix_modify vf1 demflag 1
fix_modify d1 demflag 1
timestep 1e-3
run 10000 pre no post no
Step CPU Atoms biomass c_myPres c_myHeight 
  320033            0       18 1.0395985e-15 0.00038695263 3.3595212e-07 
  321000 0.0044770241       18 1.0395985e-15 0.0001774301 3.3688401e-07 
  322000  0.009832859       18 1.0395985e-15 0.0001774301 3.3688392e-07 
  323000  0.015010834       18 1.0395985e-15 0.0001774301 3.3688382e-07 
  324000  0.019524813       18 1.0395985e-15 0.0001774301 3.3688373e-07 
  325000  0.023696899       18 1.0395985e-15 0.0001774301 3.3688364e-07 
  326000   0.02784586       18 1.0395985e-15 0.0001774301 3.3688354e-07 
  327000  0.033027887       18 1.0395985e-15 0.0001774301 3.3688345e-07 
  328000  0.037722826       18 1.0395985e-15 0.0001774301 3.3688336e-07 
  329000  0.043430805       18 1.0395985e-15 0.0001774301 3.3688326e-07 
  330000   0.04843688       18 1.0395985e-15 0.0001774301 3.3688317e-07 
  330033  0.048645973       18 1.0395985e-15 2.406478e-23 3.3689451e-07 
Loop time of 0.0486557 on 4 procs for 10000 steps with 18 atoms

104.8% CPU use with 4 MPI tasks x no OpenMP threads
timestep 300
fix_modify k1 demflag 0
fix_modify vf1 demflag 0
fix_modify d1 demflag 0
Step CPU Atoms biomass c_myPres c_myHeight 
  330033            0       18 1.0395985e-15 2.406478e-23 3.3689451e-07 
number of iteration: 1 
height = 3.374520e-07 
S-sub-bulk = 2.999655e-02
S-sub-base = 2.999946e-02
S-o2-bulk = 1.000000e-02
S-o2-base = 9.999889e-03

  330034 0.0010881424       18 1.0568898e-15 0.00044605314 3.3745203e-07 
Loop time of 0.00109911 on 4 procs for 1 steps with 18 atoms

91.0% CPU use with 4 MPI tasks x no OpenMP threads
fix_modify k1 demflag 1
fix_modify vf1 demflag 1
fix_modify d1 demflag 1
timestep 1e-3
run 10000 pre no post no
Step CPU Atoms biomass c_myPres c_myHeight 
  330034            0       18 1.0568898e-15 0.00044605314 3.3745203e-07 
  331000 0.0040569305       18 1.0568898e-15 0.0004278678 3.3781683e-07 
  332000 0.0082168579       18 1.0568898e-15 0.00042783621 3.3781674e-07 
  333000  0.013434887       18 1.0568898e-15 0.00042780462 3.3781666e-07 
  334000  0.018238783       18 1.0568898e-15 0.00042777303 3.3781657e-07 
  335000  0.023963928       18 1.0568898e-15 0.00042774144 3.3781649e-07 
  336000  0.028380871       18 1.0568898e-15 0.00042770985 3.378164e-07 
  337000  0.032561779       18 1.0568898e-15 0.00042767826 3.3781631e-07 
  338000  0.036763906       18 1.0568898e-15 0.00042764666 3.3781623e-07 
  339000  0.041653872       18 1.0568898e-15 0.00042761507 3.3781614e-07 
  340000  0.046165943       18 1.0568898e-15 0.00042758347 3.3781606e-07 
  340034  0.046336889       18 1.0568898e-15 0.0004275824 3.3781605e-07 
Loop time of 0.0463464 on 4 procs for 10000 steps with 18 atoms

97.1% CPU use with 4 MPI tasks x no OpenMP threads
timestep 300
fix_modify k1 demflag 0
fix_modify vf1 demflag 0
fix_modify d1 demflag 0
Step CPU Atoms biomass c_myPres c_myHeight 
  340034            0       18 1.0568898e-15 0.0004275824 3.3781605e-07 
number of iteration: 1 
height = 3.429725e-07 
S-sub-bulk = 2.999655e-02
S-sub-base = 2.999945e-02
S-o2-bulk = 1.000000e-02
S-o2-base = 9.999887e-03

  340035 0.0010840893       21 1.0744687e-15 0.0032536186 3.4297245e-07 
Loop time of 0.00109458 on 4 procs for 1 steps with 21 atoms

182.7% CPU use with 4 MPI tasks x no OpenMP threads
fix_modify k1 demflag 1
fix_modify vf1 demflag 1
fix_modify d1 demflag 1
timestep 1e-3
run 10000 pre no post no
Step CPU Atoms biomass c_myPres c_myHeight 
  340035            0       21 1.0744687e-15 0.0032536186 3.4297245e-07 
  341000 0.0057959557       21 1.0744687e-15 0.00017293305 3.5164807e-07 
  342000  0.010936975       21 1.0744687e-15 0.00017293292 3.5164801e-07 
  343000  0.015254021       21 1.0744687e-15 0.00017293279 3.5164794e-07 
  344000  0.019595861       21 1.0744687e-15 0.00017293267 3.5164787e-07 
  345000  0.024676085       21 1.0744687e-15 0.00017293254 3.5164781e-07 
  346000  0.029485941       21 1.0744687e-15 0.00017293241 3.5164774e-07 
  347000  0.035172939       21 1.0744687e-15 0.00017293228 3.5164767e-07 
  348000  0.040292978       21 1.0744687e-15 0.00017293215 3.5164761e-07 
  349000  0.044702053       21 1.0744687e-15 0.00017293202 3.5164754e-07 
  350000  0.049067974       21 1.0744687e-15 0.00017293189 3.5164748e-07 
  350035     0.049263       21 1.0744687e-15 0.00013992593 3.5150755e-07 
Loop time of 0.0492718 on 4 procs for 10000 steps with 21 atoms

97.4% CPU use with 4 MPI tasks x no OpenMP threads
timestep 300
fix_modify k1 demflag 0
fix_modify vf1 demflag 0
fix_modify d1 demflag 0
Step CPU Atoms biomass c_myPres c_myHeight 
  350035            0       21 1.0744687e-15 0.00013992593 3.5150755e-07 
number of iteration: 1 
height = 3.521940e-07 
S-sub-bulk = 2.999655e-02
S-sub-base = 2.999945e-02
S-o2-bulk = 1.000000e-02
S-o2-base = 9.999886e-03

  350036 0.0010669231       21  1.09234e-15 0.00037016214 3.5219404e-07 
Loop time of 0.00107795 on 4 procs for 1 steps with 21 atoms

0.0% CPU use with 4 MPI tasks x no OpenMP threads
fix_modify k1 demflag 1
fix_modify vf1 demflag 1
fix_modify d1 demflag 1
timestep 1e-3
run 10000 pre no post no
Step CPU Atoms biomass c_myPres c_myHeight 
  350036            0       21  1.09234e-15 0.00037016214 3.5219404e-07 
  351000 0.0047001839       21  1.09234e-15 0.00016989025 3.5283067e-07 
  352000 0.0094280243       21  1.09234e-15 0.00016989025 3.528306e-07 
  353000  0.015118122       21  1.09234e-15 0.00016989025 3.5283054e-07 
  354000  0.020261049       21  1.09234e-15 0.00016989025 3.5283047e-07 
  355000  0.024626017       21  1.09234e-15 0.00016989025 3.528304e-07 
  356000  0.028894186       21  1.09234e-15 0.00016989025 3.5283034e-07 
  357000  0.033189058       21  1.09234e-15 0.00016989025 3.5283027e-07 
  358000  0.038462162       21  1.09234e-15 0.00016989025 3.528302e-07 
  359000  0.042783022       21  1.09234e-15 0.00016989025 3.5283014e-07 
  360000  0.047057152       21  1.09234e-15 0.00016989025 3.5283007e-07 
  360036  0.047239065       21  1.09234e-15 0.00016989025 3.5283007e-07 
Loop time of 0.0472472 on 4 procs for 10000 steps with 21 atoms

101.6% CPU use with 4 MPI tasks x no OpenMP threads
timestep 300
fix_modify k1 demflag 0
fix_modify vf1 demflag 0
fix_modify d1 demflag 0
Step CPU Atoms biomass c_myPres c_myHeight 
  360036            0       21  1.09234e-15 0.00016989025 3.5283007e-07 
number of iteration: 1 
height = 3.531025e-07 
S-sub-bulk = 2.999655e-02
S-sub-base = 2.999944e-02
S-o2-bulk = 1.000000e-02
S-o2-base = 9.999885e-03

  360037 0.0010559559       21 1.1105086e-15 0.00043292999 3.5310253e-07 
Loop time of 0.00106525 on 4 procs for 1 steps with 21 atoms

187.7% CPU use with 4 MPI tasks x no OpenMP threads
fix_modify k1 demflag 1
fix_modify vf1 demflag 1
fix_modify d1 demflag 1
timestep 1e-3
run 10000 pre no post no
Step CPU Atoms biomass c_myPres c_myHeight 
  360037            0       21 1.1105086e-15 0.00043292999 3.5310253e-07 
  361000 0.0040791035       21 1.1105086e-15 0.00012785322 3.8781358e-07 
  362000 0.0097389221       21 1.1105086e-15 0.00012785322 3.8781352e-07 
  363000  0.014800072       21 1.1105086e-15 0.00012785322 3.8781346e-07 
  364000  0.019950867       21 1.1105086e-15 0.00012785322 3.878134e-07 
  365000  0.025182009       21 1.1105086e-15 0.00012785322 3.8781334e-07 
  366000  0.030669928       21 1.1105086e-15 0.00012785322 3.8781328e-07 
  367000  0.034929991       21 1.1105086e-15 0.00012785322 3.8781322e-07 
  368000  0.039181948       21 1.1105086e-15 0.00012785322 3.8781316e-07 
  369000  0.043492079       21 1.1105086e-15 0.00012785322 3.878131e-07 
  370000  0.048763037       21 1.1105086e-15 0.00012785322 3.8781304e-07 
  370037  0.048960924       21 1.1105086e-15 0.00011484388 3.8776576e-07 
Loop time of 0.0489709 on 4 procs for 10000 steps with 21 atoms

102.1% CPU use with 4 MPI tasks x no OpenMP threads
timestep 300
fix_modify k1 demflag 0
fix_modify vf1 demflag 0
fix_modify d1 demflag 0
Step CPU Atoms biomass c_myPres c_myHeight 
  370037            0       21 1.1105086e-15 0.00011484388 3.8776576e-07 
number of iteration: 1 
height = 4.704096e-07 
S-sub-bulk = 2.999655e-02
S-sub-base = 2.999944e-02
S-o2-bulk = 1.000000e-02
S-o2-base = 9.999884e-03

  370038 0.0010828972       26 1.1289794e-15 0.0039368079 4.7040961e-07 
Loop time of 0.00109446 on 4 procs for 1 steps with 26 atoms

0.0% CPU use with 4 MPI tasks x no OpenMP threads
fix_modify k1 demflag 1
fix_modify vf1 demflag 1
fix_modify d1 demflag 1
timestep 1e-3
run 10000 pre no post no
Step CPU Atoms biomass c_myPres c_myHeight 
  370038            0       26 1.1289794e-15 0.0039368079 4.7040961e-07 
  371000 0.0054030418       26 1.1289794e-15 0.00011200862 4.7748993e-07 
  372000  0.011541128       26 1.1289794e-15 0.0001120082 4.7748993e-07 
  373000  0.016013145       26 1.1289794e-15 0.00011200778 4.7748993e-07 
  374000  0.020423174       26 1.1289794e-15 0.00011200736 4.7748992e-07 
  375000   0.02480197       26 1.1289794e-15 0.00011200695 4.7748992e-07 
  376000  0.030320168       26 1.1289794e-15 0.00011200653 4.7748992e-07 
  377000  0.035526037       26 1.1289794e-15 0.00011200611 4.7748991e-07 
  378000  0.041710138       26 1.1289794e-15 0.00011200569 4.7748991e-07 
  379000  0.046178102       26 1.1289794e-15 0.00011200527 4.7748991e-07 
  380000  0.050621033       26 1.1289794e-15 0.00011200485 4.774899e-07 
  380038  0.050832033       26 1.1289794e-15 0.00011200484 4.774899e-07 
Loop time of 0.050842 on 4 procs for 10000 steps with 26 atoms

102.3% CPU use with 4 MPI tasks x no OpenMP threads
timestep 300
fix_modify k1 demflag 0
fix_modify vf1 demflag 0
fix_modify d1 demflag 0
Step CPU Atoms biomass c_myPres c_myHeight 
  380038            0       26 1.1289794e-15 0.00011200484 4.774899e-07 
number of iteration: 1 
height = 4.781288e-07 
S-sub-bulk = 2.999655e-02
S-sub-base = 2.999944e-02
S-o2-bulk = 1.000000e-02
S-o2-base = 9.999883e-03

  380039 0.0010712147       26 1.1477573e-15 0.00034259157 4.781288e-07 
Loop time of 0.0010829 on 4 procs for 1 steps with 26 atoms

0.0% CPU use with 4 MPI tasks x no OpenMP threads
fix_modify k1 demflag 1
fix_modify vf1 demflag 1
fix_modify d1 demflag 1
timestep 1e-3
run 10000 pre no post no
Step CPU Atoms biomass c_myPres c_myHeight 
  380039            0       26 1.1477573e-15 0.00034259157 4.781288e-07 
  381000 0.0043520927       26 1.1477573e-15 0.00017570314 4.788239e-07 
  382000 0.0097911358       26 1.1477573e-15 0.00017570314 4.7882389e-07 
  383000  0.015562057       26 1.1477573e-15 0.00017570314 4.7882389e-07 
  384000   0.02114892       26 1.1477573e-15 0.00017570314 4.7882388e-07 
  385000  0.025820017       26 1.1477573e-15 0.00017570314 4.7882388e-07 
  386000  0.030244112       26 1.1477573e-15 0.00017570314 4.7882388e-07 
  387000  0.034862995       26 1.1477573e-15 0.00017570314 4.7882387e-07 
  388000  0.040149927       26 1.1477573e-15 0.00017570314 4.7882387e-07 
  389000  0.046205997       26 1.1477573e-15 0.00017570314 4.7882386e-07 
  390000  0.051559925       26 1.1477573e-15 0.00017570314 4.7882386e-07 
  390039  0.051882982       26 1.1477573e-15 0.00030172328 4.7866722e-07 
Loop time of 0.0518998 on 4 procs for 10000 steps with 26 atoms

100.2% CPU use with 4 MPI tasks x no OpenMP threads
timestep 300
fix_modify k1 demflag 0
fix_modify vf1 demflag 0
fix_modify d1 demflag 0
Step CPU Atoms biomass c_myPres c_myHeight 
  390039            0       26 1.1477573e-15 0.00030172328 4.7866722e-07 
number of iteration: 1 
height = 4.795430e-07 
S-sub-bulk = 2.999655e-02
S-sub-base = 2.999943e-02
S-o2-bulk = 1.000000e-02
S-o2-base = 9.999882e-03

  390040 0.0011100769       26 1.1668476e-15 0.00035152295 4.7954301e-07 
Loop time of 0.00112176 on 4 procs for 1 steps with 26 atoms

0.0% CPU use with 4 MPI tasks x no OpenMP threads
fix_modify k1 demflag 1
fix_modify vf1 demflag 1
fix_modify d1 demflag 1
timestep 1e-3
run 10000 pre no post no
Step CPU Atoms biomass c_myPres c_myHeight 
  390040            0       26 1.1668476e-15 0.00035152295 4.7954301e-07 
  391000 0.0041790009       26 1.1668476e-15 2.2135889e-05 4.8062981e-07 
  392000 0.0085020065       26 1.1668476e-15 2.2135889e-05 4.8062981e-07 
  393000  0.013581038       26 1.1668476e-15 2.2135889e-05 4.806298e-07 
  394000  0.018364191       26 1.1668476e-15 2.2135889e-05 4.8062979e-07 
  395000  0.024713993       26 1.1668476e-15 2.2135889e-05 4.8062979e-07 
  396000  0.029597998       26 1.1668476e-15 2.2135889e-05 4.8062978e-07 
  397000  0.033994198       26 1.1668476e-15 2.2135889e-05 4.8062977e-07 
  398000  0.038331032       26 1.1668476e-15 2.2135889e-05 4.8062977e-07 
  399000    0.0427742       26 1.1668476e-15 2.2135889e-05 4.8062976e-07 
  400000  0.048116207       26 1.1668476e-15 2.2135889e-05 4.8062975e-07 
  400040  0.048325062       26 1.1668476e-15 2.2135889e-05 4.8062975e-07 
Loop time of 0.0483345 on 4 procs for 10000 steps with 26 atoms

101.4% CPU use with 4 MPI tasks x no OpenMP threads
timestep 300
fix_modify k1 demflag 0
fix_modify vf1 demflag 0
fix_modify d1 demflag 0
Step CPU Atoms biomass c_myPres c_myHeight 
  400040            0       26 1.1668476e-15 2.2135889e-05 4.8062975e-07 
number of iteration: 1 
height = 5.111578e-07 
S-sub-bulk = 2.999655e-02
S-sub-base = 2.999943e-02
S-o2-bulk = 1.000000e-02
S-o2-base = 9.999881e-03

  400041 0.0010778904       27 1.1862555e-15 0.00085614283 5.1115777e-07 
Loop time of 0.00108963 on 4 procs for 1 steps with 27 atoms

275.3% CPU use with 4 MPI tasks x no OpenMP threads
fix_modify k1 demflag 1
fix_modify vf1 demflag 1
fix_modify d1 demflag 1
timestep 1e-3
run 10000 pre no post no
Step CPU Atoms biomass c_myPres c_myHeight 
  400041            0       27 1.1862555e-15 0.00085614283 5.1115777e-07 
  401000 0.0065200329       27 1.1862555e-15 1.6331008e-05 5.1303205e-07 
  402000  0.011312962       27 1.1862555e-15 1.6331008e-05 5.1303204e-07 
  403000  0.015800953       27 1.1862555e-15 1.6331008e-05 5.1303203e-07 
  404000  0.020244122       27 1.1862555e-15 1.6331008e-05 5.1303202e-07 
  405000  0.025478125       27 1.1862555e-15 1.6331008e-05 5.1303201e-07 
  406000  0.030175924       27 1.1862555e-15 1.6331008e-05  5.13032e-07 
  407000  0.036721945       27 1.1862555e-15 1.6331008e-05 5.1303199e-07 
  408000  0.041729927       27 1.1862555e-15 1.6331008e-05 5.1303198e-07 
  409000  0.046265125       27 1.1862555e-15 1.6331008e-05 5.1303198e-07 
  410000  0.050743103       27 1.1862555e-15 1.6331008e-05 5.1303197e-07 
  410041  0.050966024       27 1.1862555e-15 0.00042174828 5.1273455e-07 
Loop time of 0.0509763 on 4 procs for 10000 steps with 27 atoms

98.1% CPU use with 4 MPI tasks x no OpenMP threads
timestep 300
fix_modify k1 demflag 0
fix_modify vf1 demflag 0
fix_modify d1 demflag 0
Step CPU Atoms biomass c_myPres c_myHeight 
  410041            0       27 1.1862555e-15 0.00042174828 5.1273455e-07 
number of iteration: 1 
height = 5.137917e-07 
S-sub-bulk = 2.999655e-02
S-sub-base = 2.999943e-02
S-o2-bulk = 1.000000e-02
S-o2-base = 9.999879e-03

  410042 0.0010659695       27 1.2059861e-15 0.00014170279 5.1379172e-07 
Loop time of 0.0010767 on 4 procs for 1 steps with 27 atoms

185.8% CPU use with 4 MPI tasks x no OpenMP threads
fix_modify k1 demflag 1
fix_modify vf1 demflag 1
fix_modify d1 demflag 1
timestep 1e-3
run 10000 pre no post no
Step CPU Atoms biomass c_myPres c_myHeight 
  410042            0       27 1.2059861e-15 0.00014170279 5.1379172e-07 
  411000 0.0052170753       27 1.2059861e-15 0.0001013658 5.1473916e-07 
  412000  0.010173082       27 1.2059861e-15 0.0001013658 5.1473915e-07 
  413000  0.016611099       27 1.2059861e-15 0.0001013658 5.1473914e-07 
  414000  0.021333933       27 1.2059861e-15 0.0001013658 5.1473912e-07 
  415000  0.025793076       27 1.2059861e-15 0.0001013658 5.1473911e-07 
  416000  0.030293941       27 1.2059861e-15 0.0001013658 5.147391e-07 
  417000  0.035747051       27 1.2059861e-15 0.0001013658 5.1473909e-07 
  418000  0.040611029       27 1.2059861e-15 0.0001013658 5.1473908e-07 
  419000  0.047124147       27 1.2059861e-15 0.0001013658 5.1473907e-07 
  420000  0.051824093       27 1.2059861e-15 0.0001013658 5.1473905e-07 
  420042  0.052053928       27 1.2059861e-15 0.0001013658 5.1473905e-07 
Loop time of 0.0520627 on 4 procs for 10000 steps with 27 atoms

99.9% CPU use with 4 MPI tasks x no OpenMP threads
timestep 300
fix_modify k1 demflag 0
fix_modify vf1 demflag 0
fix_modify d1 demflag 0
Step CPU Atoms biomass c_myPres c_myHeight 
  420042            0       27 1.2059861e-15 0.0001013658 5.1473905e-07 
number of iteration: 1 
height = 5.150961e-07 
S-sub-bulk = 2.999655e-02
S-sub-base = 2.999942e-02
S-o2-bulk = 1.000000e-02
S-o2-base = 9.999878e-03

  420043 0.0010678768       27 1.2260449e-15 0.0003873892 5.1509613e-07 
Loop time of 0.00108027 on 4 procs for 1 steps with 27 atoms

0.0% CPU use with 4 MPI tasks x no OpenMP threads
fix_modify k1 demflag 1
fix_modify vf1 demflag 1
fix_modify d1 demflag 1
timestep 1e-3
run 10000 pre no post no
Step CPU Atoms biomass c_myPres c_myHeight 
  420043            0       27 1.2260449e-15 0.0003873892 5.1509613e-07 
  421000 0.0042378902       27 1.2260449e-15 0.00015461318 5.1634925e-07 
  422000 0.0086948872       27 1.2260449e-15 0.00015461318 5.1634924e-07 
  423000  0.014250994       27 1.2260449e-15 0.00015461318 5.1634923e-07 
  424000  0.019589901       27 1.2260449e-15 0.00015461318 5.1634921e-07 
  425000  0.025460958       27 1.2260449e-15 0.00015461318 5.163492e-07 
  426000  0.030323982       27 1.2260449e-15 0.00015461318 5.1634918e-07 
  427000   0.03481698       27 1.2260449e-15 0.00015461318 5.1634917e-07 
  428000  0.039277792       27 1.2260449e-15 0.00015461318 5.1634916e-07 
  429000  0.044814825       27 1.2260449e-15 0.00015461318 5.1634914e-07 
  430000  0.050253868       27 1.2260449e-15 0.00015461318 5.1634913e-07 
  430043  0.050571918       27 1.2260449e-15 0.00016387076 5.158947e-07 
Loop time of 0.0505829 on 4 procs for 10000 steps with 27 atoms

102.8% CPU use with 4 MPI tasks x no OpenMP threads
timestep 300
fix_modify k1 demflag 0
fix_modify vf1 demflag 0
fix_modify d1 demflag 0
Step CPU Atoms biomass c_myPres c_myHeight 
  430043            0       27 1.2260449e-15 0.00016387076 5.158947e-07 
number of iteration: 1 
height = 5.171173e-07 
S-sub-bulk = 2.999655e-02
S-sub-base = 2.999942e-02
S-o2-bulk = 1.000000e-02
S-o2-base = 9.999876e-03

  430044 0.0010828972       27 1.2464373e-15 0.00026945269 5.1711729e-07 
Loop time of 0.00109798 on 4 procs for 1 steps with 27 atoms

0.0% CPU use with 4 MPI tasks x no OpenMP threads
fix_modify k1 demflag 1
fix_modify vf1 demflag 1
fix_modify d1 demflag 1
timestep 1e-3
run 10000 pre no post no
Step CPU Atoms biomass c_myPres c_myHeight 
  430044            0       27 1.2464373e-15 0.00026945269 5.1711729e-07 
  431000 0.0052351952       27 1.2464373e-15 6.7251411e-05 5.013284e-07 
  432000 0.0098509789       27 1.2464373e-15 6.7251411e-05 5.0132838e-07 
  433000  0.014371157       27 1.2464373e-15 6.7251411e-05 5.0132836e-07 
  434000  0.018796206       27 1.2464373e-15 6.7251411e-05 5.0132835e-07 
  435000  0.024371147       27 1.2464373e-15 6.7251411e-05 5.0132833e-07 
  436000  0.031095982       27 1.2464373e-15 6.7251411e-05 5.0132832e-07 
  437000  0.036303043       27 1.2464373e-15 6.7251411e-05 5.013283e-07 
  438000  0.040798187       27 1.2464373e-15 6.7251411e-05 5.0132828e-07 
  439000  0.045233011       27 1.2464373e-15 6.7251411e-05 5.0132827e-07 
  440000  0.049815178       27 1.2464373e-15 6.7251411e-05 5.0132825e-07 
  440044  0.050123215       27 1.2464373e-15 6.7251411e-05 5.0132825e-07 
Loop time of 0.0501349 on 4 procs for 10000 steps with 27 atoms

101.7% CPU use with 4 MPI tasks x no OpenMP threads
timestep 300
fix_modify k1 demflag 0
fix_modify vf1 demflag 0
fix_modify d1 demflag 0
Step CPU Atoms biomass c_myPres c_myHeight 
  440044            0       27 1.2464373e-15 6.7251411e-05 5.0132825e-07 
number of iteration: 1 
height = 5.016734e-07 
S-sub-bulk = 2.999655e-02
S-sub-base = 2.999941e-02
S-o2-bulk = 1.000000e-02
S-o2-base = 9.999875e-03

  440045 0.0011379719       27 1.2671689e-15 0.00064221143 5.0167337e-07 
Loop time of 0.00115049 on 4 procs for 1 steps with 27 atoms

86.9% CPU use with 4 MPI tasks x no OpenMP threads
fix_modify k1 demflag 1
fix_modify vf1 demflag 1
fix_modify d1 demflag 1
timestep 1e-3
run 10000 pre no post no
Step CPU Atoms biomass c_myPres c_myHeight 
  440045            0       27 1.2671689e-15 0.00064221143 5.0167337e-07 
  441000 0.0044620037       27 1.2671689e-15 6.685945e-06 5.0280981e-07 
  442000  0.011011124       27 1.2671689e-15 6.685945e-06 5.0280979e-07 
  443000  0.016206026       27 1.2671689e-15 6.685945e-06 5.0280977e-07 
  444000    0.0206182       27 1.2671689e-15 6.685945e-06 5.0280975e-07 
  445000  0.025112152       27 1.2671689e-15 6.685945e-06 5.0280974e-07 
  446000  0.030376196       27 1.2671689e-15 6.685945e-06 5.0280972e-07 
  447000  0.035076141       27 1.2671689e-15 6.685945e-06 5.028097e-07 
  448000  0.041640043       27 1.2671689e-15 6.685945e-06 5.0280968e-07 
  449000  0.046677113       27 1.2671689e-15 6.685945e-06 5.0280966e-07 
  450000  0.051106215       27 1.2671689e-15 6.685945e-06 5.0280964e-07 
  450045  0.051366091       27 1.2671689e-15 0.0002682186 5.0246748e-07 
Loop time of 0.0513748 on 4 procs for 10000 steps with 27 atoms

101.2% CPU use with 4 MPI tasks x no OpenMP threads
timestep 300
fix_modify k1 demflag 0
fix_modify vf1 demflag 0
fix_modify d1 demflag 0
Step CPU Atoms biomass c_myPres c_myHeight 
  450045            0       27 1.2671689e-15 0.0002682186 5.0246748e-07 
number of iteration: 1 
height = 5.226712e-07 
S-sub-bulk = 2.999655e-02
S-sub-base = 2.999941e-02
S-o2-bulk = 1.000000e-02
S-o2-base = 9.999873e-03

  450046 0.0010960102       28 1.2882454e-15 0.00012139567 5.2267117e-07 
Loop time of 0.0011065 on 4 procs for 1 steps with 28 atoms

0.0% CPU use with 4 MPI tasks x no OpenMP threads
fix_modify k1 demflag 1
fix_modify vf1 demflag 1
fix_modify d1 demflag 1
timestep 1e-3
run 10000 pre no post no
Step CPU Atoms biomass c_myPres c_myHeight 
  450046            0       28 1.2882454e-15 0.00012139567 5.2267117e-07 
  451000 0.0042490959       28 1.2882454e-15 7.4373597e-05 5.2306128e-07 
  452000  0.009802103       28 1.2882454e-15 7.4373597e-05 5.2306126e-07 
  453000  0.014665127       28 1.2882454e-15 7.4373597e-05 5.2306124e-07 
  454000  0.021090031       28 1.2882454e-15 7.4373597e-05 5.2306122e-07 
  455000  0.025976181       28 1.2882454e-15 7.4373597e-05 5.230612e-07 
  456000  0.030460119       28 1.2882454e-15 7.4373597e-05 5.2306118e-07 
  457000   0.03491807       28 1.2882454e-15 7.4373597e-05 5.2306116e-07 
  458000  0.040548086       28 1.2882454e-15 7.4373597e-05 5.2306114e-07 
[...]

number of iteration: 1 
S-sub-bulk = 2.201674e-02
S-sub-base = 2.149263e-02
S-o2-bulk = 1.000000e-02
S-o2-base = 9.911060e-03

number of iteration: 1 
S-sub-bulk = 2.201674e-02
S-sub-base = 2.149262e-02
S-o2-bulk = 1.000000e-02
S-o2-base = 9.911061e-03

number of iteration: 1 
S-sub-bulk = 2.201674e-02
S-sub-base = 2.149262e-02
S-o2-bulk = 1.000000e-02
S-o2-base = 9.911061e-03

number of iteration: 1 
S-sub-bulk = 2.201674e-02
S-sub-base = 2.149262e-02
S-o2-bulk = 1.000000e-02
S-o2-base = 9.911062e-03

number of iteration: 1 
S-sub-bulk = 2.201674e-02
S-sub-base = 2.149261e-02
S-o2-bulk = 1.000000e-02
S-o2-base = 9.911062e-03

number of iteration: 1 
S-sub-bulk = 2.201674e-02
S-sub-base = 2.149261e-02
S-o2-bulk = 1.000000e-02
S-o2-base = 9.911062e-03

number of iteration: 1 
S-sub-bulk = 2.201674e-02
S-sub-base = 2.149261e-02
S-o2-bulk = 1.000000e-02
S-o2-base = 9.911063e-03

number of iteration: 1 
S-sub-bulk = 2.201674e-02
S-sub-base = 2.149261e-02
S-o2-bulk = 1.000000e-02
S-o2-base = 9.911063e-03

number of iteration: 1 
S-sub-bulk = 2.201674e-02
S-sub-base = 2.149260e-02
S-o2-bulk = 1.000000e-02
S-o2-base = 9.911064e-03

number of iteration: 1 
S-sub-bulk = 2.201674e-02
S-sub-base = 2.149260e-02
S-o2-bulk = 1.000000e-02
S-o2-base = 9.911064e-03

number of iteration: 1 
S-sub-bulk = 2.201674e-02
S-sub-base = 2.149260e-02
S-o2-bulk = 1.000000e-02
S-o2-base = 9.911065e-03

number of iteration: 1 
S-sub-bulk = 2.201674e-02
S-sub-base = 2.149259e-02
S-o2-bulk = 1.000000e-02
S-o2-base = 9.911065e-03

number of iteration: 1 
S-sub-bulk = 2.201674e-02
S-sub-base = 2.149259e-02
S-o2-bulk = 1.000000e-02
S-o2-base = 9.911065e-03

number of iteration: 1 
S-sub-bulk = 2.201674e-02
S-sub-base = 2.149259e-02
S-o2-bulk = 1.000000e-02
S-o2-base = 9.911066e-03

number of iteration: 1 
S-sub-bulk = 2.201674e-02
S-sub-base = 2.149259e-02
S-o2-bulk = 1.000000e-02
S-o2-base = 9.911066e-03

number of iteration: 1 
S-sub-bulk = 2.201674e-02
S-sub-base = 2.149258e-02
S-o2-bulk = 1.000000e-02
S-o2-base = 9.911067e-03

number of iteration: 1 
S-sub-bulk = 2.201674e-02
S-sub-base = 2.149258e-02
S-o2-bulk = 1.000000e-02
S-o2-base = 9.911067e-03

number of iteration: 1 
S-sub-bulk = 2.201674e-02
S-sub-base = 2.149258e-02
S-o2-bulk = 1.000000e-02
S-o2-base = 9.911068e-03

number of iteration: 1 
S-sub-bulk = 2.201674e-02
S-sub-base = 2.149257e-02
S-o2-bulk = 1.000000e-02
S-o2-base = 9.911068e-03

number of iteration: 1 
S-sub-bulk = 2.201674e-02
S-sub-base = 2.149257e-02
S-o2-bulk = 1.000000e-02
S-o2-base = 9.911068e-03

number of iteration: 1 
S-sub-bulk = 2.201674e-02
S-sub-base = 2.149257e-02
S-o2-bulk = 1.000000e-02
S-o2-base = 9.911069e-03

number of iteration: 1 
S-sub-bulk = 2.201674e-02
S-sub-base = 2.149256e-02
S-o2-bulk = 1.000000e-02
S-o2-base = 9.911069e-03

number of iteration: 1 
S-sub-bulk = 2.201674e-02
S-sub-base = 2.149256e-02
S-o2-bulk = 1.000000e-02
S-o2-base = 9.911070e-03

number of iteration: 1 
S-sub-bulk = 2.201674e-02
S-sub-base = 2.149256e-02
S-o2-bulk = 1.000000e-02
S-o2-base = 9.911070e-03

number of iteration: 1 
S-sub-bulk = 2.201674e-02
S-sub-base = 2.149256e-02
S-o2-bulk = 1.000000e-02
S-o2-base = 9.911070e-03

number of iteration: 1 
S-sub-bulk = 2.201674e-02
S-sub-base = 2.149255e-02
S-o2-bulk = 1.000000e-02
S-o2-base = 9.911071e-03

number of iteration: 1 
S-sub-bulk = 2.201674e-02
S-sub-base = 2.149255e-02
S-o2-bulk = 1.000000e-02
S-o2-base = 9.911071e-03

number of iteration: 1 
S-sub-bulk = 2.201674e-02
S-sub-base = 2.149255e-02
S-o2-bulk = 1.000000e-02
S-o2-base = 9.911072e-03

number of iteration: 1 
S-sub-bulk = 2.201674e-02
S-sub-base = 2.149254e-02
S-o2-bulk = 1.000000e-02
S-o2-base = 9.911072e-03

number of iteration: 1 
S-sub-bulk = 2.201674e-02
S-sub-base = 2.149254e-02
S-o2-bulk = 1.000000e-02
S-o2-base = 9.911073e-03

number of iteration: 1 
S-sub-bulk = 2.201674e-02
S-sub-base = 2.149254e-02
S-o2-bulk = 1.000000e-02
S-o2-base = 9.911073e-03

number of iteration: 1 
S-sub-bulk = 2.201674e-02
S-sub-base = 2.149254e-02
S-o2-bulk = 1.000000e-02
S-o2-base = 9.911073e-03

number of iteration: 1 
S-sub-bulk = 2.201674e-02
S-sub-base = 2.149253e-02
S-o2-bulk = 1.000000e-02
S-o2-base = 9.911074e-03

number of iteration: 1 
S-sub-bulk = 2.201674e-02
S-sub-base = 2.149253e-02
S-o2-bulk = 1.000000e-02
S-o2-base = 9.911074e-03

number of iteration: 1 
S-sub-bulk = 2.201674e-02
S-sub-base = 2.149253e-02
S-o2-bulk = 1.000000e-02
S-o2-base = 9.911075e-03

number of iteration: 1 
S-sub-bulk = 2.201674e-02
S-sub-base = 2.149252e-02
S-o2-bulk = 1.000000e-02
S-o2-base = 9.911075e-03

number of iteration: 1 
S-sub-bulk = 2.201674e-02
S-sub-base = 2.149252e-02
S-o2-bulk = 1.000000e-02
S-o2-base = 9.911076e-03

number of iteration: 1 
S-sub-bulk = 2.201674e-02
S-sub-base = 2.149252e-02
S-o2-bulk = 1.000000e-02
S-o2-base = 9.911076e-03

number of iteration: 1 
S-sub-bulk = 2.201674e-02
S-sub-base = 2.149251e-02
S-o2-bulk = 1.000000e-02
S-o2-base = 9.911076e-03

number of iteration: 1 
S-sub-bulk = 2.201674e-02
S-sub-base = 2.149251e-02
S-o2-bulk = 1.000000e-02
S-o2-base = 9.911077e-03

number of iteration: 1 
S-sub-bulk = 2.201674e-02
S-sub-base = 2.149251e-02
S-o2-bulk = 1.000000e-02
S-o2-base = 9.911077e-03

number of iteration: 1 
S-sub-bulk = 2.201674e-02
S-sub-base = 2.149251e-02
S-o2-bulk = 1.000000e-02
S-o2-base = 9.911078e-03

number of iteration: 1 
S-sub-bulk = 2.201674e-02
S-sub-base = 2.149250e-02
S-o2-bulk = 1.000000e-02
S-o2-base = 9.911078e-03

number of iteration: 1 
S-sub-bulk = 2.201674e-02
S-sub-base = 2.149250e-02
S-o2-bulk = 1.000000e-02
S-o2-base = 9.911078e-03

number of iteration: 1 
S-sub-bulk = 2.201674e-02
S-sub-base = 2.149250e-02
S-o2-bulk = 1.000000e-02
S-o2-base = 9.911079e-03

number of iteration: 1 
S-sub-bulk = 2.201674e-02
S-sub-base = 2.149249e-02
S-o2-bulk = 1.000000e-02
S-o2-base = 9.911079e-03

number of iteration: 1 
S-sub-bulk = 2.201674e-02
S-sub-base = 2.149249e-02
S-o2-bulk = 1.000000e-02
S-o2-base = 9.911080e-03

number of iteration: 1 
S-sub-bulk = 2.201674e-02
S-sub-base = 2.149249e-02
S-o2-bulk = 1.000000e-02
S-o2-base = 9.911080e-03

number of iteration: 1 
S-sub-bulk = 2.201674e-02
S-sub-base = 2.149249e-02
S-o2-bulk = 1.000000e-02
S-o2-base = 9.911081e-03

number of iteration: 1 
S-sub-bulk = 2.201674e-02
S-sub-base = 2.149248e-02
S-o2-bulk = 1.000000e-02
S-o2-base = 9.911081e-03

number of iteration: 1 
S-sub-bulk = 2.201674e-02
S-sub-base = 2.149248e-02
S-o2-bulk = 1.000000e-02
S-o2-base = 9.911081e-03

number of iteration: 1 
S-sub-bulk = 2.201674e-02
S-sub-base = 2.149248e-02
S-o2-bulk = 1.000000e-02
S-o2-base = 9.911082e-03

number of iteration: 1 
S-sub-bulk = 2.201674e-02
S-sub-base = 2.149247e-02
S-o2-bulk = 1.000000e-02
S-o2-base = 9.911082e-03

number of iteration: 1 
S-sub-bulk = 2.201674e-02
S-sub-base = 2.149247e-02
S-o2-bulk = 1.000000e-02
S-o2-base = 9.911083e-03

number of iteration: 1 
S-sub-bulk = 2.201674e-02
S-sub-base = 2.149247e-02
S-o2-bulk = 1.000000e-02
S-o2-base = 9.911083e-03

number of iteration: 1 
S-sub-bulk = 2.201674e-02
S-sub-base = 2.149246e-02
S-o2-bulk = 1.000000e-02
S-o2-base = 9.911083e-03

number of iteration: 1 
S-sub-bulk = 2.201674e-02
S-sub-base = 2.149246e-02
S-o2-bulk = 1.000000e-02
S-o2-base = 9.911084e-03

number of iteration: 1 
S-sub-bulk = 2.201674e-02
S-sub-base = 2.149246e-02
S-o2-bulk = 1.000000e-02
S-o2-base = 9.911084e-03

number of iteration: 1 
S-sub-bulk = 2.201675e-02
S-sub-base = 2.149246e-02
S-o2-bulk = 1.000000e-02
S-o2-base = 9.911085e-03

number of iteration: 1 
S-sub-bulk = 2.201675e-02
S-sub-base = 2.149245e-02
S-o2-bulk = 1.000000e-02
S-o2-base = 9.911085e-03

number of iteration: 1 
S-sub-bulk = 2.201675e-02
S-sub-base = 2.149245e-02
S-o2-bulk = 1.000000e-02
S-o2-base = 9.911085e-03

number of iteration: 1 
S-sub-bulk = 2.201675e-02
S-sub-base = 2.149245e-02
S-o2-bulk = 1.000000e-02
S-o2-base = 9.911086e-03

number of iteration: 1 
S-sub-bulk = 2.201675e-02
S-sub-base = 2.149244e-02
S-o2-bulk = 1.000000e-02
S-o2-base = 9.911086e-03

number of iteration: 1 
S-sub-bulk = 2.201675e-02
S-sub-base = 2.149244e-02
S-o2-bulk = 1.000000e-02
S-o2-base = 9.911087e-03

number of iteration: 1 
S-sub-bulk = 2.201675e-02
S-sub-base = 2.149244e-02
S-o2-bulk = 1.000000e-02
S-o2-base = 9.911087e-03

number of iteration: 1 
S-sub-bulk = 2.201675e-02
S-sub-base = 2.149244e-02
S-o2-bulk = 1.000000e-02
S-o2-base = 9.911088e-03

number of iteration: 1 
S-sub-bulk = 2.201675e-02
S-sub-base = 2.149243e-02
S-o2-bulk = 1.000000e-02
S-o2-base = 9.911088e-03

number of iteration: 1 
S-sub-bulk = 2.201675e-02
S-sub-base = 2.149243e-02
S-o2-bulk = 1.000000e-02
S-o2-base = 9.911088e-03

number of iteration: 1 
S-sub-bulk = 2.201675e-02
S-sub-base = 2.149243e-02
S-o2-bulk = 1.000000e-02
S-o2-base = 9.911089e-03

number of iteration: 1 
S-sub-bulk = 2.201675e-02
S-sub-base = 2.149242e-02
S-o2-bulk = 1.000000e-02
S-o2-base = 9.911089e-03

number of iteration: 1 
S-sub-bulk = 2.201675e-02
S-sub-base = 2.149242e-02
S-o2-bulk = 1.000000e-02
S-o2-base = 9.911090e-03

number of iteration: 1 
S-sub-bulk = 2.201675e-02
S-sub-base = 2.149242e-02
S-o2-bulk = 1.000000e-02
S-o2-base = 9.911090e-03

number of iteration: 1 
S-sub-bulk = 2.201675e-02
S-sub-base = 2.149241e-02
S-o2-bulk = 1.000000e-02
S-o2-base = 9.911090e-03

number of iteration: 1 
S-sub-bulk = 2.201675e-02
S-sub-base = 2.149241e-02
S-o2-bulk = 1.000000e-02
S-o2-base = 9.911091e-03

number of iteration: 1 
S-sub-bulk = 2.201675e-02
S-sub-base = 2.149241e-02
S-o2-bulk = 1.000000e-02
S-o2-base = 9.911091e-03

number of iteration: 1 
S-sub-bulk = 2.201675e-02
S-sub-base = 2.149241e-02
S-o2-bulk = 1.000000e-02
S-o2-base = 9.911092e-03

number of iteration: 1 
S-sub-bulk = 2.201675e-02
S-sub-base = 2.149240e-02
S-o2-bulk = 1.000000e-02
S-o2-base = 9.911092e-03

number of iteration: 1 
S-sub-bulk = 2.201675e-02
S-sub-base = 2.149240e-02
S-o2-bulk = 1.000000e-02
S-o2-base = 9.911092e-03

number of iteration: 1 
S-sub-bulk = 2.201675e-02
S-sub-base = 2.149240e-02
S-o2-bulk = 1.000000e-02
S-o2-base = 9.911093e-03

number of iteration: 1 
S-sub-bulk = 2.201675e-02
S-sub-base = 2.149239e-02
S-o2-bulk = 1.000000e-02
S-o2-base = 9.911093e-03

number of iteration: 1 
S-sub-bulk = 2.201675e-02
S-sub-base = 2.149239e-02
S-o2-bulk = 1.000000e-02
S-o2-base = 9.911094e-03

number of iteration: 1 
S-sub-bulk = 2.201675e-02
S-sub-base = 2.149239e-02
S-o2-bulk = 1.000000e-02
S-o2-base = 9.911094e-03

number of iteration: 1 
S-sub-bulk = 2.201675e-02
S-sub-base = 2.149239e-02
S-o2-bulk = 1.000000e-02
S-o2-base = 9.911094e-03

number of iteration: 1 
S-sub-bulk = 2.201675e-02
S-sub-base = 2.149238e-02
S-o2-bulk = 1.000000e-02
S-o2-base = 9.911095e-03

number of iteration: 1 
S-sub-bulk = 2.201675e-02
S-sub-base = 2.149238e-02
S-o2-bulk = 1.000000e-02
S-o2-base = 9.911095e-03

number of iteration: 1 
S-sub-bulk = 2.201675e-02
S-sub-base = 2.149238e-02
S-o2-bulk = 1.000000e-02
S-o2-base = 9.911096e-03

number of iteration: 1 
S-sub-bulk = 2.201675e-02
S-sub-base = 2.149237e-02
S-o2-bulk = 1.000000e-02
S-o2-base = 9.911096e-03

number of iteration: 1 
S-sub-bulk = 2.201675e-02
S-sub-base = 2.149237e-02
S-o2-bulk = 1.000000e-02
S-o2-base = 9.911096e-03

number of iteration: 1 
S-sub-bulk = 2.201675e-02
S-sub-base = 2.149237e-02
S-o2-bulk = 1.000000e-02
S-o2-base = 9.911097e-03

number of iteration: 1 
S-sub-bulk = 2.201675e-02
S-sub-base = 2.149236e-02
S-o2-bulk = 1.000000e-02
S-o2-base = 9.911097e-03

number of iteration: 1 
S-sub-bulk = 2.201675e-02
S-sub-base = 2.149236e-02
S-o2-bulk = 1.000000e-02
S-o2-base = 9.911098e-03

number of iteration: 1 
S-sub-bulk = 2.201675e-02
S-sub-base = 2.149236e-02
S-o2-bulk = 1.000000e-02
S-o2-base = 9.911098e-03

number of iteration: 1 
S-sub-bulk = 2.201675e-02
S-sub-base = 2.149236e-02
S-o2-bulk = 1.000000e-02
S-o2-base = 9.911098e-03

number of iteration: 1 
S-sub-bulk = 2.201675e-02
S-sub-base = 2.149235e-02
S-o2-bulk = 1.000000e-02
S-o2-base = 9.911099e-03

number of iteration: 1 
S-sub-bulk = 2.201675e-02
S-sub-base = 2.149235e-02
S-o2-bulk = 1.000000e-02
S-o2-base = 9.911099e-03

number of iteration: 1 
S-sub-bulk = 2.201675e-02
S-sub-base = 2.149235e-02
S-o2-bulk = 1.000000e-02
S-o2-base = 9.911100e-03

number of iteration: 1 
S-sub-bulk = 2.201675e-02
S-sub-base = 2.149234e-02
S-o2-bulk = 1.000000e-02
S-o2-base = 9.911100e-03

number of iteration: 1 
S-sub-bulk = 2.201675e-02
S-sub-base = 2.149234e-02
S-o2-bulk = 1.000000e-02
S-o2-base = 9.911100e-03

number of iteration: 1 
S-sub-bulk = 2.201675e-02
S-sub-base = 2.149234e-02
S-o2-bulk = 1.000000e-02
S-o2-base = 9.911101e-03

number of iteration: 1 
S-sub-bulk = 2.201675e-02
S-sub-base = 2.149234e-02
S-o2-bulk = 1.000000e-02
S-o2-base = 9.911101e-03

number of iteration: 1 
S-sub-bulk = 2.201675e-02
S-sub-base = 2.149233e-02
S-o2-bulk = 1.000000e-02
S-o2-base = 9.911102e-03

number of iteration: 1 
S-sub-bulk = 2.201675e-02
S-sub-base = 2.149233e-02
S-o2-bulk = 1.000000e-02
S-o2-base = 9.911102e-03

number of iteration: 1 
S-sub-bulk = 2.201675e-02
S-sub-base = 2.149233e-02
S-o2-bulk = 1.000000e-02
S-o2-base = 9.911102e-03

number of iteration: 1 
S-sub-bulk = 2.201675e-02
S-sub-base = 2.149232e-02
S-o2-bulk = 1.000000e-02
S-o2-base = 9.911103e-03

number of iteration: 1 
S-sub-bulk = 2.201675e-02
S-sub-base = 2.149232e-02
S-o2-bulk = 1.000000e-02
S-o2-base = 9.911103e-03

number of iteration: 1 
S-sub-bulk = 2.201675e-02
S-sub-base = 2.149232e-02
S-o2-bulk = 1.000000e-02
S-o2-base = 9.911104e-03

number of iteration: 1 
S-sub-bulk = 2.201675e-02
S-sub-base = 2.149231e-02
S-o2-bulk = 1.000000e-02
S-o2-base = 9.911104e-03

number of iteration: 1 
S-sub-bulk = 2.201675e-02
S-sub-base = 2.149231e-02
S-o2-bulk = 1.000000e-02
S-o2-base = 9.911104e-03

number of iteration: 1 
S-sub-bulk = 2.201675e-02
S-sub-base = 2.149231e-02
S-o2-bulk = 1.000000e-02
S-o2-base = 9.911105e-03

number of iteration: 1 
S-sub-bulk = 2.201675e-02
S-sub-base = 2.149231e-02
S-o2-bulk = 1.000000e-02
S-o2-base = 9.911105e-03

number of iteration: 1 
S-sub-bulk = 2.201675e-02
S-sub-base = 2.149230e-02
S-o2-bulk = 1.000000e-02
S-o2-base = 9.911105e-03

number of iteration: 1 
S-sub-bulk = 2.201675e-02
S-sub-base = 2.149230e-02
S-o2-bulk = 1.000000e-02
S-o2-base = 9.911106e-03

number of iteration: 1 
S-sub-bulk = 2.201675e-02
S-sub-base = 2.149230e-02
S-o2-bulk = 1.000000e-02
S-o2-base = 9.911106e-03

number of iteration: 1 
S-sub-bulk = 2.201675e-02
S-sub-base = 2.149229e-02
S-o2-bulk = 1.000000e-02
S-o2-base = 9.911107e-03

number of iteration: 1 
S-sub-bulk = 2.201675e-02
S-sub-base = 2.149229e-02
S-o2-bulk = 1.000000e-02
S-o2-base = 9.911107e-03

number of iteration: 1 
S-sub-bulk = 2.201675e-02
S-sub-base = 2.149229e-02
S-o2-bulk = 1.000000e-02
S-o2-base = 9.911107e-03

number of iteration: 1 
S-sub-bulk = 2.201675e-02
S-sub-base = 2.149229e-02
S-o2-bulk = 1.000000e-02
S-o2-base = 9.911108e-03

number of iteration: 1 
S-sub-bulk = 2.201675e-02
S-sub-base = 2.149228e-02
S-o2-bulk = 1.000000e-02
S-o2-base = 9.911108e-03

number of iteration: 1 
S-sub-bulk = 2.201676e-02
S-sub-base = 2.149228e-02
S-o2-bulk = 1.000000e-02
S-o2-base = 9.911109e-03

number of iteration: 1 
S-sub-bulk = 2.201676e-02
S-sub-base = 2.149228e-02
S-o2-bulk = 1.000000e-02
S-o2-base = 9.911109e-03

number of iteration: 1 
S-sub-bulk = 2.201676e-02
S-sub-base = 2.149227e-02
S-o2-bulk = 1.000000e-02
S-o2-base = 9.911109e-03

number of iteration: 1 
S-sub-bulk = 2.201676e-02
S-sub-base = 2.149227e-02
S-o2-bulk = 1.000000e-02
S-o2-base = 9.911110e-03

number of iteration: 1 
S-sub-bulk = 2.201676e-02
S-sub-base = 2.149227e-02
S-o2-bulk = 1.000000e-02
S-o2-base = 9.911110e-03

number of iteration: 1 
S-sub-bulk = 2.201676e-02
S-sub-base = 2.149226e-02
S-o2-bulk = 1.000000e-02
S-o2-base = 9.911111e-03

number of iteration: 1 
S-sub-bulk = 2.201676e-02
S-sub-base = 2.149226e-02
S-o2-bulk = 1.000000e-02
S-o2-base = 9.911111e-03

number of iteration: 1 
S-sub-bulk = 2.201676e-02
S-sub-base = 2.149226e-02
S-o2-bulk = 1.000000e-02
S-o2-base = 9.911111e-03

number of iteration: 1 
S-sub-bulk = 2.201676e-02
S-sub-base = 2.149226e-02
S-o2-bulk = 1.000000e-02
S-o2-base = 9.911112e-03

number of iteration: 1 
S-sub-bulk = 2.201676e-02
S-sub-base = 2.149225e-02
S-o2-bulk = 1.000000e-02
S-o2-base = 9.911112e-03

number of iteration: 1 
S-sub-bulk = 2.201676e-02
S-sub-base = 2.149225e-02
S-o2-bulk = 1.000000e-02
S-o2-base = 9.911112e-03

number of iteration: 1 
S-sub-bulk = 2.201676e-02
S-sub-base = 2.149225e-02
S-o2-bulk = 1.000000e-02
S-o2-base = 9.911113e-03

number of iteration: 1 
S-sub-bulk = 2.201676e-02
S-sub-base = 2.149224e-02
S-o2-bulk = 1.000000e-02
S-o2-base = 9.911113e-03

number of iteration: 1 
S-sub-bulk = 2.201676e-02
S-sub-base = 2.149224e-02
S-o2-bulk = 1.000000e-02
S-o2-base = 9.911114e-03

number of iteration: 1 
S-sub-bulk = 2.201676e-02
S-sub-base = 2.149224e-02
S-o2-bulk = 1.000000e-02
S-o2-base = 9.911114e-03

number of iteration: 1 
S-sub-bulk = 2.201676e-02
S-sub-base = 2.149223e-02
S-o2-bulk = 1.000000e-02
S-o2-base = 9.911114e-03

number of iteration: 1 
S-sub-bulk = 2.201676e-02
S-sub-base = 2.149223e-02
S-o2-bulk = 1.000000e-02
S-o2-base = 9.911115e-03

number of iteration: 1 
S-sub-bulk = 2.201676e-02
S-sub-base = 2.149223e-02
S-o2-bulk = 1.000000e-02
S-o2-base = 9.911115e-03

number of iteration: 1 
S-sub-bulk = 2.201676e-02
S-sub-base = 2.149223e-02
S-o2-bulk = 1.000000e-02
S-o2-base = 9.911116e-03

number of iteration: 1 
S-sub-bulk = 2.201676e-02
S-sub-base = 2.149222e-02
S-o2-bulk = 1.000000e-02
S-o2-base = 9.911116e-03

number of iteration: 1 
S-sub-bulk = 2.201676e-02
S-sub-base = 2.149222e-02
S-o2-bulk = 1.000000e-02
S-o2-base = 9.911116e-03

number of iteration: 1 
S-sub-bulk = 2.201676e-02
S-sub-base = 2.149222e-02
S-o2-bulk = 1.000000e-02
S-o2-base = 9.911117e-03

number of iteration: 1 
S-sub-bulk = 2.201676e-02
S-sub-base = 2.149221e-02
S-o2-bulk = 1.000000e-02
S-o2-base = 9.911117e-03

number of iteration: 1 
S-sub-bulk = 2.201676e-02
S-sub-base = 2.149221e-02
S-o2-bulk = 1.000000e-02
S-o2-base = 9.911117e-03

number of iteration: 1 
S-sub-bulk = 2.201676e-02
S-sub-base = 2.149221e-02
S-o2-bulk = 1.000000e-02
S-o2-base = 9.911118e-03

number of iteration: 1 
S-sub-bulk = 2.201676e-02
S-sub-base = 2.149221e-02
S-o2-bulk = 1.000000e-02
S-o2-base = 9.911118e-03

number of iteration: 1 
S-sub-bulk = 2.201676e-02
S-sub-base = 2.149220e-02
S-o2-bulk = 1.000000e-02
S-o2-base = 9.911119e-03

number of iteration: 1 
S-sub-bulk = 2.201676e-02
S-sub-base = 2.149220e-02
S-o2-bulk = 1.000000e-02
S-o2-base = 9.911119e-03

number of iteration: 1 
S-sub-bulk = 2.201676e-02
S-sub-base = 2.149220e-02
S-o2-bulk = 1.000000e-02
S-o2-base = 9.911119e-03

number of iteration: 1 
S-sub-bulk = 2.201676e-02
S-sub-base = 2.149219e-02
S-o2-bulk = 1.000000e-02
S-o2-base = 9.911120e-03

number of iteration: 1 
S-sub-bulk = 2.201676e-02
S-sub-base = 2.149219e-02
S-o2-bulk = 1.000000e-02
S-o2-base = 9.911120e-03

number of iteration: 1 
S-sub-bulk = 2.201676e-02
S-sub-base = 2.149219e-02
S-o2-bulk = 1.000000e-02
S-o2-base = 9.911121e-03

number of iteration: 1 
S-sub-bulk = 2.201676e-02
S-sub-base = 2.149218e-02
S-o2-bulk = 1.000000e-02
S-o2-base = 9.911121e-03

number of iteration: 1 
S-sub-bulk = 2.201676e-02
S-sub-base = 2.149218e-02
S-o2-bulk = 1.000000e-02
S-o2-base = 9.911121e-03

number of iteration: 1 
S-sub-bulk = 2.201676e-02
S-sub-base = 2.149218e-02
S-o2-bulk = 1.000000e-02
S-o2-base = 9.911122e-03

number of iteration: 1 
S-sub-bulk = 2.201676e-02
S-sub-base = 2.149218e-02
S-o2-bulk = 1.000000e-02
S-o2-base = 9.911122e-03

number of iteration: 1 
S-sub-bulk = 2.201676e-02
S-sub-base = 2.149217e-02
S-o2-bulk = 1.000000e-02
S-o2-base = 9.911122e-03

number of iteration: 1 
S-sub-bulk = 2.201676e-02
S-sub-base = 2.149217e-02
S-o2-bulk = 1.000000e-02
S-o2-base = 9.911123e-03

number of iteration: 1 
S-sub-bulk = 2.201676e-02
S-sub-base = 2.149217e-02
S-o2-bulk = 1.000000e-02
S-o2-base = 9.911123e-03

ERROR: Stop here (../fix_bio_verify.cpp:251)
