LAMMPS (5 Nov 2016)
# NUFEB simulation

atom_style	bio
atom_modify	map array sort 1000 5.0e-7
boundary	pp pp ff
newton		off
processors  2 2 1

comm_modify	vel yes

read_data_bio atom.in
  orthogonal box = (0 0 0) to (2e-05 2e-05 4e-05)
  2 by 2 by 1 MPI processor grid
  reading atoms ...
  9 atoms
  5 nutrients

group HET type 1
9 atoms in group HET

neighbor	5e-7 bin
neigh_modify	delay 0 one 2000

##############Define DEM Variables&Commands##############

pair_style  gran/hooke/history 1.e-4 NULL 1.e-5 NULL 0.0 1
pair_coeff  * *

timestep 500

variable kanc equal 50

fix 1 all nve/limit 1e-8
fix fv all viscous 1e-5

fix zw all wall/gran hooke/history 2000 NULL 500.0 NULL 1.5 0 zplane  0.0   4e-05
fix zwa all walladh v_kanc zplane  0.0   4e-05

##############Define IBm Variables##############

#EPS density, ratio variables and division diameter
variable EPSdens equal 30
variable EPSratio equal 1.25
variable divDia equal 2e-6

#kinetics variables
variable etaHET equal 0.0
variable diffT equal 1e-4
variable tol equal 1e-6
variable layer equal 0

##############Define IBm Commands##############

fix k1 all kinetics 1 10 10 20 v_diffT v_layer demflag 0
fix kgm all kinetics/growth/monod v_EPSdens v_etaHET
fix g1 all kinetics/diffusion v_tol pp pp nd kg bulk 2.31e-7 1.25e-3 0.1
fix d1 all divide 1 v_EPSdens v_divDia 31231 demflag 0
fix vf1 all verify 1 bm1 3 demflag 0

##############Simulation Output##############

compute myPres all pressure thermo_temp
compute myHeight all ave_height 10 10

#dump		id all custom 200000 snapshot.bubblemd id type diameter x y z
thermo_style    custom step cpu atoms biomass c_myPres c_myHeight
thermo		1000
thermo_modify	lost ignore

##############Two-loops Run##############

run 1000 pre no post no every 1 "fix_modify k1 demflag 1" "fix_modify vf1 demflag 1" "fix_modify d1 demflag 1" "timestep 1e-3" "run 10000 pre no post no" "timestep 500" "fix_modify k1 demflag 0" "fix_modify vf1 demflag 0" "fix_modify d1 demflag 0"
WARNING: EPS is not defined in fix_kinetics/kinetics/monod (../fix_bio_kinetics_monod.cpp:255)
Neighbor list info ...
  2 neighbor list requests
  update every 1 steps, delay 0 steps, check yes
  max neighbors/atom: 2000, page size: 100000
  master list distance cutoff = 2.5e-06
  ghost atom cutoff = 2.5e-06
  binsize = 1.25e-06 -> bins = 17 17 33
Memory usage per processor = 7.25138 Mbytes
Step CPU Atoms biomass c_myPres c_myHeight 
       0            0        9 6.0318579e-16            0      1.2e-07 
number of iteration: 10 
height = 2.998766e-07 
S-sub-bulk = 2.999425e-02
S-sub-base = 2.999994e-02
S-o2-bulk = 1.000000e-02
S-o2-base = 9.999991e-03

       1 0.00077080727       18 6.1990688e-16  0.002236143 2.998766e-07 
Loop time of 0.000797212 on 4 procs for 1 steps with 18 atoms

125.4% CPU use with 4 MPI tasks x no OpenMP threads
fix_modify k1 demflag 1
fix_modify vf1 demflag 1
fix_modify d1 demflag 1
timestep 1e-3
run 10000 pre no post no
Step CPU Atoms biomass c_myPres c_myHeight 
       1            0       18 6.1990688e-16  0.002236143 2.998766e-07 
    1000 0.0096571445       18 6.1990688e-16 2.898132e-05 3.0413097e-07 
    2000  0.017699003       18 6.1990688e-16 2.898132e-05 3.0413097e-07 
    3000  0.026214123       18 6.1990688e-16 2.898132e-05 3.0413097e-07 
    4000  0.035713196       18 6.1990688e-16 2.898132e-05 3.0413097e-07 
    5000  0.043271065       18 6.1990688e-16 2.898132e-05 3.0413097e-07 
    6000  0.049988031       18 6.1990688e-16 2.898132e-05 3.0413097e-07 
    7000  0.056538105       18 6.1990688e-16 2.898132e-05 3.0413097e-07 
    8000  0.065468073       18 6.1990688e-16 2.898132e-05 3.0413097e-07 
    9000  0.074131012       18 6.1990688e-16 2.898132e-05 3.0413097e-07 
   10000  0.084041119       18 6.1990688e-16 2.898132e-05 3.0413097e-07 
   10001  0.084079027       18 6.1990688e-16 3.9645407e-06 3.0461557e-07 
Loop time of 0.0840955 on 4 procs for 10000 steps with 18 atoms

99.9% CPU use with 4 MPI tasks x no OpenMP threads
timestep 500
fix_modify k1 demflag 0
fix_modify vf1 demflag 0
fix_modify d1 demflag 0
Step CPU Atoms biomass c_myPres c_myHeight 
   10001            0       18 6.1990688e-16 3.9645407e-06 3.0461557e-07 
number of iteration: 1 
height = 3.051468e-07 
S-sub-bulk = 2.999425e-02
S-sub-base = 2.999994e-02
S-o2-bulk = 1.000000e-02
S-o2-base = 9.999989e-03

   10002 0.00034499168       18 6.3709149e-16 7.7646913e-05 3.0514683e-07 
Loop time of 0.000359535 on 4 procs for 1 steps with 18 atoms

278.1% CPU use with 4 MPI tasks x no OpenMP threads
fix_modify k1 demflag 1
fix_modify vf1 demflag 1
fix_modify d1 demflag 1
timestep 1e-3
run 10000 pre no post no
Step CPU Atoms biomass c_myPres c_myHeight 
   10002            0       18 6.3709149e-16 7.7646913e-05 3.0514683e-07 
   11000 0.0085039139       18 6.3709149e-16 4.716036e-05  3.05474e-07 
   12000  0.015357018       18 6.3709149e-16 4.716036e-05  3.05474e-07 
   13000  0.021487951       18 6.3709149e-16 4.716036e-05  3.05474e-07 
   14000  0.029328108       18 6.3709149e-16 4.716036e-05  3.05474e-07 
   15000  0.035561085       18 6.3709149e-16 4.716036e-05  3.05474e-07 
   16000  0.041701078       18 6.3709149e-16 4.716036e-05  3.05474e-07 
   17000  0.048350096       18 6.3709149e-16 4.716036e-05  3.05474e-07 
   18000  0.056179047       18 6.3709149e-16 4.716036e-05  3.05474e-07 
   19000  0.062273979       18 6.3709149e-16 4.716036e-05  3.05474e-07 
   20000  0.067991972       18 6.3709149e-16 4.716036e-05  3.05474e-07 
   20002  0.068027973       18 6.3709149e-16 4.716036e-05  3.05474e-07 
Loop time of 0.0680411 on 4 procs for 10000 steps with 18 atoms

99.9% CPU use with 4 MPI tasks x no OpenMP threads
timestep 500
fix_modify k1 demflag 0
fix_modify vf1 demflag 0
fix_modify d1 demflag 0
Step CPU Atoms biomass c_myPres c_myHeight 
   20002            0       18 6.3709149e-16 4.716036e-05  3.05474e-07 
number of iteration: 1 
height = 3.069832e-07 
S-sub-bulk = 2.999425e-02
S-sub-base = 2.999993e-02
S-o2-bulk = 1.000000e-02
S-o2-base = 9.999987e-03

   20003 0.0002720356       18 6.5475248e-16 0.00018381952 3.0698325e-07 
Loop time of 0.000288427 on 4 procs for 1 steps with 18 atoms

0.0% CPU use with 4 MPI tasks x no OpenMP threads
fix_modify k1 demflag 1
fix_modify vf1 demflag 1
fix_modify d1 demflag 1
timestep 1e-3
run 10000 pre no post no
Step CPU Atoms biomass c_myPres c_myHeight 
   20003            0       18 6.5475248e-16 0.00018381952 3.0698325e-07 
   21000 0.0051259995       18 6.5475248e-16 5.4562707e-24 3.0748893e-07 
   22000  0.010763168       18 6.5475248e-16 5.4562707e-24 3.074889e-07 
   23000  0.017561197       18 6.5475248e-16 5.4562707e-24 3.0748886e-07 
   24000   0.02286911       18 6.5475248e-16 5.4562707e-24 3.0748883e-07 
   25000   0.02741003       18 6.5475248e-16 5.4562707e-24 3.0748879e-07 
   26000  0.032035112       18 6.5475248e-16 5.4562707e-24 3.0748876e-07 
   27000  0.037458181       18 6.5475248e-16 5.4562707e-24 3.0748873e-07 
   28000  0.042273045       18 6.5475248e-16 5.4562707e-24 3.0748869e-07 
   29000  0.048550129       18 6.5475248e-16 5.4562707e-24 3.0748866e-07 
   30000  0.053196192       18 6.5475248e-16 5.4562707e-24 3.0748862e-07 
   30003  0.053235054       18 6.5475248e-16 0.00034210057 3.073067e-07 
Loop time of 0.0532479 on 4 procs for 10000 steps with 18 atoms

99.5% CPU use with 4 MPI tasks x no OpenMP threads
timestep 500
fix_modify k1 demflag 0
fix_modify vf1 demflag 0
fix_modify d1 demflag 0
Step CPU Atoms biomass c_myPres c_myHeight 
   30003            0       18 6.5475248e-16 0.00034210057 3.073067e-07 
number of iteration: 1 
height = 3.085232e-07 
S-sub-bulk = 2.999425e-02
S-sub-base = 2.999993e-02
S-o2-bulk = 1.000000e-02
S-o2-base = 9.999985e-03

   30004 0.00024604797       18 6.7290306e-16 8.8357489e-05 3.0852317e-07 
Loop time of 0.000256538 on 4 procs for 1 steps with 18 atoms

0.0% CPU use with 4 MPI tasks x no OpenMP threads
fix_modify k1 demflag 1
fix_modify vf1 demflag 1
fix_modify d1 demflag 1
timestep 1e-3
run 10000 pre no post no
Step CPU Atoms biomass c_myPres c_myHeight 
   30004            0       18 6.7290306e-16 8.8357489e-05 3.0852317e-07 
   31000 0.0043711662       18 6.7290306e-16 8.4980408e-05 3.0880919e-07 
   32000 0.0085830688       18 6.7290306e-16 8.4980408e-05 3.0880914e-07 
   33000  0.013826132       18 6.7290306e-16 8.4980408e-05 3.0880908e-07 
   34000  0.018193007       18 6.7290306e-16 8.4980408e-05 3.0880903e-07 
   35000  0.024466038       18 6.7290306e-16 8.4980408e-05 3.0880898e-07 
   36000   0.02939415       18 6.7290306e-16 8.4980408e-05 3.0880892e-07 
   37000  0.033609152       18 6.7290306e-16 8.4980408e-05 3.0880887e-07 
   38000  0.037845135       18 6.7290306e-16 8.4980408e-05 3.0880881e-07 
   39000  0.042561054       18 6.7290306e-16 8.4980408e-05 3.0880876e-07 
   40000  0.047363043       18 6.7290306e-16 8.4980408e-05 3.0880871e-07 
   40004  0.047408104       18 6.7290306e-16 8.4980408e-05 3.088087e-07 
Loop time of 0.047419 on 4 procs for 10000 steps with 18 atoms

101.2% CPU use with 4 MPI tasks x no OpenMP threads
timestep 500
fix_modify k1 demflag 0
fix_modify vf1 demflag 0
fix_modify d1 demflag 0
Step CPU Atoms biomass c_myPres c_myHeight 
   40004            0       18 6.7290306e-16 8.4980408e-05 3.088087e-07 
number of iteration: 1 
height = 3.098676e-07 
S-sub-bulk = 2.999425e-02
S-sub-base = 2.999991e-02
S-o2-bulk = 1.000000e-02
S-o2-base = 9.999983e-03

   40005 0.00021386147       18 6.9155678e-16 0.00023605057 3.0986758e-07 
Loop time of 0.000225067 on 4 procs for 1 steps with 18 atoms

0.0% CPU use with 4 MPI tasks x no OpenMP threads
fix_modify k1 demflag 1
fix_modify vf1 demflag 1
fix_modify d1 demflag 1
timestep 1e-3
run 10000 pre no post no
Step CPU Atoms biomass c_myPres c_myHeight 
   40005            0       18 6.9155678e-16 0.00023605057 3.0986758e-07 
   41000 0.0059318542       18 6.9155678e-16 8.9454901e-05 3.1020916e-07 
   42000  0.011029005       18 6.9155678e-16 8.9454901e-05 3.1020909e-07 
   43000  0.015353918       18 6.9155678e-16 8.9454901e-05 3.1020902e-07 
   44000  0.019571066       18 6.9155678e-16 8.9454901e-05 3.1020895e-07 
   45000  0.023787975       18 6.9155678e-16 8.9454901e-05 3.1020888e-07 
   46000  0.029049873       18 6.9155678e-16 8.9454901e-05 3.1020881e-07 
   47000  0.034478903       18 6.9155678e-16 8.9454901e-05 3.1020874e-07 
   48000  0.040209055       18 6.9155678e-16 8.9454901e-05 3.1020868e-07 
   49000  0.044450998       18 6.9155678e-16 8.9454901e-05 3.1020861e-07 
   50000  0.048774004       18 6.9155678e-16 8.9454901e-05 3.1020854e-07 
   50005  0.048825026       18 6.9155678e-16 6.3188758e-05 3.1019349e-07 
Loop time of 0.0488377 on 4 procs for 10000 steps with 18 atoms

98.3% CPU use with 4 MPI tasks x no OpenMP threads
timestep 500
fix_modify k1 demflag 0
fix_modify vf1 demflag 0
fix_modify d1 demflag 0
Step CPU Atoms biomass c_myPres c_myHeight 
   50005            0       18 6.9155678e-16 6.3188758e-05 3.1019349e-07 
number of iteration: 1 
height = 3.112621e-07 
S-sub-bulk = 2.999425e-02
S-sub-base = 2.999989e-02
S-o2-bulk = 1.000000e-02
S-o2-base = 9.999982e-03

   50006 0.0002219677       18 7.1072761e-16 0.00022479938 3.1126212e-07 
Loop time of 0.000233233 on 4 procs for 1 steps with 18 atoms

428.8% CPU use with 4 MPI tasks x no OpenMP threads
fix_modify k1 demflag 1
fix_modify vf1 demflag 1
fix_modify d1 demflag 1
timestep 1e-3
run 10000 pre no post no
Step CPU Atoms biomass c_myPres c_myHeight 
   50006            0       18 7.1072761e-16 0.00022479938 3.1126212e-07 
   51000 0.0042009354       18 7.1072761e-16 0.00025021297 3.1175396e-07 
   52000 0.0094239712       18 7.1072761e-16 0.00025021297 3.1175388e-07 
   53000  0.014414072       18 7.1072761e-16 0.00025021297 3.117538e-07 
   54000  0.020375013       18 7.1072761e-16 0.00025021297 3.1175372e-07 
   55000  0.024672985       18 7.1072761e-16 0.00025021297 3.1175364e-07 
   56000  0.028878927       18 7.1072761e-16 0.00025021297 3.1175357e-07 
   57000  0.033137083       18 7.1072761e-16 0.00025021297 3.1175349e-07 
   58000   0.03788805       18 7.1072761e-16 0.00025021297 3.1175341e-07 
   59000  0.042525053       18 7.1072761e-16 0.00025021297 3.1175333e-07 
   60000  0.048456907       18 7.1072761e-16 0.00025021297 3.1175325e-07 
   60006  0.048516035       18 7.1072761e-16 0.00025021297 3.1175325e-07 
Loop time of 0.0485263 on 4 procs for 10000 steps with 18 atoms

101.0% CPU use with 4 MPI tasks x no OpenMP threads
timestep 500
fix_modify k1 demflag 0
fix_modify vf1 demflag 0
fix_modify d1 demflag 0
Step CPU Atoms biomass c_myPres c_myHeight 
   60006            0       18 7.1072761e-16 0.00025021297 3.1175325e-07 
number of iteration: 1 
height = 3.128010e-07 
S-sub-bulk = 2.999425e-02
S-sub-base = 2.999987e-02
S-o2-bulk = 1.000000e-02
S-o2-base = 9.999980e-03

   60007 0.00024294853       18 7.3042986e-16 0.00049293572 3.1280105e-07 
Loop time of 0.000253439 on 4 procs for 1 steps with 18 atoms

394.6% CPU use with 4 MPI tasks x no OpenMP threads
fix_modify k1 demflag 1
fix_modify vf1 demflag 1
fix_modify d1 demflag 1
timestep 1e-3
run 10000 pre no post no
Step CPU Atoms biomass c_myPres c_myHeight 
   60007            0       18 7.3042986e-16 0.00049293572 3.1280105e-07 
   61000 0.0051319599       18 7.3042986e-16 0.00016282976 3.1347342e-07 
   62000 0.0093889236       18 7.3042986e-16 0.00016282976 3.1347332e-07 
   63000  0.013707876       18 7.3042986e-16 0.00016282976 3.1347323e-07 
   64000  0.018009901       18 7.3042986e-16 0.00016282976 3.1347313e-07 
   65000   0.02321291       18 7.3042986e-16 0.00016282976 3.1347304e-07 
   66000  0.028591871       18 7.3042986e-16 0.00016282976 3.1347294e-07 
   67000  0.034188032       18 7.3042986e-16 0.00016282976 3.1347284e-07 
   68000  0.038488865       18 7.3042986e-16 0.00016282976 3.1347275e-07 
   69000  0.042730808       18 7.3042986e-16 0.00016282976 3.1347265e-07 
   70000   0.04696393       18 7.3042986e-16 0.00016282976 3.1347256e-07 
   70007  0.047027826       18 7.3042986e-16 0.00015943685 3.1348803e-07 
Loop time of 0.047039 on 4 procs for 10000 steps with 18 atoms

97.8% CPU use with 4 MPI tasks x no OpenMP threads
timestep 500
fix_modify k1 demflag 0
fix_modify vf1 demflag 0
fix_modify d1 demflag 0
Step CPU Atoms biomass c_myPres c_myHeight 
   70007            0       18 7.3042986e-16 0.00015943685 3.1348803e-07 
number of iteration: 1 
height = 3.145455e-07 
S-sub-bulk = 2.999425e-02
S-sub-base = 2.999984e-02
S-o2-bulk = 1.000000e-02
S-o2-base = 9.999978e-03

   70008 0.00021505356       18 7.5067829e-16 0.00036434254 3.1454552e-07 
Loop time of 0.000226498 on 4 procs for 1 steps with 18 atoms

441.5% CPU use with 4 MPI tasks x no OpenMP threads
fix_modify k1 demflag 1
fix_modify vf1 demflag 1
fix_modify d1 demflag 1
timestep 1e-3
run 10000 pre no post no
Step CPU Atoms biomass c_myPres c_myHeight 
   70008            0       18 7.5067829e-16 0.00036434254 3.1454552e-07 
   71000 0.0052189827       18 7.5067829e-16 0.00014148009 3.1506924e-07 
   72000  0.010272026       18 7.5067829e-16 0.00014148009 3.1506913e-07 
   73000   0.01623106       18 7.5067829e-16 0.00014148009 3.1506901e-07 
   74000  0.020837069       18 7.5067829e-16 0.00014148009 3.150689e-07 
   75000  0.025043964       18 7.5067829e-16 0.00014148009 3.1506879e-07 
   76000  0.029246092       18 7.5067829e-16 0.00014148009 3.1506868e-07 
   77000  0.034574032       18 7.5067829e-16 0.00014148009 3.1506857e-07 
   78000  0.038970947       18 7.5067829e-16 0.00014148009 3.1506846e-07 
   79000  0.045231104       18 7.5067829e-16 0.00014148009 3.1506835e-07 
   80000  0.049877167       18 7.5067829e-16 0.00014148009 3.1506824e-07 
   80008  0.049948931       18 7.5067829e-16 0.00014148009 3.1506823e-07 
Loop time of 0.0499616 on 4 procs for 10000 steps with 18 atoms

100.1% CPU use with 4 MPI tasks x no OpenMP threads
timestep 500
fix_modify k1 demflag 0
fix_modify vf1 demflag 0
fix_modify d1 demflag 0
Step CPU Atoms biomass c_myPres c_myHeight 
   80008            0       18 7.5067829e-16 0.00014148009 3.1506823e-07 
number of iteration: 1 
height = 3.159702e-07 
S-sub-bulk = 2.999425e-02
S-sub-base = 2.999980e-02
S-o2-bulk = 1.000000e-02
S-o2-base = 9.999976e-03

   80009 0.00024104118       18 7.7148802e-16 0.00035765267 3.1597019e-07 
Loop time of 0.000252008 on 4 procs for 1 steps with 18 atoms

0.0% CPU use with 4 MPI tasks x no OpenMP threads
fix_modify k1 demflag 1
fix_modify vf1 demflag 1
fix_modify d1 demflag 1
timestep 1e-3
run 10000 pre no post no
Step CPU Atoms biomass c_myPres c_myHeight 
   80009            0       18 7.7148802e-16 0.00035765267 3.1597019e-07 
   81000 0.0041639805       18 7.7148802e-16 8.8732146e-05 3.1647804e-07 
   82000 0.0083758831       18 7.7148802e-16 8.8732146e-05 3.1647791e-07 
   83000   0.01321888       18 7.7148802e-16 8.8732146e-05 3.1647779e-07 
   84000  0.017925978       18 7.7148802e-16 8.8732146e-05 3.1647766e-07 
   85000  0.023961067       18 7.7148802e-16 8.8732146e-05 3.1647753e-07 
   86000  0.029109001       18 7.7148802e-16 8.8732146e-05 3.164774e-07 
   87000  0.034038067       18 7.7148802e-16 8.8732146e-05 3.1647727e-07 
   88000  0.038624048       18 7.7148802e-16 8.8732146e-05 3.1647715e-07 
   89000  0.043432951       18 7.7148802e-16 8.8732146e-05 3.1647702e-07 
   90000  0.048248053       18 7.7148802e-16 8.8732146e-05 3.1647689e-07 
   90009  0.048316956       18 7.7148802e-16 7.4092452e-05 3.1665731e-07 
Loop time of 0.048327 on 4 procs for 10000 steps with 18 atoms

99.3% CPU use with 4 MPI tasks x no OpenMP threads
timestep 500
fix_modify k1 demflag 0
fix_modify vf1 demflag 0
fix_modify d1 demflag 0
Step CPU Atoms biomass c_myPres c_myHeight 
   90009            0       18 7.7148802e-16 7.4092452e-05 3.1665731e-07 
number of iteration: 1 
height = 3.175696e-07 
S-sub-bulk = 2.999425e-02
S-sub-base = 2.999977e-02
S-o2-bulk = 1.000000e-02
S-o2-base = 9.999974e-03

   90010 0.00023388863       18 7.9287461e-16 0.00034186328 3.1756959e-07 
Loop time of 0.000243902 on 4 procs for 1 steps with 18 atoms

0.0% CPU use with 4 MPI tasks x no OpenMP threads
fix_modify k1 demflag 1
fix_modify vf1 demflag 1
fix_modify d1 demflag 1
timestep 1e-3
run 10000 pre no post no
Step CPU Atoms biomass c_myPres c_myHeight 
   90010            0       18 7.9287461e-16 0.00034186328 3.1756959e-07 
   91000 0.0059909821       18 7.9287461e-16 0.00027175364 3.1822538e-07 
   92000  0.011395931       18 7.9287461e-16 0.00027175364 3.1822524e-07 
   93000  0.015918016       18 7.9287461e-16 0.00027175364 3.182251e-07 
   94000  0.020179987       18 7.9287461e-16 0.00027175364 3.1822496e-07 
   95000  0.024585009       18 7.9287461e-16 0.00027175364 3.1822482e-07 
   96000   0.02979207       18 7.9287461e-16 0.00027175364 3.1822468e-07 
   97000  0.035279036       18 7.9287461e-16 0.00027175364 3.1822454e-07 
   98000  0.041144848       18 7.9287461e-16 0.00027175364 3.182244e-07 
   99000   0.04541707       18 7.9287461e-16 0.00027175364 3.1822426e-07 
  100000  0.049952984       18 7.9287461e-16 0.00027175364 3.1822413e-07 
  100010     0.050035       18 7.9287461e-16 0.00027175364 3.1822412e-07 
Loop time of 0.0500467 on 4 procs for 10000 steps with 18 atoms

101.9% CPU use with 4 MPI tasks x no OpenMP threads
timestep 500
fix_modify k1 demflag 0
fix_modify vf1 demflag 0
fix_modify d1 demflag 0
Step CPU Atoms biomass c_myPres c_myHeight 
  100010            0       18 7.9287461e-16 0.00027175364 3.1822412e-07 
number of iteration: 1 
height = 3.193430e-07 
S-sub-bulk = 2.999425e-02
S-sub-base = 2.999972e-02
S-o2-bulk = 1.000000e-02
S-o2-base = 9.999972e-03

  100011 0.00022506714       18 8.1485406e-16 0.00056148877 3.1934295e-07 
Loop time of 0.000236034 on 4 procs for 1 steps with 18 atoms

423.7% CPU use with 4 MPI tasks x no OpenMP threads
fix_modify k1 demflag 1
fix_modify vf1 demflag 1
fix_modify d1 demflag 1
timestep 1e-3
run 10000 pre no post no
Step CPU Atoms biomass c_myPres c_myHeight 
  100011            0       18 8.1485406e-16 0.00056148877 3.1934295e-07 
  101000   0.00436306       18 8.1485406e-16 0.00017434918  3.19851e-07 
  102000 0.0096130371       18 8.1485406e-16 0.00017434918 3.1985084e-07 
  103000  0.015238047       18 8.1485406e-16 0.00017434918 3.1985069e-07 
  104000  0.021034002       18 8.1485406e-16 0.00017434918 3.1985053e-07 
  105000   0.02540493       18 8.1485406e-16 0.00017434918 3.1985038e-07 
  106000    0.0298841       18 8.1485406e-16 0.00017434918 3.1985022e-07 
  107000  0.034113884       18 8.1485406e-16 0.00017434917 3.1985007e-07 
  108000  0.039403915       18 8.1485406e-16 0.00017434917 3.1984991e-07 
  109000  0.044411898       18 8.1485406e-16 0.00017434917 3.1984976e-07 
  110000  0.050550938       18 8.1485406e-16 0.00017434917 3.198496e-07 
  110011  0.050648928       18 8.1485406e-16 0.00026616915 3.1983337e-07 
Loop time of 0.0506597 on 4 procs for 10000 steps with 18 atoms

98.7% CPU use with 4 MPI tasks x no OpenMP threads
timestep 500
fix_modify k1 demflag 0
fix_modify vf1 demflag 0
fix_modify d1 demflag 0
Step CPU Atoms biomass c_myPres c_myHeight 
  110011            0       18 8.1485406e-16 0.00026616915 3.1983337e-07 
number of iteration: 1 
height = 3.209624e-07 
S-sub-bulk = 2.999425e-02
S-sub-base = 2.999968e-02
S-o2-bulk = 1.000000e-02
S-o2-base = 9.999971e-03

  110012 0.00023698807       18 8.3744279e-16 0.00045813748 3.209624e-07 
Loop time of 0.000248492 on 4 procs for 1 steps with 18 atoms

402.4% CPU use with 4 MPI tasks x no OpenMP threads
fix_modify k1 demflag 1
fix_modify vf1 demflag 1
fix_modify d1 demflag 1
timestep 1e-3
run 10000 pre no post no
Step CPU Atoms biomass c_myPres c_myHeight 
  110012            0       18 8.3744279e-16 0.00045813748 3.209624e-07 
  111000 0.0047152042       18 8.3744279e-16 0.00018990834 3.215184e-07 
  112000 0.0089800358       18 8.3744279e-16 0.00018990834 3.2151823e-07 
  113000  0.013402224       18 8.3744279e-16 0.00018990834 3.2151806e-07 
  114000  0.018717051       18 8.3744279e-16 0.00018990834 3.2151789e-07 
  115000  0.023619175       18 8.3744279e-16 0.00018990834 3.2151772e-07 
  116000  0.029799223       18 8.3744279e-16 0.00018990834 3.2151755e-07 
  117000  0.034495115       18 8.3744279e-16 0.00018990834 3.2151738e-07 
  118000  0.038685083       18 8.3744279e-16 0.00018990834 3.2151721e-07 
  119000  0.043095112       18 8.3744279e-16 0.00018990834 3.2151704e-07 
  120000  0.048326015       18 8.3744279e-16 0.00018990834 3.2151687e-07 
  120012  0.048410177       18 8.3744279e-16 0.00018990834 3.2151687e-07 
Loop time of 0.0484198 on 4 procs for 10000 steps with 18 atoms

99.1% CPU use with 4 MPI tasks x no OpenMP threads
timestep 500
fix_modify k1 demflag 0
fix_modify vf1 demflag 0
fix_modify d1 demflag 0
Step CPU Atoms biomass c_myPres c_myHeight 
  120012            0       18 8.3744279e-16 0.00018990834 3.2151687e-07 
number of iteration: 1 
height = 3.226562e-07 
S-sub-bulk = 2.999425e-02
S-sub-base = 2.999963e-02
S-o2-bulk = 1.000000e-02
S-o2-base = 9.999969e-03

  120013 0.00021696091       18 8.6065771e-16 0.00040203293 3.226562e-07 
Loop time of 0.000226736 on 4 procs for 1 steps with 18 atoms

0.0% CPU use with 4 MPI tasks x no OpenMP threads
fix_modify k1 demflag 1
fix_modify vf1 demflag 1
fix_modify d1 demflag 1
timestep 1e-3
run 10000 pre no post no
Step CPU Atoms biomass c_myPres c_myHeight 
  120013            0       18 8.6065771e-16 0.00040203293 3.226562e-07 
  121000 0.0046520233       18 8.6065771e-16 0.0002414199 3.2372758e-07 
  122000  0.011016846       18 8.6065771e-16 0.0002414199 3.2372741e-07 
  123000  0.015841007       18 8.6065771e-16 0.0002414199 3.2372724e-07 
  124000  0.020342827       18 8.6065771e-16 0.0002414199 3.2372707e-07 
  125000  0.024796009       18 8.6065771e-16 0.0002414199 3.237269e-07 
  126000  0.029947042       18 8.6065771e-16 0.0002414199 3.2372672e-07 
  127000  0.034447908       18 8.6065771e-16 0.0002414199 3.2372655e-07 
  128000  0.040967941       18 8.6065771e-16 0.0002414199 3.2372638e-07 
  129000  0.045624018       18 8.6065771e-16 0.0002414199 3.2372621e-07 
  130000  0.050046921       18 8.6065771e-16 0.0002414199 3.2372604e-07 
  130013  0.050151825       18 8.6065771e-16 3.3718013e-05 3.239052e-07 
Loop time of 0.050163 on 4 procs for 10000 steps with 18 atoms

97.7% CPU use with 4 MPI tasks x no OpenMP threads
timestep 500
fix_modify k1 demflag 0
fix_modify vf1 demflag 0
fix_modify d1 demflag 0
Step CPU Atoms biomass c_myPres c_myHeight 
  130013            0       18 8.6065771e-16 3.3718013e-05 3.239052e-07 
number of iteration: 1 
height = 3.248593e-07 
S-sub-bulk = 2.999425e-02
S-sub-base = 2.999957e-02
S-o2-bulk = 1.000000e-02
S-o2-base = 9.999967e-03

  130014 0.00024700165       18 8.8451616e-16 0.00057392071 3.2485931e-07 
Loop time of 0.000263274 on 4 procs for 1 steps with 18 atoms

0.0% CPU use with 4 MPI tasks x no OpenMP threads
fix_modify k1 demflag 1
fix_modify vf1 demflag 1
fix_modify d1 demflag 1
timestep 1e-3
run 10000 pre no post no
Step CPU Atoms biomass c_myPres c_myHeight 
  130014            0       18 8.8451616e-16 0.00057392071 3.2485931e-07 
  131000 0.0041949749       18 8.8451616e-16 7.2504777e-05 3.2598293e-07 
  132000 0.0092489719       18 8.8451616e-16 7.2504777e-05 3.2598276e-07 
  133000  0.013664961       18 8.8451616e-16 7.2504777e-05 3.2598259e-07 
  134000  0.020352125       18 8.8451616e-16 7.2504777e-05 3.2598242e-07 
  135000  0.025433064       18 8.8451616e-16 7.2504777e-05 3.2598226e-07 
  136000  0.029803038       18 8.8451616e-16 7.2504777e-05 3.2598209e-07 
  137000  0.034218073       18 8.8451616e-16 7.2504777e-05 3.2598192e-07 
  138000  0.038828135       18 8.8451616e-16 7.2504777e-05 3.2598175e-07 
  139000  0.043982983       18 8.8451616e-16 7.2504777e-05 3.2598158e-07 
  140000  0.049764156       18 8.8451616e-16 7.2504777e-05 3.2598141e-07 
  140014  0.049885035       18 8.8451616e-16 7.2504777e-05 3.2598141e-07 
Loop time of 0.0498989 on 4 procs for 10000 steps with 18 atoms

104.2% CPU use with 4 MPI tasks x no OpenMP threads
timestep 500
fix_modify k1 demflag 0
fix_modify vf1 demflag 0
fix_modify d1 demflag 0
Step CPU Atoms biomass c_myPres c_myHeight 
  140014            0       18 8.8451616e-16 7.2504777e-05 3.2598141e-07 
number of iteration: 1 
height = 3.269476e-07 
S-sub-bulk = 2.999425e-02
S-sub-base = 2.999952e-02
S-o2-bulk = 1.000000e-02
S-o2-base = 9.999965e-03

  140015 0.00027394295       18 9.0903599e-16 0.00076776606 3.2694755e-07 
Loop time of 0.000286281 on 4 procs for 1 steps with 18 atoms

0.0% CPU use with 4 MPI tasks x no OpenMP threads
fix_modify k1 demflag 1
fix_modify vf1 demflag 1
fix_modify d1 demflag 1
timestep 1e-3
run 10000 pre no post no
Step CPU Atoms biomass c_myPres c_myHeight 
  140015            0       18 9.0903599e-16 0.00076776606 3.2694755e-07 
  141000 0.0058250427       18 9.0903599e-16 0.00020974824 3.2805693e-07 
  142000  0.010216951       18 9.0903599e-16 0.00020974824 3.2805676e-07 
  143000  0.014699936       18 9.0903599e-16 0.00020974824 3.280566e-07 
  144000  0.019127131       18 9.0903599e-16 0.00020974824 3.2805643e-07 
  145000  0.024485111       18 9.0903599e-16 0.00020974824 3.2805626e-07 
  146000  0.030019999       18 9.0903599e-16 0.00020974824 3.2805609e-07 
  147000  0.036358118       18 9.0903599e-16 0.00020974824 3.2805593e-07 
  148000  0.040812969       18 9.0903599e-16 0.00020974824 3.2805576e-07 
  149000  0.045278072       18 9.0903599e-16 0.00020974824 3.2805559e-07 
  150000  0.049576044       18 9.0903599e-16 0.00020974824 3.2805543e-07 
  150015  0.049705029       18 9.0903599e-16 7.3155819e-05 3.2823128e-07 
Loop time of 0.0497208 on 4 procs for 10000 steps with 18 atoms

98.6% CPU use with 4 MPI tasks x no OpenMP threads
timestep 500
fix_modify k1 demflag 0
fix_modify vf1 demflag 0
fix_modify d1 demflag 0
Step CPU Atoms biomass c_myPres c_myHeight 
  150015            0       18 9.0903599e-16 7.3155819e-05 3.2823128e-07 
number of iteration: 1 
height = 3.292095e-07 
S-sub-bulk = 2.999425e-02
S-sub-base = 2.999946e-02
S-o2-bulk = 1.000000e-02
S-o2-base = 9.999963e-03

  150016 0.00027704239       18 9.3423553e-16 0.00047044324 3.2920954e-07 
Loop time of 0.000289202 on 4 procs for 1 steps with 18 atoms

0.0% CPU use with 4 MPI tasks x no OpenMP threads
fix_modify k1 demflag 1
fix_modify vf1 demflag 1
fix_modify d1 demflag 1
timestep 1e-3
run 10000 pre no post no
Step CPU Atoms biomass c_myPres c_myHeight 
  150016            0       18 9.3423553e-16 0.00047044324 3.2920954e-07 
  151000 0.0051219463       18 9.3423553e-16 3.7111841e-05 3.3039848e-07 
  152000  0.010696888       18 9.3423553e-16 3.7111841e-05 3.3039832e-07 
  153000  0.016307831       18 9.3423553e-16 3.7111841e-05 3.3039815e-07 
  154000  0.021538973       18 9.3423553e-16 3.7111841e-05 3.3039799e-07 
  155000   0.02601099       18 9.3423553e-16 3.7111841e-05 3.3039782e-07 
  156000  0.030283928       18 9.3423553e-16 3.7111841e-05 3.3039766e-07 
  157000  0.035665989       18 9.3423553e-16 3.7111841e-05 3.3039749e-07 
  158000  0.040747881       18 9.3423553e-16 3.7111841e-05 3.3039733e-07 
  159000  0.045691967       18 9.3423553e-16 3.7111841e-05 3.3039717e-07 
  160000  0.050323963       18 9.3423553e-16 3.7111841e-05  3.30397e-07 
  160016  0.050420046       18 9.3423553e-16 3.7111841e-05  3.30397e-07 
Loop time of 0.0504327 on 4 procs for 10000 steps with 18 atoms

99.1% CPU use with 4 MPI tasks x no OpenMP threads
timestep 500
fix_modify k1 demflag 0
fix_modify vf1 demflag 0
fix_modify d1 demflag 0
Step CPU Atoms biomass c_myPres c_myHeight 
  160016            0       18 9.3423553e-16 3.7111841e-05  3.30397e-07 
number of iteration: 1 
height = 3.313875e-07 
S-sub-bulk = 2.999425e-02
S-sub-base = 2.999940e-02
S-o2-bulk = 1.000000e-02
S-o2-base = 9.999961e-03

  160017 0.00024604797       18 9.6013362e-16 0.00082949214 3.3138748e-07 
Loop time of 0.000258923 on 4 procs for 1 steps with 18 atoms

0.0% CPU use with 4 MPI tasks x no OpenMP threads
fix_modify k1 demflag 1
fix_modify vf1 demflag 1
fix_modify d1 demflag 1
timestep 1e-3
run 10000 pre no post no
Step CPU Atoms biomass c_myPres c_myHeight 
  160017            0       18 9.6013362e-16 0.00082949214 3.3138748e-07 
  161000 0.0048511028       18 9.6013362e-16 0.00029463594 3.3270746e-07 
  162000  0.010703087       18 9.6013362e-16 0.00029463594 3.327073e-07 
  163000  0.015591145       18 9.6013362e-16 0.00029463594 3.3270714e-07 
  164000  0.021708965       18 9.6013362e-16 0.00029463594 3.3270697e-07 
  165000  0.026741982       18 9.6013362e-16 0.00029463594 3.3270681e-07 
  166000  0.031267166       18 9.6013362e-16 0.00029463594 3.3270665e-07 
  167000  0.036184072       18 9.6013362e-16 0.00029463594 3.3270649e-07 
  168000  0.041134119       18 9.6013362e-16 0.00029463594 3.3270632e-07 
  169000   0.04612112       18 9.6013362e-16 0.00029463594 3.3270616e-07 
  170000  0.050488949       18 9.6013362e-16 0.00029463594  3.32706e-07 
  170017  0.050590992       18 9.6013362e-16 4.457387e-05 3.3269666e-07 
Loop time of 0.050602 on 4 procs for 10000 steps with 18 atoms

102.8% CPU use with 4 MPI tasks x no OpenMP threads
timestep 500
fix_modify k1 demflag 0
fix_modify vf1 demflag 0
fix_modify d1 demflag 0
Step CPU Atoms biomass c_myPres c_myHeight 
  170017            0       18 9.6013362e-16 4.457387e-05 3.3269666e-07 
number of iteration: 1 
height = 3.338813e-07 
S-sub-bulk = 2.999425e-02
S-sub-base = 2.999934e-02
S-o2-bulk = 1.000000e-02
S-o2-base = 9.999959e-03

  170018 0.00023198128       18 9.8674963e-16 0.00049123453 3.3388135e-07 
Loop time of 0.000243664 on 4 procs for 1 steps with 18 atoms

0.0% CPU use with 4 MPI tasks x no OpenMP threads
fix_modify k1 demflag 1
fix_modify vf1 demflag 1
fix_modify d1 demflag 1
timestep 1e-3
run 10000 pre no post no
Step CPU Atoms biomass c_myPres c_myHeight 
  170018            0       18 9.8674963e-16 0.00049123453 3.3388135e-07 
  171000 0.0053880215       18 9.8674963e-16 4.5788932e-05 3.3497549e-07 
  172000  0.011273146       18 9.8674963e-16 4.5788932e-05 3.3497533e-07 
  173000  0.015727043       18 9.8674963e-16 4.5788932e-05 3.3497517e-07 
  174000  0.020630121       18 9.8674963e-16 4.5788932e-05 3.3497501e-07 
  175000  0.025662184       18 9.8674963e-16 4.5788932e-05 3.3497485e-07 
  176000  0.031469107       18 9.8674963e-16 4.5788932e-05 3.3497469e-07 
  177000  0.036594152       18 9.8674963e-16 4.5788932e-05 3.3497453e-07 
  178000   0.04135108       18 9.8674963e-16 4.5788932e-05 3.3497437e-07 
  179000   0.04591608       18 9.8674963e-16 4.5788932e-05 3.349742e-07 
  180000  0.050292969       18 9.8674963e-16 4.5788932e-05 3.3497404e-07 
  180018  0.050431013       18 9.8674963e-16 4.5788932e-05 3.3497404e-07 
Loop time of 0.0504456 on 4 procs for 10000 steps with 18 atoms

101.1% CPU use with 4 MPI tasks x no OpenMP threads
timestep 500
fix_modify k1 demflag 0
fix_modify vf1 demflag 0
fix_modify d1 demflag 0
Step CPU Atoms biomass c_myPres c_myHeight 
  180018            0       18 9.8674963e-16 4.5788932e-05 3.3497404e-07 
number of iteration: 1 
height = 3.360527e-07 
S-sub-bulk = 2.999425e-02
S-sub-base = 2.999928e-02
S-o2-bulk = 1.000000e-02
S-o2-base = 9.999957e-03

  180019 0.00027894974       18 1.0141035e-15 0.00041642824 3.3605273e-07 
Loop time of 0.00029242 on 4 procs for 1 steps with 18 atoms

0.0% CPU use with 4 MPI tasks x no OpenMP threads
fix_modify k1 demflag 1
fix_modify vf1 demflag 1
fix_modify d1 demflag 1
timestep 1e-3
run 10000 pre no post no
Step CPU Atoms biomass c_myPres c_myHeight 
  180019            0       18 1.0141035e-15 0.00041642824 3.3605273e-07 
  181000 0.0050001144       18 1.0141035e-15 0.0004467354 3.369146e-07 
  182000  0.010838032       18 1.0141035e-15 0.0004467354 3.3691444e-07 
  183000  0.016674995       18 1.0141035e-15 0.0004467354 3.3691428e-07 
  184000  0.021085024       18 1.0141035e-15 0.0004467354 3.3691412e-07 
  185000  0.025538921       18 1.0141035e-15 0.0004467354 3.3691396e-07 
  186000  0.029871941       18 1.0141035e-15 0.0004467354 3.369138e-07 
  187000  0.035206079       18 1.0141035e-15 0.0004467354 3.3691364e-07 
  188000  0.040829897       18 1.0141035e-15 0.0004467354 3.3691348e-07 
  189000  0.046186924       18 1.0141035e-15 0.0004467354 3.3691333e-07 
  190000  0.051270962       18 1.0141035e-15 0.0004467354 3.3691317e-07 
  190019  0.051395893       18 1.0141035e-15 6.5507799e-05 3.3708181e-07 
Loop time of 0.0514073 on 4 procs for 10000 steps with 18 atoms

101.2% CPU use with 4 MPI tasks x no OpenMP threads
timestep 500
fix_modify k1 demflag 0
fix_modify vf1 demflag 0
fix_modify d1 demflag 0
Step CPU Atoms biomass c_myPres c_myHeight 
  190019            0       18 1.0141035e-15 6.5507799e-05 3.3708181e-07 
number of iteration: 1 
height = 3.381101e-07 
S-sub-bulk = 2.999425e-02
S-sub-base = 2.999922e-02
S-o2-bulk = 1.000000e-02
S-o2-base = 9.999955e-03

  190020 0.00031089783       18 1.0422155e-15 0.00087157615 3.3811013e-07 
Loop time of 0.000330687 on 4 procs for 1 steps with 18 atoms

0.0% CPU use with 4 MPI tasks x no OpenMP threads
fix_modify k1 demflag 1
fix_modify vf1 demflag 1
fix_modify d1 demflag 1
timestep 1e-3
run 10000 pre no post no
Step CPU Atoms biomass c_myPres c_myHeight 
  190020            0       18 1.0422155e-15 0.00087157615 3.3811013e-07 
  191000  0.006508112       18 1.0422155e-15 8.2502514e-05 3.3949789e-07 
  192000  0.013108969       18 1.0422155e-15 8.2502514e-05 3.3949774e-07 
  193000   0.02038312       18 1.0422155e-15 8.2502514e-05 3.3949758e-07 
  194000  0.027158022       18 1.0422155e-15 8.2502514e-05 3.3949742e-07 
  195000  0.032031059       18 1.0422155e-15 8.2502514e-05 3.3949727e-07 
  196000  0.036292076       18 1.0422155e-15 8.2502514e-05 3.3949711e-07 
  197000  0.041283131       18 1.0422155e-15 8.2502514e-05 3.3949695e-07 
  198000  0.045913935       18 1.0422155e-15 8.2502514e-05 3.394968e-07 
  199000  0.051181078       18 1.0422155e-15 8.2502514e-05 3.3949664e-07 
  200000   0.05605197       18 1.0422155e-15 8.2502514e-05 3.3949648e-07 
  200020  0.056169033       18 1.0422155e-15 8.2502514e-05 3.3949648e-07 
Loop time of 0.056181 on 4 procs for 10000 steps with 18 atoms

99.7% CPU use with 4 MPI tasks x no OpenMP threads
timestep 500
fix_modify k1 demflag 0
fix_modify vf1 demflag 0
fix_modify d1 demflag 0
Step CPU Atoms biomass c_myPres c_myHeight 
  200020            0       18 1.0422155e-15 8.2502514e-05 3.3949648e-07 
number of iteration: 1 
height = 3.447460e-07 
S-sub-bulk = 2.999425e-02
S-sub-base = 2.999916e-02
S-o2-bulk = 1.000000e-02
S-o2-base = 9.999953e-03

  200021 0.00025296211       21 1.0711069e-15 0.0032878048  3.44746e-07 
Loop time of 0.000265896 on 4 procs for 1 steps with 21 atoms

0.0% CPU use with 4 MPI tasks x no OpenMP threads
fix_modify k1 demflag 1
fix_modify vf1 demflag 1
fix_modify d1 demflag 1
timestep 1e-3
run 10000 pre no post no
Step CPU Atoms biomass c_myPres c_myHeight 
  200021            0       21 1.0711069e-15 0.0032878048  3.44746e-07 
  201000 0.0046429634       21 1.0711069e-15 0.00022807988 3.5367954e-07 
  202000 0.0095140934       21 1.0711069e-15 0.00022807988 3.5367942e-07 
  203000  0.015276909       21 1.0711069e-15 0.00022807988 3.5367931e-07 
  204000  0.020081997       21 1.0711069e-15 0.00022807988 3.5367919e-07 
  205000  0.026682138       21 1.0711069e-15 0.00022807988 3.5367908e-07 
  206000  0.031423092       21 1.0711069e-15 0.00022807988 3.5367897e-07 
  207000  0.035850048       21 1.0711069e-15 0.00022807988 3.5367885e-07 
  208000  0.040300131       21 1.0711069e-15 0.00022807988 3.5367874e-07 
  209000  0.045146942       21 1.0711069e-15 0.00022807988 3.5367863e-07 
  210000  0.050141096       21 1.0711069e-15 0.00022807988 3.5367851e-07 
  210021  0.050266027       21 1.0711069e-15 0.00013594822 3.5362695e-07 
Loop time of 0.050276 on 4 procs for 10000 steps with 21 atoms

101.4% CPU use with 4 MPI tasks x no OpenMP threads
timestep 500
fix_modify k1 demflag 0
fix_modify vf1 demflag 0
fix_modify d1 demflag 0
Step CPU Atoms biomass c_myPres c_myHeight 
  210021            0       21 1.0711069e-15 0.00013594822 3.5362695e-07 
number of iteration: 1 
height = 3.548501e-07 
S-sub-bulk = 2.999425e-02
S-sub-base = 2.999909e-02
S-o2-bulk = 1.000000e-02
S-o2-base = 9.999951e-03

  210022 0.00022292137       21 1.1007992e-15 0.00052407137 3.5485008e-07 
Loop time of 0.00023365 on 4 procs for 1 steps with 21 atoms

0.0% CPU use with 4 MPI tasks x no OpenMP threads
fix_modify k1 demflag 1
fix_modify vf1 demflag 1
fix_modify d1 demflag 1
timestep 1e-3
run 10000 pre no post no
Step CPU Atoms biomass c_myPres c_myHeight 
  210022            0       21 1.1007992e-15 0.00052407137 3.5485008e-07 
  211000 0.0061378479       21 1.1007992e-15 6.3896516e-05  3.56091e-07 
  212000   0.01147294       21 1.1007992e-15 6.3896516e-05 3.5609089e-07 
  213000  0.015865803       21 1.1007992e-15 6.3896516e-05 3.5609077e-07 
  214000  0.020387888       21 1.1007992e-15 6.3896516e-05 3.5609066e-07 
  215000  0.024856806       21 1.1007992e-15 6.3896516e-05 3.5609055e-07 
  216000   0.03007102       21 1.1007992e-15 6.3896516e-05 3.5609044e-07 
  217000  0.035861015       21 1.1007992e-15 6.3896516e-05 3.5609032e-07 
  218000  0.041632891       21 1.1007992e-15 6.3896516e-05 3.5609021e-07 
  219000  0.045986891       21 1.1007992e-15 6.3896516e-05 3.560901e-07 
  220000  0.050513983       21 1.1007992e-15 6.3896516e-05 3.5608999e-07 
  220022  0.050653934       21 1.1007992e-15 6.3896516e-05 3.5608998e-07 
Loop time of 0.0506642 on 4 procs for 10000 steps with 21 atoms

96.7% CPU use with 4 MPI tasks x no OpenMP threads
timestep 500
fix_modify k1 demflag 0
fix_modify vf1 demflag 0
fix_modify d1 demflag 0
Step CPU Atoms biomass c_myPres c_myHeight 
  220022            0       21 1.1007992e-15 6.3896516e-05 3.5608998e-07 
number of iteration: 1 
height = 4.197560e-07 
S-sub-bulk = 2.999425e-02
S-sub-base = 2.999903e-02
S-o2-bulk = 1.000000e-02
S-o2-base = 9.999949e-03

  220023 0.00026416779       26 1.1313146e-15 0.0039428187 4.1975601e-07 
Loop time of 0.000278473 on 4 procs for 1 steps with 26 atoms

0.0% CPU use with 4 MPI tasks x no OpenMP threads
fix_modify k1 demflag 1
fix_modify vf1 demflag 1
fix_modify d1 demflag 1
timestep 1e-3
run 10000 pre no post no
Step CPU Atoms biomass c_myPres c_myHeight 
  220023            0       26 1.1313146e-15 0.0039428187 4.1975601e-07 
  221000 0.0044801235       26 1.1313146e-15 0.00019722722 4.2826303e-07 
  222000 0.0097360611       26 1.1313146e-15 0.00019722678 4.2826302e-07 
  223000  0.015861034       26 1.1313146e-15 0.00019722634 4.2826301e-07 
  224000    0.0217731       26 1.1313146e-15 0.00019722591 4.2826301e-07 
  225000  0.026542902       26 1.1313146e-15 0.00019722547  4.28263e-07 
  226000  0.031145096       26 1.1313146e-15 0.00019722503 4.2826299e-07 
  227000  0.036310911       26 1.1313146e-15 0.0001972246 4.2826299e-07 
  228000  0.040982962       26 1.1313146e-15 0.00019722416 4.2826298e-07 
  229000  0.047810078       26 1.1313146e-15 0.00019722372 4.2826297e-07 
  230000  0.052550077       26 1.1313146e-15 0.00019722329 4.2826297e-07 
  230023  0.052695036       26 1.1313146e-15 0.0002509597 4.2816001e-07 
Loop time of 0.0527062 on 4 procs for 10000 steps with 26 atoms

102.5% CPU use with 4 MPI tasks x no OpenMP threads
timestep 500
fix_modify k1 demflag 0
fix_modify vf1 demflag 0
fix_modify d1 demflag 0
Step CPU Atoms biomass c_myPres c_myHeight 
  230023            0       26 1.1313146e-15 0.0002509597 4.2816001e-07 
number of iteration: 1 
height = 4.296049e-07 
S-sub-bulk = 2.999425e-02
S-sub-base = 2.999896e-02
S-o2-bulk = 1.000000e-02
S-o2-base = 9.999947e-03

  230024 0.00025200844       26 1.1626758e-15 0.0006049973 4.2960493e-07 
Loop time of 0.00026536 on 4 procs for 1 steps with 26 atoms

376.8% CPU use with 4 MPI tasks x no OpenMP threads
fix_modify k1 demflag 1
fix_modify vf1 demflag 1
fix_modify d1 demflag 1
timestep 1e-3
run 10000 pre no post no
Step CPU Atoms biomass c_myPres c_myHeight 
  230024            0       26 1.1626758e-15 0.0006049973 4.2960493e-07 
  231000 0.0045881271       26 1.1626758e-15 0.00014362679 4.3108166e-07 
  232000 0.0091180801       26 1.1626758e-15 0.00014362679 4.3108164e-07 
  233000  0.014698029       26 1.1626758e-15 0.00014362679 4.3108163e-07 
  234000  0.019842148       26 1.1626758e-15 0.00014362679 4.3108162e-07 
  235000  0.026465178       26 1.1626758e-15 0.00014362679 4.3108161e-07 
  236000  0.030902147       26 1.1626758e-15 0.00014362679 4.310816e-07 
  237000  0.035572052       26 1.1626758e-15 0.00014362679 4.3108158e-07 
  238000   0.03996706       26 1.1626758e-15 0.00014362679 4.3108157e-07 
  239000  0.045571089       26 1.1626758e-15 0.00014362679 4.3108156e-07 
  240000  0.050835133       26 1.1626758e-15 0.00014362679 4.3108155e-07 
  240024  0.051005125       26 1.1626758e-15 0.00014362679 4.3108155e-07 
Loop time of 0.0510197 on 4 procs for 10000 steps with 26 atoms

96.0% CPU use with 4 MPI tasks x no OpenMP threads
timestep 500
fix_modify k1 demflag 0
fix_modify vf1 demflag 0
fix_modify d1 demflag 0
Step CPU Atoms biomass c_myPres c_myHeight 
  240024            0       26 1.1626758e-15 0.00014362679 4.3108155e-07 
number of iteration: 1 
height = 4.638059e-07 
S-sub-bulk = 2.999425e-02
S-sub-base = 2.999890e-02
S-o2-bulk = 1.000000e-02
S-o2-base = 9.999945e-03

  240025 0.00027298927       27 1.1949064e-15 0.0006142832 4.6380589e-07 
Loop time of 0.000287056 on 4 procs for 1 steps with 27 atoms

696.7% CPU use with 4 MPI tasks x no OpenMP threads
fix_modify k1 demflag 1
fix_modify vf1 demflag 1
fix_modify d1 demflag 1
timestep 1e-3
run 10000 pre no post no
Step CPU Atoms biomass c_myPres c_myHeight 
  240025            0       27 1.1949064e-15 0.0006142832 4.6380589e-07 
  241000  0.006262064       27 1.1949064e-15  0.000242732 4.6557971e-07 
  242000  0.010983944       27 1.1949064e-15 0.00024273169 4.655797e-07 
  243000  0.015767097       27 1.1949064e-15 0.00024273137 4.6557968e-07 
  244000  0.020289898       27 1.1949064e-15 0.00024273106 4.6557966e-07 
  245000  0.025804043       27 1.1949064e-15 0.00024273074 4.6557964e-07 
  246000  0.031459093       27 1.1949064e-15 0.00024273043 4.6557963e-07 
  247000  0.037197113       27 1.1949064e-15 0.00024273012 4.6557961e-07 
  248000  0.044016123       27 1.1949064e-15 0.0002427298 4.6557959e-07 
  249000  0.049000025       27 1.1949064e-15 0.00024272949 4.6557957e-07 
  250000  0.054436922       27 1.1949064e-15 0.00024272917 4.6557956e-07 
  250025  0.054604053       27 1.1949064e-15 7.4752468e-05 4.655983e-07 
Loop time of 0.0546165 on 4 procs for 10000 steps with 27 atoms

97.0% CPU use with 4 MPI tasks x no OpenMP threads
timestep 500
fix_modify k1 demflag 0
fix_modify vf1 demflag 0
fix_modify d1 demflag 0
Step CPU Atoms biomass c_myPres c_myHeight 
  250025            0       27 1.1949064e-15 7.4752468e-05 4.655983e-07 
number of iteration: 1 
height = 4.670006e-07 
S-sub-bulk = 2.999425e-02
S-sub-base = 2.999883e-02
S-o2-bulk = 1.000000e-02
S-o2-base = 9.999943e-03

  250026 0.00025391579       27 1.2280305e-15 0.00056323478 4.6700056e-07 
Loop time of 0.000268281 on 4 procs for 1 steps with 27 atoms

372.7% CPU use with 4 MPI tasks x no OpenMP threads
fix_modify k1 demflag 1
fix_modify vf1 demflag 1
fix_modify d1 demflag 1
timestep 1e-3
run 10000 pre no post no
Step CPU Atoms biomass c_myPres c_myHeight 
  250026            0       27 1.2280305e-15 0.00056323478 4.6700056e-07 
  251000 0.0045359135       27 1.2280305e-15 0.00021968036 4.6805202e-07 
  252000  0.011525869       27 1.2280305e-15 0.00021968072  4.68052e-07 
  253000   0.01642704       27 1.2280305e-15 0.00021968108 4.6805198e-07 
  254000  0.020750046       27 1.2280305e-15 0.00021968143 4.6805196e-07 
  255000  0.025112867       27 1.2280305e-15 0.00021968179 4.6805193e-07 
  256000  0.030575991       27 1.2280305e-15 0.00021968215 4.6805191e-07 
  257000  0.035259962       27 1.2280305e-15 0.00021968251 4.6805189e-07 
  258000  0.041754007       27 1.2280305e-15 0.00021968287 4.6805187e-07 
  259000  0.046776056       27 1.2280305e-15 0.00021968323 4.6805185e-07 
  260000  0.051138878       27 1.2280305e-15 0.00021968358 4.6805183e-07 
  260026  0.051295996       27 1.2280305e-15 0.00021968359 4.6805183e-07 
Loop time of 0.0513084 on 4 procs for 10000 steps with 27 atoms

99.4% CPU use with 4 MPI tasks x no OpenMP threads
timestep 500
fix_modify k1 demflag 0
fix_modify vf1 demflag 0
fix_modify d1 demflag 0
Step CPU Atoms biomass c_myPres c_myHeight 
  260026            0       27 1.2280305e-15 0.00021968359 4.6805183e-07 
number of iteration: 1 
height = 4.694504e-07 
S-sub-bulk = 2.999425e-02
S-sub-base = 2.999876e-02
S-o2-bulk = 1.000000e-02
S-o2-base = 9.999942e-03

  260027 0.00024390221       27 1.2620728e-15 0.0007317961 4.6945039e-07 
Loop time of 0.000258744 on 4 procs for 1 steps with 27 atoms

0.0% CPU use with 4 MPI tasks x no OpenMP threads
fix_modify k1 demflag 1
fix_modify vf1 demflag 1
fix_modify d1 demflag 1
timestep 1e-3
run 10000 pre no post no
Step CPU Atoms biomass c_myPres c_myHeight 
  260027            0       27 1.2620728e-15 0.0007317961 4.6945039e-07 
  261000 0.0042200089       27 1.2620728e-15 0.00029098102 4.7115126e-07 
  262000 0.0096039772       27 1.2620728e-15 0.00029098078 4.7115123e-07 
  263000  0.014374018       27 1.2620728e-15 0.00029098055 4.711512e-07 
  264000  0.020884991       27 1.2620728e-15 0.00029098031 4.7115117e-07 
  265000  0.025424004       27 1.2620728e-15 0.00029098007 4.7115114e-07 
  266000  0.029837132       27 1.2620728e-15 0.00029097983 4.7115111e-07 
  267000  0.034431934       27 1.2620728e-15 0.0002909796 4.7115108e-07 
  268000   0.03984499       27 1.2620728e-15 0.00029097936 4.7115105e-07 
  269000   0.04487896       27 1.2620728e-15 0.00029097912 4.7115102e-07 
  270000  0.050807953       27 1.2620728e-15 0.00029097888 4.7115099e-07 
  270027  0.050958157       27 1.2620728e-15 0.00014249164 4.710394e-07 
Loop time of 0.0509696 on 4 procs for 10000 steps with 27 atoms

102.0% CPU use with 4 MPI tasks x no OpenMP threads
timestep 500
fix_modify k1 demflag 0
fix_modify vf1 demflag 0
fix_modify d1 demflag 0
Step CPU Atoms biomass c_myPres c_myHeight 
  270027            0       27 1.2620728e-15 0.00014249164 4.710394e-07 
number of iteration: 1 
height = 4.918214e-07 
S-sub-bulk = 2.999425e-02
S-sub-base = 2.999870e-02
S-o2-bulk = 1.000000e-02
S-o2-base = 9.999940e-03

  270028 0.00024199486       28 1.2970588e-15 0.00068448222 4.9182141e-07 
Loop time of 0.000256777 on 4 procs for 1 steps with 28 atoms

0.0% CPU use with 4 MPI tasks x no OpenMP threads
fix_modify k1 demflag 1
fix_modify vf1 demflag 1
fix_modify d1 demflag 1
timestep 1e-3
run 10000 pre no post no
Step CPU Atoms biomass c_myPres c_myHeight 
  270028            0       28 1.2970588e-15 0.00068448222 4.9182141e-07 
  271000 0.0045628548       28 1.2970588e-15 8.7928901e-05 5.4291278e-07 
  272000 0.0093779564       28 1.2970588e-15 8.7928901e-05 5.4291274e-07 
  273000  0.013740063       28 1.2970588e-15 8.7928901e-05 5.429127e-07 
  274000  0.019237995       28 1.2970588e-15 8.7928901e-05 5.4291267e-07 
  275000  0.024090052       28 1.2970588e-15 8.7928901e-05 5.4291263e-07 
  276000  0.030470848       28 1.2970588e-15 8.7928901e-05 5.4291259e-07 
  277000  0.035101891       28 1.2970588e-15 8.7928901e-05 5.4291255e-07 
  278000  0.039491892       28 1.2970588e-15 8.7928901e-05 5.4291252e-07 
  279000  0.043900967       28 1.2970588e-15 8.7928901e-05 5.4291248e-07 
  280000  0.049190998       28 1.2970588e-15 8.7928901e-05 5.4291244e-07 
  280028  0.049348831       28 1.2970588e-15 8.7928901e-05 5.4291244e-07 
Loop time of 0.0493605 on 4 procs for 10000 steps with 28 atoms

99.3% CPU use with 4 MPI tasks x no OpenMP threads
timestep 500
fix_modify k1 demflag 0
fix_modify vf1 demflag 0
fix_modify d1 demflag 0
Step CPU Atoms biomass c_myPres c_myHeight 
  280028            0       28 1.2970588e-15 8.7928901e-05 5.4291244e-07 
number of iteration: 1 
height = 5.447617e-07 
S-sub-bulk = 2.999425e-02
S-sub-base = 2.999863e-02
S-o2-bulk = 1.000000e-02
S-o2-base = 9.999938e-03

  280029 0.00023293495       28 1.3330146e-15 0.00057106278 5.447617e-07 
Loop time of 0.000246763 on 4 procs for 1 steps with 28 atoms

810.5% CPU use with 4 MPI tasks x no OpenMP threads
fix_modify k1 demflag 1
fix_modify vf1 demflag 1
fix_modify d1 demflag 1
timestep 1e-3
run 10000 pre no post no
Step CPU Atoms biomass c_myPres c_myHeight 
  280029            0       28 1.3330146e-15 0.00057106278 5.447617e-07 
  281000 0.0049519539       28 1.3330146e-15 0.00027602992 5.4562975e-07 
  282000  0.011644125       28 1.3330146e-15 0.00027602609 5.4562971e-07 
  283000  0.016320944       28 1.3330146e-15 0.00027602226 5.4562967e-07 
  284000  0.020688057       28 1.3330146e-15 0.00027601842 5.4562962e-07 
  285000  0.025125027       28 1.3330146e-15 0.00027601459 5.4562958e-07 
  286000  0.030629158       28 1.3330146e-15 0.00027601076 5.4562954e-07 
  287000  0.035449982       28 1.3330146e-15 0.00027600693 5.456295e-07 
  288000  0.041763067       28 1.3330146e-15 0.0002760031 5.4562945e-07 
  289000  0.046618938       28 1.3330146e-15 0.00027599927 5.4562941e-07 
  290000  0.050986052       28 1.3330146e-15 0.00027599544 5.4562937e-07 
  290029  0.051156998       28 1.3330146e-15 7.3163777e-05 5.4579442e-07 
Loop time of 0.0511684 on 4 procs for 10000 steps with 28 atoms

97.7% CPU use with 4 MPI tasks x no OpenMP threads
timestep 500
fix_modify k1 demflag 0
fix_modify vf1 demflag 0
fix_modify d1 demflag 0
Step CPU Atoms biomass c_myPres c_myHeight 
  290029            0       28 1.3330146e-15 7.3163777e-05 5.4579442e-07 
number of iteration: 1 
height = 5.473568e-07 
S-sub-bulk = 2.999425e-02
S-sub-base = 2.999857e-02
S-o2-bulk = 1.000000e-02
S-o2-base = 9.999936e-03

  290030 0.00025200844       28 1.3699671e-15 0.00087855184 5.4735684e-07 
Loop time of 0.000264645 on 4 procs for 1 steps with 28 atoms

0.0% CPU use with 4 MPI tasks x no OpenMP threads
fix_modify k1 demflag 1
fix_modify vf1 demflag 1
fix_modify d1 demflag 1
timestep 1e-3
run 10000 pre no post no
Step CPU Atoms biomass c_myPres c_myHeight 
  290030            0       28 1.3699671e-15 0.00087855184 5.4735684e-07 
  291000 0.0045890808       28 1.3699671e-15 9.4090158e-05 5.4882083e-07 
  292000  0.010048151       28 1.3699671e-15 9.4090158e-05 5.4882078e-07 
  293000   0.01444602       28 1.3699671e-15 9.4090158e-05 5.4882074e-07 
  294000  0.018831015       28 1.3699671e-15 9.4090158e-05 5.488207e-07 
  295000  0.025665045       28 1.3699671e-15 9.4090158e-05 5.4882065e-07 
  296000  0.030297041       28 1.3699671e-15 9.4090158e-05 5.4882061e-07 
  297000  0.034757137       28 1.3699671e-15 9.4090158e-05 5.4882056e-07 
  298000  0.040249109       28 1.3699671e-15 9.4090158e-05 5.4882052e-07 
  299000  0.045658112       28 1.3699671e-15 9.4090158e-05 5.4882048e-07 
  300000  0.051628113       28 1.3699671e-15 9.4090158e-05 5.4882043e-07 
  300030  0.051805973       28 1.3699671e-15 9.4090158e-05 5.4882043e-07 
Loop time of 0.0518186 on 4 procs for 10000 steps with 28 atoms

100.4% CPU use with 4 MPI tasks x no OpenMP threads
timestep 500
fix_modify k1 demflag 0
fix_modify vf1 demflag 0
fix_modify d1 demflag 0
Step CPU Atoms biomass c_myPres c_myHeight 
  300030            0       28 1.3699671e-15 9.4090158e-05 5.4882043e-07 
number of iteration: 1 
height = 6.394554e-07 
S-sub-bulk = 2.999425e-02
S-sub-base = 2.999850e-02
S-o2-bulk = 1.000000e-02
S-o2-base = 9.999933e-03

  300031 0.00023603439       33 1.407944e-15 0.0015797756 6.394554e-07 
Loop time of 0.000250995 on 4 procs for 1 steps with 33 atoms

0.0% CPU use with 4 MPI tasks x no OpenMP threads
fix_modify k1 demflag 1
fix_modify vf1 demflag 1
fix_modify d1 demflag 1
timestep 1e-3
run 10000 pre no post no
Step CPU Atoms biomass c_myPres c_myHeight 
  300031            0       33 1.407944e-15 0.0015797756 6.394554e-07 
  301000 0.0044939518       33 1.407944e-15 0.00022768833 6.636673e-07 
  302000 0.0089991093       33 1.407944e-15 0.00022768452 6.6366724e-07 
  303000  0.013498068       33 1.407944e-15 0.00022768072 6.6366719e-07 
  304000  0.019054174       33 1.407944e-15 0.00022767692 6.6366713e-07 
  305000  0.025102139       33 1.407944e-15 0.00022767311 6.6366708e-07 
  306000  0.032843113       33 1.407944e-15 0.00022766931 6.6366702e-07 
  307000  0.038625002       33 1.407944e-15 0.00022766551 6.6366697e-07 
  308000  0.043179989       33 1.407944e-15 0.0002276617 6.6366691e-07 
  309000  0.050323963       33 1.407944e-15 0.0002276579 6.6366685e-07 
  310000  0.058222055       33 1.407944e-15 0.00022765409 6.636668e-07 
  310031  0.058475018       33 1.407944e-15 2.4305021e-05 6.6376545e-07 
Loop time of 0.0584939 on 4 procs for 10000 steps with 33 atoms

99.2% CPU use with 4 MPI tasks x no OpenMP threads
timestep 500
fix_modify k1 demflag 0
fix_modify vf1 demflag 0
fix_modify d1 demflag 0
Step CPU Atoms biomass c_myPres c_myHeight 
  310031            0       33 1.407944e-15 2.4305021e-05 6.6376545e-07 
number of iteration: 1 
height = 6.656277e-07 
S-sub-bulk = 2.999425e-02
S-sub-base = 2.999843e-02
S-o2-bulk = 1.000000e-02
S-o2-base = 9.999932e-03

  310032 0.00029611588       33 1.4469736e-15 0.00062135228 6.6562767e-07 
Loop time of 0.000309169 on 4 procs for 1 steps with 33 atoms

0.0% CPU use with 4 MPI tasks x no OpenMP threads
fix_modify k1 demflag 1
fix_modify vf1 demflag 1
fix_modify d1 demflag 1
timestep 1e-3
run 10000 pre no post no
Step CPU Atoms biomass c_myPres c_myHeight 
  310032            0       33 1.4469736e-15 0.00062135228 6.6562767e-07 
  311000 0.0070319176       33 1.4469736e-15 0.00011205129 6.6703363e-07 
  312000  0.014473915       33 1.4469736e-15 0.00011205129 6.6703358e-07 
  313000  0.022752047       33 1.4469736e-15 0.00011205129 6.6703353e-07 
  314000  0.030940056       33 1.4469736e-15 0.00011205129 6.6703349e-07 
  315000  0.035444975       33 1.4469736e-15 0.00011205129 6.6703344e-07 
  316000  0.040030956       33 1.4469736e-15 0.00011205129 6.6703339e-07 
  317000   0.04487586       33 1.4469736e-15 0.00011205129 6.6703334e-07 
  318000  0.049413919       33 1.4469736e-15 0.00011205129 6.6703329e-07 
  319000  0.054018021       33 1.4469736e-15 0.00011205129 6.6703325e-07 
  320000  0.058660984       33 1.4469736e-15 0.00011205129 6.670332e-07 
  320032  0.058837891       33 1.4469736e-15 0.00011205129 6.670332e-07 
Loop time of 0.0588497 on 4 procs for 10000 steps with 33 atoms

102.0% CPU use with 4 MPI tasks x no OpenMP threads
timestep 500
fix_modify k1 demflag 0
fix_modify vf1 demflag 0
fix_modify d1 demflag 0
Step CPU Atoms biomass c_myPres c_myHeight 
  320032            0       33 1.4469736e-15 0.00011205129 6.670332e-07 
number of iteration: 1 
height = 7.323734e-07 
S-sub-bulk = 2.999425e-02
S-sub-base = 2.999837e-02
S-o2-bulk = 1.000000e-02
S-o2-base = 9.999930e-03

  320033 0.00027489662       36 1.4870851e-15 0.00096846295 7.323734e-07 
Loop time of 0.000288963 on 4 procs for 1 steps with 36 atoms

0.0% CPU use with 4 MPI tasks x no OpenMP threads
fix_modify k1 demflag 1
fix_modify vf1 demflag 1
fix_modify d1 demflag 1
timestep 1e-3
run 10000 pre no post no
Step CPU Atoms biomass c_myPres c_myHeight 
  320033            0       36 1.4870851e-15 0.00096846295 7.323734e-07 
  321000 0.0053489208       36 1.4870851e-15 0.00022470638 7.5251978e-07 
  322000  0.014186144       36 1.4870851e-15 0.00022470638 7.5251972e-07 
  323000  0.021256924       36 1.4870851e-15 0.00022470638 7.5251966e-07 
  324000  0.026226997       36 1.4870851e-15 0.00022470638 7.5251961e-07 
  325000  0.031803131       36 1.4870851e-15 0.00022470638 7.5251955e-07 
  326000   0.03915596       36 1.4870851e-15 0.00022470638 7.5251949e-07 
  327000  0.043770075       36 1.4870851e-15 0.00022470638 7.5251944e-07 
  328000   0.04846096       36 1.4870851e-15 0.00022470638 7.5251938e-07 
  329000  0.053198099       36 1.4870851e-15 0.00022470638 7.5251932e-07 
  330000  0.058480024       36 1.4870851e-15 0.00022470638 7.5251927e-07 
  330033  0.058665037       36 1.4870851e-15 0.00017972743 7.5227566e-07 
Loop time of 0.0586777 on 4 procs for 10000 steps with 36 atoms

102.3% CPU use with 4 MPI tasks x no OpenMP threads
timestep 500
fix_modify k1 demflag 0
fix_modify vf1 demflag 0
fix_modify d1 demflag 0
Step CPU Atoms biomass c_myPres c_myHeight 
  330033            0       36 1.4870851e-15 0.00017972743 7.5227566e-07 
number of iteration: 1 
height = 7.547626e-07 
S-sub-bulk = 2.999425e-02
S-sub-base = 2.999830e-02
S-o2-bulk = 1.000000e-02
S-o2-base = 9.999928e-03

  330034 0.00027108192       36 1.5283086e-15 0.00067466981 7.5476262e-07 
Loop time of 0.000283241 on 4 procs for 1 steps with 36 atoms

0.0% CPU use with 4 MPI tasks x no OpenMP threads
fix_modify k1 demflag 1
fix_modify vf1 demflag 1
fix_modify d1 demflag 1
timestep 1e-3
run 10000 pre no post no
Step CPU Atoms biomass c_myPres c_myHeight 
  330034            0       36 1.5283086e-15 0.00067466981 7.5476262e-07 
  331000 0.0047898293       36 1.5283086e-15 8.7276419e-05 7.5624324e-07 
  332000  0.010157824       36 1.5283086e-15 8.7276419e-05 7.5624321e-07 
  333000  0.015070915       36 1.5283086e-15 8.7276419e-05 7.5624318e-07 
  334000  0.020756006       36 1.5283086e-15 8.7276419e-05 7.5624315e-07 
  335000  0.028057814       36 1.5283086e-15 8.7276419e-05 7.5624312e-07 
  336000  0.034411907       36 1.5283086e-15 8.7276419e-05 7.5624309e-07 
  337000  0.042064905       36 1.5283086e-15 8.7276419e-05 7.5624306e-07 
  338000  0.049885035       36 1.5283086e-15 8.7276419e-05 7.5624303e-07 
  339000  0.056190014       36 1.5283086e-15 8.7276419e-05  7.56243e-07 
  340000  0.061671019       36 1.5283086e-15 8.7276419e-05 7.5624297e-07 
  340034  0.061889887       36 1.5283086e-15 8.7276419e-05 7.5624297e-07 
Loop time of 0.0619013 on 4 procs for 10000 steps with 36 atoms

96.9% CPU use with 4 MPI tasks x no OpenMP threads
timestep 500
fix_modify k1 demflag 0
fix_modify vf1 demflag 0
fix_modify d1 demflag 0
Step CPU Atoms biomass c_myPres c_myHeight 
  340034            0       36 1.5283086e-15 8.7276419e-05 7.5624297e-07 
number of iteration: 1 
height = 7.582889e-07 
S-sub-bulk = 2.999425e-02
S-sub-base = 2.999824e-02
S-o2-bulk = 1.000000e-02
S-o2-base = 9.999926e-03

  340035 0.0002348423       36 1.5706749e-15 0.00071813103 7.5828889e-07 
Loop time of 0.000247478 on 4 procs for 1 steps with 36 atoms

0.0% CPU use with 4 MPI tasks x no OpenMP threads
fix_modify k1 demflag 1
fix_modify vf1 demflag 1
fix_modify d1 demflag 1
timestep 1e-3
run 10000 pre no post no
Step CPU Atoms biomass c_myPres c_myHeight 
  340035            0       36 1.5706749e-15 0.00071813103 7.5828889e-07 
  341000 0.0059158802       36 1.5706749e-15 0.0003181686 7.5997532e-07 
  342000  0.011837959       36 1.5706749e-15 0.00031816449 7.5997525e-07 
  343000  0.016633034       36 1.5706749e-15 0.00031816037 7.5997519e-07 
  344000   0.02137804       36 1.5706749e-15 0.00031815626 7.5997513e-07 
  345000   0.02688694       36 1.5706749e-15 0.00031815215 7.5997507e-07 
  346000  0.031610966       36 1.5706749e-15 0.00031814803 7.5997501e-07 
  347000  0.037945986       36 1.5706749e-15 0.00031814391 7.5997495e-07 
  348000  0.043303013       36 1.5706749e-15 0.0003181398 7.5997488e-07 
  349000  0.048008919       36 1.5706749e-15 0.00031813568 7.5997482e-07 
  350000  0.053046942       36 1.5706749e-15 0.00031813156 7.5997476e-07 
  350035  0.053343058       36 1.5706749e-15 6.3101702e-05 7.5991881e-07 
Loop time of 0.0533612 on 4 procs for 10000 steps with 36 atoms

103.1% CPU use with 4 MPI tasks x no OpenMP threads
timestep 500
fix_modify k1 demflag 0
fix_modify vf1 demflag 0
fix_modify d1 demflag 0
Step CPU Atoms biomass c_myPres c_myHeight 
  350035            0       36 1.5706749e-15 6.3101702e-05 7.5991881e-07 
number of iteration: 1 
height = 7.622594e-07 
S-sub-bulk = 2.999425e-02
S-sub-base = 2.999817e-02
S-o2-bulk = 1.000000e-02
S-o2-base = 9.999924e-03

  350036 0.00029993057       36 1.6142155e-15 0.00094450375 7.6225938e-07 
Loop time of 0.00031209 on 4 procs for 1 steps with 36 atoms

0.0% CPU use with 4 MPI tasks x no OpenMP threads
fix_modify k1 demflag 1
fix_modify vf1 demflag 1
fix_modify d1 demflag 1
timestep 1e-3
run 10000 pre no post no
Step CPU Atoms biomass c_myPres c_myHeight 
  350036            0       36 1.6142155e-15 0.00094450375 7.6225938e-07 
  351000 0.0052440166       36 1.6142155e-15 0.00014786129 7.6335761e-07 
  352000  0.010815144       36 1.6142155e-15 0.00014786129 7.6335757e-07 
  353000  0.017524004       36 1.6142155e-15 0.00014786129 7.6335753e-07 
  354000  0.022482157       36 1.6142155e-15 0.00014786129 7.6335749e-07 
  355000  0.027268171       36 1.6142155e-15 0.00014786129 7.6335745e-07 
  356000  0.033101082       36 1.6142155e-15 0.00014786129 7.6335741e-07 
  357000  0.037905216       36 1.6142155e-15 0.00014786129 7.6335737e-07 
  358000  0.044684172       36 1.6142155e-15 0.00014786129 7.6335733e-07 
  359000  0.050072193       36 1.6142155e-15 0.00014786129 7.6335729e-07 
  360000  0.054865122       36 1.6142155e-15 0.00014786129 7.6335725e-07 
  360036  0.055080175       36 1.6142155e-15 0.00014786129 7.6335725e-07 
Loop time of 0.0550923 on 4 procs for 10000 steps with 36 atoms

99.8% CPU use with 4 MPI tasks x no OpenMP threads
timestep 500
fix_modify k1 demflag 0
fix_modify vf1 demflag 0
fix_modify d1 demflag 0
Step CPU Atoms biomass c_myPres c_myHeight 
  360036            0       36 1.6142155e-15 0.00014786129 7.6335725e-07 
number of iteration: 1 
height = 7.654905e-07 
S-sub-bulk = 2.999425e-02
S-sub-base = 2.999811e-02
S-o2-bulk = 1.000000e-02
S-o2-base = 9.999922e-03

  360037 0.00025486946       36 1.6589631e-15 0.00091645715 7.6549053e-07 
Loop time of 0.000267446 on 4 procs for 1 steps with 36 atoms

373.9% CPU use with 4 MPI tasks x no OpenMP threads
fix_modify k1 demflag 1
fix_modify vf1 demflag 1
fix_modify d1 demflag 1
timestep 1e-3
run 10000 pre no post no
Step CPU Atoms biomass c_myPres c_myHeight 
  360037            0       36 1.6589631e-15 0.00091645715 7.6549053e-07 
  361000 0.0055458546       36 1.6589631e-15 0.00030028237 7.6767203e-07 
  362000  0.010495901       36 1.6589631e-15 0.00030028237 7.6767199e-07 
  363000  0.016392946       36 1.6589631e-15 0.00030028237 7.6767196e-07 
  364000  0.022179842       36 1.6589631e-15 0.00030028237 7.6767192e-07 
  365000  0.027448893       36 1.6589631e-15 0.00030028237 7.6767188e-07 
  366000  0.032160997       36 1.6589631e-15 0.00030028237 7.6767184e-07 
  367000  0.037968874       36 1.6589631e-15 0.00030028237 7.676718e-07 
  368000  0.043331861       36 1.6589631e-15 0.00030028237 7.6767176e-07 
  369000  0.050616026       36 1.6589631e-15 0.00030028237 7.6767173e-07 
  370000  0.056105852       36 1.6589631e-15 0.00030028237 7.6767169e-07 
  370037   0.05634284       36 1.6589631e-15 0.00018524533 7.6755248e-07 
Loop time of 0.0563555 on 4 procs for 10000 steps with 36 atoms

99.4% CPU use with 4 MPI tasks x no OpenMP threads
timestep 500
fix_modify k1 demflag 0
fix_modify vf1 demflag 0
fix_modify d1 demflag 0
Step CPU Atoms biomass c_myPres c_myHeight 
  370037            0       36 1.6589631e-15 0.00018524533 7.6755248e-07 
number of iteration: 1 
height = 7.699983e-07 
S-sub-bulk = 2.999425e-02
S-sub-base = 2.999804e-02
S-o2-bulk = 1.000000e-02
S-o2-base = 9.999920e-03

  370038 0.00024008751       36 1.7049512e-15 0.0011193276 7.6999834e-07 
Loop time of 0.000252008 on 4 procs for 1 steps with 36 atoms

0.0% CPU use with 4 MPI tasks x no OpenMP threads
fix_modify k1 demflag 1
fix_modify vf1 demflag 1
fix_modify d1 demflag 1
timestep 1e-3
run 10000 pre no post no
Step CPU Atoms biomass c_myPres c_myHeight 
  370038            0       36 1.7049512e-15 0.0011193276 7.6999834e-07 
  371000 0.0044569969       36 1.7049512e-15 0.00017193684 7.7208611e-07 
  372000  0.011620998       36 1.7049512e-15 0.00017193684 7.7208605e-07 
  373000  0.019731998       36 1.7049512e-15 0.00017193684  7.72086e-07 
  374000  0.028093815       36 1.7049512e-15 0.00017193684 7.7208595e-07 
  375000  0.033392906       36 1.7049512e-15 0.00017193684 7.720859e-07 
  376000  0.038203001       36 1.7049512e-15 0.00017193684 7.7208585e-07 
  377000  0.043079853       36 1.7049512e-15 0.00017193684 7.720858e-07 
  378000  0.047758818       36 1.7049512e-15 0.00017193684 7.7208575e-07 
  379000  0.052990913       36 1.7049512e-15 0.00017193684 7.720857e-07 
  380000  0.058084011       36 1.7049512e-15 0.00017193684 7.7208565e-07 
  380038  0.058288813       36 1.7049512e-15 0.00017193684 7.7208564e-07 
Loop time of 0.0583016 on 4 procs for 10000 steps with 36 atoms

101.2% CPU use with 4 MPI tasks x no OpenMP threads
timestep 500
fix_modify k1 demflag 0
fix_modify vf1 demflag 0
fix_modify d1 demflag 0
Step CPU Atoms biomass c_myPres c_myHeight 
  380038            0       36 1.7049512e-15 0.00017193684 7.7208564e-07 
number of iteration: 1 
height = 7.744193e-07 
S-sub-bulk = 2.999425e-02
S-sub-base = 2.999798e-02
S-o2-bulk = 1.000000e-02
S-o2-base = 9.999917e-03

  380039 0.0002810955       36 1.7522141e-15 0.0011971834 7.7441928e-07 
Loop time of 0.000294447 on 4 procs for 1 steps with 36 atoms

0.0% CPU use with 4 MPI tasks x no OpenMP threads
fix_modify k1 demflag 1
fix_modify vf1 demflag 1
fix_modify d1 demflag 1
timestep 1e-3
run 10000 pre no post no
Step CPU Atoms biomass c_myPres c_myHeight 
  380039            0       36 1.7522141e-15 0.0011971834 7.7441928e-07 
  381000 0.0056068897       36 1.7522141e-15 0.00035641177 7.7687864e-07 
  382000  0.012409925       36 1.7522141e-15 0.00035629552 7.768786e-07 
  383000  0.019325972       36 1.7522141e-15 0.00035618031 7.7687856e-07 
  384000  0.026320934       36 1.7522141e-15 0.00035606567 7.7687852e-07 
  385000  0.032644987       36 1.7522141e-15 0.00035595199 7.7687848e-07 
  386000   0.04061389       36 1.7522141e-15 0.0003558394 7.7687844e-07 
  387000   0.04885006       36 1.7522141e-15 0.00035572734 7.7687839e-07 
  388000  0.053791046       36 1.7522141e-15 0.00035561612 7.7687835e-07 
  389000  0.059046984       36 1.7522141e-15 0.00035550522 7.7687831e-07 
  390000  0.064721107       36 1.7522141e-15 0.00035539486 7.7687827e-07 
  390039  0.065074921       36 1.7522141e-15 0.00012088388 7.7671655e-07 
Loop time of 0.065094 on 4 procs for 10000 steps with 36 atoms

99.9% CPU use with 4 MPI tasks x no OpenMP threads
timestep 500
fix_modify k1 demflag 0
fix_modify vf1 demflag 0
fix_modify d1 demflag 0
Step CPU Atoms biomass c_myPres c_myHeight 
  390039            0       36 1.7522141e-15 0.00012088388 7.7671655e-07 
number of iteration: 1 
height = 7.792477e-07 
S-sub-bulk = 2.999425e-02
S-sub-base = 2.999792e-02
S-o2-bulk = 1.000000e-02
S-o2-base = 9.999915e-03

  390040 0.00029110909       36 1.8007871e-15 0.0011760295 7.7924772e-07 
Loop time of 0.000303984 on 4 procs for 1 steps with 36 atoms

0.0% CPU use with 4 MPI tasks x no OpenMP threads
fix_modify k1 demflag 1
fix_modify vf1 demflag 1
fix_modify d1 demflag 1
timestep 1e-3
run 10000 pre no post no
Step CPU Atoms biomass c_myPres c_myHeight 
  390040            0       36 1.8007871e-15 0.0011760295 7.7924772e-07 
  391000  0.006125927       36 1.8007871e-15 0.00024262045 7.8145019e-07 
  392000  0.013140917       36 1.8007871e-15 0.00024262045 7.8145015e-07 
  393000   0.01820302       36 1.8007871e-15 0.00024262045 7.8145011e-07 
  394000  0.023061991       36 1.8007871e-15 0.00024262045 7.8145007e-07 
  395000  0.028095961       36 1.8007871e-15 0.00024262045 7.8145003e-07 
  396000  0.035330057       36 1.8007871e-15 0.00024262045 7.8144999e-07 
  397000  0.042329073       36 1.8007871e-15 0.00024262045 7.8144995e-07 
  398000  0.047133923       36 1.8007871e-15 0.00024262045 7.8144991e-07 
  399000  0.051944971       36 1.8007871e-15 0.00024262045 7.8144987e-07 
  400000  0.056805134       36 1.8007871e-15 0.00024262045 7.8144983e-07 
  400040  0.057024002       36 1.8007871e-15 0.00024262045 7.8144982e-07 
Loop time of 0.0570357 on 4 procs for 10000 steps with 36 atoms

98.2% CPU use with 4 MPI tasks x no OpenMP threads
timestep 500
fix_modify k1 demflag 0
fix_modify vf1 demflag 0
fix_modify d1 demflag 0
Step CPU Atoms biomass c_myPres c_myHeight 
  400040            0       36 1.8007871e-15 0.00024262045 7.8144982e-07 
number of iteration: 1 
height = 7.837870e-07 
S-sub-bulk = 2.999425e-02
S-sub-base = 2.999785e-02
S-o2-bulk = 1.000000e-02
S-o2-base = 9.999913e-03

  400041 0.00024795532       36 1.8507066e-15 0.0013175842 7.8378699e-07 
Loop time of 0.000258923 on 4 procs for 1 steps with 36 atoms

0.0% CPU use with 4 MPI tasks x no OpenMP threads
fix_modify k1 demflag 1
fix_modify vf1 demflag 1
fix_modify d1 demflag 1
timestep 1e-3
run 10000 pre no post no
Step CPU Atoms biomass c_myPres c_myHeight 
  400041            0       36 1.8507066e-15 0.0013175842 7.8378699e-07 
  401000 0.0056529045       36 1.8507066e-15 0.00040641431 7.8665644e-07 
  402000  0.011184931       36 1.8507066e-15 0.00040641431 7.8665641e-07 
  403000  0.016419888       36 1.8507066e-15 0.00040641431 7.8665639e-07 
  404000  0.021251917       36 1.8507066e-15 0.00040641431 7.8665637e-07 
  405000  0.028522968       36 1.8507066e-15 0.00040641431 7.8665634e-07 
  406000  0.033341885       36 1.8507066e-15 0.00040641431 7.8665632e-07 
  407000  0.038712025       36 1.8507066e-15 0.00040641431 7.8665629e-07 
  408000  0.043972015       36 1.8507066e-15 0.00040641431 7.8665627e-07 
  409000  0.048845053       36 1.8507066e-15 0.00040641431 7.8665624e-07 
  410000  0.054645061       36 1.8507066e-15 0.00040641431 7.8665622e-07 
  410041   0.05487299       36 1.8507066e-15 0.00020664721 7.8664734e-07 
Loop time of 0.0548832 on 4 procs for 10000 steps with 36 atoms

100.2% CPU use with 4 MPI tasks x no OpenMP threads
timestep 500
fix_modify k1 demflag 0
fix_modify vf1 demflag 0
fix_modify d1 demflag 0
Step CPU Atoms biomass c_myPres c_myHeight 
  410041            0       36 1.8507066e-15 0.00020664721 7.8664734e-07 
number of iteration: 1 
height = 8.070947e-07 
S-sub-bulk = 2.999425e-02
S-sub-base = 2.999779e-02
S-o2-bulk = 1.000000e-02
S-o2-base = 9.999910e-03

  410042 0.00026893616       37 1.9020099e-15 0.0028188401 8.0709466e-07 
Loop time of 0.00028038 on 4 procs for 1 steps with 37 atoms

0.0% CPU use with 4 MPI tasks x no OpenMP threads
fix_modify k1 demflag 1
fix_modify vf1 demflag 1
fix_modify d1 demflag 1
timestep 1e-3
run 10000 pre no post no
Step CPU Atoms biomass c_myPres c_myHeight 
  410042            0       37 1.9020099e-15 0.0028188401 8.0709466e-07 
  411000 0.0046830177       37 1.9020099e-15 0.00010710473 8.1115834e-07 
  412000  0.010711193       37 1.9020099e-15 0.00010710473 8.1115829e-07 
  413000  0.017307043       37 1.9020099e-15 0.00010710473 8.1115825e-07 
  414000  0.022245169       37 1.9020099e-15 0.00010710473 8.111582e-07 
  415000  0.027127981       37 1.9020099e-15 0.00010710473 8.1115816e-07 
  416000  0.032042027       37 1.9020099e-15 0.00010710473 8.1115811e-07 
  417000  0.036867142       37 1.9020099e-15 0.00010710473 8.1115807e-07 
  418000  0.041802168       37 1.9020099e-15 0.00010710473 8.1115802e-07 
  419000  0.047679186       37 1.9020099e-15 0.00010710473 8.1115798e-07 
  420000  0.053054094       37 1.9020099e-15 0.00010710473 8.1115793e-07 
  420042   0.05333519       37 1.9020099e-15 0.00010710473 8.1115793e-07 
Loop time of 0.0533506 on 4 procs for 10000 steps with 37 atoms

103.1% CPU use with 4 MPI tasks x no OpenMP threads
timestep 500
fix_modify k1 demflag 0
fix_modify vf1 demflag 0
fix_modify d1 demflag 0
Step CPU Atoms biomass c_myPres c_myHeight 
  420042            0       37 1.9020099e-15 0.00010710473 8.1115793e-07 
number of iteration: 1 
height = 8.498091e-07 
S-sub-bulk = 2.999425e-02
S-sub-base = 2.999772e-02
S-o2-bulk = 1.000000e-02
S-o2-base = 9.999908e-03

  420043 0.00025415421       42 1.9547354e-15 0.0047602595 8.4980908e-07 
Loop time of 0.000265598 on 4 procs for 1 steps with 42 atoms

0.0% CPU use with 4 MPI tasks x no OpenMP threads
fix_modify k1 demflag 1
fix_modify vf1 demflag 1
fix_modify d1 demflag 1
timestep 1e-3
run 10000 pre no post no
Step CPU Atoms biomass c_myPres c_myHeight 
  420043            0       42 1.9547354e-15 0.0047602595 8.4980908e-07 
  421000 0.0069069862       42 1.9547354e-15 0.00023161381 8.5859894e-07 
  422000  0.012157202       42 1.9547354e-15 0.00023161381 8.5859894e-07 
  423000   0.01731205       42 1.9547354e-15 0.00023161381 8.5859894e-07 
  424000   0.02285099       42 1.9547354e-15 0.00023161381 8.5859894e-07 
  425000  0.030085087       42 1.9547354e-15 0.00023161381 8.5859894e-07 
  426000  0.037778139       42 1.9547354e-15 0.00023161381 8.5859894e-07 
  427000  0.043853045       42 1.9547354e-15 0.00023161381 8.5859894e-07 
  428000  0.049697161       42 1.9547354e-15 0.00023161381 8.5859894e-07 
  429000  0.056271076       42 1.9547354e-15 0.00023161381 8.5859894e-07 
  430000  0.063485146       42 1.9547354e-15 0.00023161381 8.5859894e-07 
  430043  0.063875198       42 1.9547354e-15 0.00029845976 8.7550973e-07 
Loop time of 0.0638863 on 4 procs for 10000 steps with 42 atoms

100.2% CPU use with 4 MPI tasks x no OpenMP threads
timestep 500
fix_modify k1 demflag 0
fix_modify vf1 demflag 0
fix_modify d1 demflag 0
Step CPU Atoms biomass c_myPres c_myHeight 
  430043            0       42 1.9547354e-15 0.00029845976 8.7550973e-07 
number of iteration: 1 
height = 8.612032e-07 
S-sub-bulk = 2.999425e-02
S-sub-base = 2.999766e-02
S-o2-bulk = 1.000000e-02
S-o2-base = 9.999905e-03

  430044 0.00024986267       42 2.0089225e-15 0.0010295298 8.6120318e-07 
Loop time of 0.000259638 on 4 procs for 1 steps with 42 atoms

385.2% CPU use with 4 MPI tasks x no OpenMP threads
fix_modify k1 demflag 1
fix_modify vf1 demflag 1
fix_modify d1 demflag 1
timestep 1e-3
run 10000 pre no post no
Step CPU Atoms biomass c_myPres c_myHeight 
  430044            0       42 2.0089225e-15 0.0010295298 8.6120318e-07 
  431000 0.0057890415       42 2.0089225e-15 0.00034797868 8.8039215e-07 
  432000   0.01096487       42 2.0089225e-15 0.00034797868 8.8039215e-07 
  433000  0.016027927       42 2.0089225e-15 0.00034797868 8.8039215e-07 
  434000  0.022622824       42 2.0089225e-15 0.00034797868 8.8039215e-07 
  435000   0.03094697       42 2.0089225e-15 0.00034797868 8.8039215e-07 
  436000  0.039178848       42 2.0089225e-15 0.00034797868 8.8039215e-07 
  437000  0.044543982       42 2.0089225e-15 0.00034797868 8.8039215e-07 
  438000  0.050081968       42 2.0089225e-15 0.00034797868 8.8039215e-07 
  439000  0.055827856       42 2.0089225e-15 0.00034797868 8.8039215e-07 
  440000  0.063319921       42 2.0089225e-15 0.00034797868 8.8039215e-07 
  440044  0.063634872       42 2.0089225e-15 0.00034797868 8.8039215e-07 
Loop time of 0.0636473 on 4 procs for 10000 steps with 42 atoms

99.0% CPU use with 4 MPI tasks x no OpenMP threads
timestep 500
fix_modify k1 demflag 0
fix_modify vf1 demflag 0
fix_modify d1 demflag 0
Step CPU Atoms biomass c_myPres c_myHeight 
  440044            0       42 2.0089225e-15 0.00034797868 8.8039215e-07 
number of iteration: 1 
height = 8.832448e-07 
S-sub-bulk = 2.999425e-02
S-sub-base = 2.999760e-02
S-o2-bulk = 1.000000e-02
S-o2-base = 9.999903e-03

  440045 0.00029015541       43 2.0646116e-15 0.0036739527 8.8324484e-07 
Loop time of 0.000300646 on 4 procs for 1 steps with 43 atoms

332.6% CPU use with 4 MPI tasks x no OpenMP threads
fix_modify k1 demflag 1
fix_modify vf1 demflag 1
fix_modify d1 demflag 1
timestep 1e-3
run 10000 pre no post no
Step CPU Atoms biomass c_myPres c_myHeight 
  440045            0       43 2.0646116e-15 0.0036739527 8.8324484e-07 
  441000 0.0053400993       43 2.0646116e-15 0.00028261194 9.1620028e-07 
  442000  0.010596991       43 2.0646116e-15 0.00028261194 9.1620027e-07 
  443000   0.01642108       43 2.0646116e-15 0.00028261194 9.1620027e-07 
  444000  0.022064924       43 2.0646116e-15 0.00028261194 9.1620027e-07 
  445000  0.029392004       43 2.0646116e-15 0.00028261194 9.1620027e-07 
  446000  0.034970045       43 2.0646116e-15 0.00028261194 9.1620027e-07 
  447000  0.040143967       43 2.0646116e-15 0.00028261193 9.1620027e-07 
  448000  0.045355082       43 2.0646116e-15 0.00028261193 9.1620027e-07 
  449000  0.051307917       43 2.0646116e-15 0.00028261193 9.1620026e-07 
  450000  0.058475018       43 2.0646116e-15 0.00028261193 9.1620026e-07 
  450045  0.058892965       43 2.0646116e-15 0.00021647561 9.1614836e-07 
Loop time of 0.0589052 on 4 procs for 10000 steps with 43 atoms

96.8% CPU use with 4 MPI tasks x no OpenMP threads
timestep 500
fix_modify k1 demflag 0
fix_modify vf1 demflag 0
fix_modify d1 demflag 0
Step CPU Atoms biomass c_myPres c_myHeight 
  450045            0       43 2.0646116e-15 0.00021647561 9.1614836e-07 
number of iteration: 1 
height = 9.190010e-07 
S-sub-bulk = 2.999425e-02
S-sub-base = 2.999754e-02
S-o2-bulk = 1.000000e-02
S-o2-base = 9.999900e-03

  450046 0.00024604797       43 2.1218445e-15 0.0013805595 9.1900101e-07 
Loop time of 0.000261784 on 4 procs for 1 steps with 43 atoms

764.0% CPU use with 4 MPI tasks x no OpenMP threads
fix_modify k1 demflag 1
fix_modify vf1 demflag 1
fix_modify d1 demflag 1
timestep 1e-3
run 10000 pre no post no
Step CPU Atoms biomass c_myPres c_myHeight 
  450046            0       43 2.1218445e-15 0.0013805595 9.1900101e-07 
  451000 0.0054521561       43 2.1218445e-15 0.00028791047 9.2112741e-07 
  452000  0.010801077       43 2.1218445e-15 0.00028790948 9.2112741e-07 
  453000  0.015992165       43 2.1218445e-15 0.00028790849 9.2112741e-07 
  454000  0.022222042       43 2.1218445e-15 0.00028790751 9.2112741e-07 
  455000  0.029766083       43 2.1218445e-15 0.00028790652 9.2112741e-07 
  456000  0.035596132       43 2.1218445e-15 0.00028790553 9.2112741e-07 
[...]

number of iteration: 1 
S-sub-bulk = 2.203288e-02
S-sub-base = 2.187839e-02
S-o2-bulk = 1.000000e-02
S-o2-base = 9.969831e-03

number of iteration: 1 
S-sub-bulk = 2.203288e-02
S-sub-base = 2.187836e-02
S-o2-bulk = 1.000000e-02
S-o2-base = 9.969825e-03

number of iteration: 1 
S-sub-bulk = 2.203288e-02
S-sub-base = 2.187833e-02
S-o2-bulk = 1.000000e-02
S-o2-base = 9.969820e-03

number of iteration: 1 
S-sub-bulk = 2.203288e-02
S-sub-base = 2.187830e-02
S-o2-bulk = 1.000000e-02
S-o2-base = 9.969814e-03

number of iteration: 1 
S-sub-bulk = 2.203288e-02
S-sub-base = 2.187827e-02
S-o2-bulk = 1.000000e-02
S-o2-base = 9.969809e-03

number of iteration: 1 
S-sub-bulk = 2.203288e-02
S-sub-base = 2.187824e-02
S-o2-bulk = 1.000000e-02
S-o2-base = 9.969803e-03

number of iteration: 1 
S-sub-bulk = 2.203289e-02
S-sub-base = 2.187821e-02
S-o2-bulk = 1.000000e-02
S-o2-base = 9.969798e-03

number of iteration: 1 
S-sub-bulk = 2.203289e-02
S-sub-base = 2.187819e-02
S-o2-bulk = 1.000000e-02
S-o2-base = 9.969792e-03

number of iteration: 1 
S-sub-bulk = 2.203289e-02
S-sub-base = 2.187816e-02
S-o2-bulk = 1.000000e-02
S-o2-base = 9.969787e-03

number of iteration: 1 
S-sub-bulk = 2.203289e-02
S-sub-base = 2.187813e-02
S-o2-bulk = 1.000000e-02
S-o2-base = 9.969781e-03

number of iteration: 1 
S-sub-bulk = 2.203289e-02
S-sub-base = 2.187810e-02
S-o2-bulk = 1.000000e-02
S-o2-base = 9.969776e-03

number of iteration: 1 
S-sub-bulk = 2.203289e-02
S-sub-base = 2.187807e-02
S-o2-bulk = 1.000000e-02
S-o2-base = 9.969770e-03

number of iteration: 1 
S-sub-bulk = 2.203289e-02
S-sub-base = 2.187804e-02
S-o2-bulk = 1.000000e-02
S-o2-base = 9.969765e-03

number of iteration: 1 
S-sub-bulk = 2.203290e-02
S-sub-base = 2.187801e-02
S-o2-bulk = 1.000000e-02
S-o2-base = 9.969759e-03

number of iteration: 1 
S-sub-bulk = 2.203290e-02
S-sub-base = 2.187798e-02
S-o2-bulk = 1.000000e-02
S-o2-base = 9.969754e-03

number of iteration: 1 
S-sub-bulk = 2.203290e-02
S-sub-base = 2.187795e-02
S-o2-bulk = 1.000000e-02
S-o2-base = 9.969749e-03

number of iteration: 1 
S-sub-bulk = 2.203290e-02
S-sub-base = 2.187792e-02
S-o2-bulk = 1.000000e-02
S-o2-base = 9.969743e-03

number of iteration: 1 
S-sub-bulk = 2.203290e-02
S-sub-base = 2.187790e-02
S-o2-bulk = 1.000000e-02
S-o2-base = 9.969738e-03

number of iteration: 1 
S-sub-bulk = 2.203290e-02
S-sub-base = 2.187787e-02
S-o2-bulk = 1.000000e-02
S-o2-base = 9.969732e-03

number of iteration: 1 
S-sub-bulk = 2.203290e-02
S-sub-base = 2.187784e-02
S-o2-bulk = 1.000000e-02
S-o2-base = 9.969727e-03

number of iteration: 1 
S-sub-bulk = 2.203290e-02
S-sub-base = 2.187781e-02
S-o2-bulk = 1.000000e-02
S-o2-base = 9.969722e-03

number of iteration: 1 
S-sub-bulk = 2.203291e-02
S-sub-base = 2.187778e-02
S-o2-bulk = 1.000000e-02
S-o2-base = 9.969716e-03

number of iteration: 1 
S-sub-bulk = 2.203291e-02
S-sub-base = 2.187775e-02
S-o2-bulk = 1.000000e-02
S-o2-base = 9.969711e-03

number of iteration: 1 
S-sub-bulk = 2.203291e-02
S-sub-base = 2.187772e-02
S-o2-bulk = 1.000000e-02
S-o2-base = 9.969705e-03

number of iteration: 1 
S-sub-bulk = 2.203291e-02
S-sub-base = 2.187769e-02
S-o2-bulk = 1.000000e-02
S-o2-base = 9.969700e-03

number of iteration: 1 
S-sub-bulk = 2.203291e-02
S-sub-base = 2.187766e-02
S-o2-bulk = 1.000000e-02
S-o2-base = 9.969695e-03

number of iteration: 1 
S-sub-bulk = 2.203291e-02
S-sub-base = 2.187764e-02
S-o2-bulk = 1.000000e-02
S-o2-base = 9.969689e-03

number of iteration: 1 
S-sub-bulk = 2.203291e-02
S-sub-base = 2.187761e-02
S-o2-bulk = 1.000000e-02
S-o2-base = 9.969684e-03

number of iteration: 1 
S-sub-bulk = 2.203292e-02
S-sub-base = 2.187758e-02
S-o2-bulk = 1.000000e-02
S-o2-base = 9.969679e-03

number of iteration: 1 
S-sub-bulk = 2.203292e-02
S-sub-base = 2.187755e-02
S-o2-bulk = 1.000000e-02
S-o2-base = 9.969673e-03

number of iteration: 1 
S-sub-bulk = 2.203292e-02
S-sub-base = 2.187752e-02
S-o2-bulk = 1.000000e-02
S-o2-base = 9.969668e-03

number of iteration: 1 
S-sub-bulk = 2.203292e-02
S-sub-base = 2.187749e-02
S-o2-bulk = 1.000000e-02
S-o2-base = 9.969663e-03

number of iteration: 1 
S-sub-bulk = 2.203292e-02
S-sub-base = 2.187746e-02
S-o2-bulk = 1.000000e-02
S-o2-base = 9.969657e-03

number of iteration: 1 
S-sub-bulk = 2.203292e-02
S-sub-base = 2.187743e-02
S-o2-bulk = 1.000000e-02
S-o2-base = 9.969652e-03

number of iteration: 1 
S-sub-bulk = 2.203292e-02
S-sub-base = 2.187740e-02
S-o2-bulk = 1.000000e-02
S-o2-base = 9.969647e-03

number of iteration: 1 
S-sub-bulk = 2.203292e-02
S-sub-base = 2.187738e-02
S-o2-bulk = 1.000000e-02
S-o2-base = 9.969641e-03

number of iteration: 1 
S-sub-bulk = 2.203293e-02
S-sub-base = 2.187735e-02
S-o2-bulk = 1.000000e-02
S-o2-base = 9.969636e-03

number of iteration: 1 
S-sub-bulk = 2.203293e-02
S-sub-base = 2.187732e-02
S-o2-bulk = 1.000000e-02
S-o2-base = 9.969631e-03

number of iteration: 1 
S-sub-bulk = 2.203293e-02
S-sub-base = 2.187729e-02
S-o2-bulk = 1.000000e-02
S-o2-base = 9.969626e-03

number of iteration: 1 
S-sub-bulk = 2.203293e-02
S-sub-base = 2.187726e-02
S-o2-bulk = 1.000000e-02
S-o2-base = 9.969620e-03

number of iteration: 1 
S-sub-bulk = 2.203293e-02
S-sub-base = 2.187723e-02
S-o2-bulk = 1.000000e-02
S-o2-base = 9.969615e-03

number of iteration: 1 
S-sub-bulk = 2.203293e-02
S-sub-base = 2.187720e-02
S-o2-bulk = 1.000000e-02
S-o2-base = 9.969610e-03

number of iteration: 1 
S-sub-bulk = 2.203293e-02
S-sub-base = 2.187717e-02
S-o2-bulk = 1.000000e-02
S-o2-base = 9.969605e-03

number of iteration: 1 
S-sub-bulk = 2.203293e-02
S-sub-base = 2.187714e-02
S-o2-bulk = 1.000000e-02
S-o2-base = 9.969599e-03

number of iteration: 1 
S-sub-bulk = 2.203294e-02
S-sub-base = 2.187712e-02
S-o2-bulk = 1.000000e-02
S-o2-base = 9.969594e-03

number of iteration: 1 
S-sub-bulk = 2.203294e-02
S-sub-base = 2.187709e-02
S-o2-bulk = 1.000000e-02
S-o2-base = 9.969589e-03

number of iteration: 1 
S-sub-bulk = 2.203294e-02
S-sub-base = 2.187706e-02
S-o2-bulk = 1.000000e-02
S-o2-base = 9.969584e-03

number of iteration: 1 
S-sub-bulk = 2.203294e-02
S-sub-base = 2.187703e-02
S-o2-bulk = 1.000000e-02
S-o2-base = 9.969578e-03

number of iteration: 1 
S-sub-bulk = 2.203294e-02
S-sub-base = 2.187700e-02
S-o2-bulk = 1.000000e-02
S-o2-base = 9.969573e-03

number of iteration: 1 
S-sub-bulk = 2.203294e-02
S-sub-base = 2.187697e-02
S-o2-bulk = 1.000000e-02
S-o2-base = 9.969568e-03

number of iteration: 1 
S-sub-bulk = 2.203294e-02
S-sub-base = 2.187694e-02
S-o2-bulk = 1.000000e-02
S-o2-base = 9.969563e-03

number of iteration: 1 
S-sub-bulk = 2.203295e-02
S-sub-base = 2.187691e-02
S-o2-bulk = 1.000000e-02
S-o2-base = 9.969558e-03

number of iteration: 1 
S-sub-bulk = 2.203295e-02
S-sub-base = 2.187688e-02
S-o2-bulk = 1.000000e-02
S-o2-base = 9.969552e-03

number of iteration: 1 
S-sub-bulk = 2.203295e-02
S-sub-base = 2.187686e-02
S-o2-bulk = 1.000000e-02
S-o2-base = 9.969547e-03

number of iteration: 1 
S-sub-bulk = 2.203295e-02
S-sub-base = 2.187683e-02
S-o2-bulk = 1.000000e-02
S-o2-base = 9.969542e-03

number of iteration: 1 
S-sub-bulk = 2.203295e-02
S-sub-base = 2.187680e-02
S-o2-bulk = 1.000000e-02
S-o2-base = 9.969537e-03

number of iteration: 1 
S-sub-bulk = 2.203295e-02
S-sub-base = 2.187677e-02
S-o2-bulk = 1.000000e-02
S-o2-base = 9.969532e-03

number of iteration: 1 
S-sub-bulk = 2.203295e-02
S-sub-base = 2.187674e-02
S-o2-bulk = 1.000000e-02
S-o2-base = 9.969526e-03

number of iteration: 1 
S-sub-bulk = 2.203295e-02
S-sub-base = 2.187671e-02
S-o2-bulk = 1.000000e-02
S-o2-base = 9.969521e-03

number of iteration: 1 
S-sub-bulk = 2.203296e-02
S-sub-base = 2.187668e-02
S-o2-bulk = 1.000000e-02
S-o2-base = 9.969516e-03

number of iteration: 1 
S-sub-bulk = 2.203296e-02
S-sub-base = 2.187665e-02
S-o2-bulk = 1.000000e-02
S-o2-base = 9.969511e-03

number of iteration: 1 
S-sub-bulk = 2.203296e-02
S-sub-base = 2.187663e-02
S-o2-bulk = 1.000000e-02
S-o2-base = 9.969506e-03

number of iteration: 1 
S-sub-bulk = 2.203296e-02
S-sub-base = 2.187660e-02
S-o2-bulk = 1.000000e-02
S-o2-base = 9.969501e-03

number of iteration: 1 
S-sub-bulk = 2.203296e-02
S-sub-base = 2.187657e-02
S-o2-bulk = 1.000000e-02
S-o2-base = 9.969496e-03

number of iteration: 1 
S-sub-bulk = 2.203296e-02
S-sub-base = 2.187654e-02
S-o2-bulk = 1.000000e-02
S-o2-base = 9.969491e-03

number of iteration: 1 
S-sub-bulk = 2.203296e-02
S-sub-base = 2.187651e-02
S-o2-bulk = 1.000000e-02
S-o2-base = 9.969485e-03

number of iteration: 1 
S-sub-bulk = 2.203296e-02
S-sub-base = 2.187648e-02
S-o2-bulk = 1.000000e-02
S-o2-base = 9.969480e-03

number of iteration: 1 
S-sub-bulk = 2.203297e-02
S-sub-base = 2.187645e-02
S-o2-bulk = 1.000000e-02
S-o2-base = 9.969475e-03

number of iteration: 1 
S-sub-bulk = 2.203297e-02
S-sub-base = 2.187643e-02
S-o2-bulk = 1.000000e-02
S-o2-base = 9.969470e-03

number of iteration: 1 
S-sub-bulk = 2.203297e-02
S-sub-base = 2.187640e-02
S-o2-bulk = 1.000000e-02
S-o2-base = 9.969465e-03

number of iteration: 1 
S-sub-bulk = 2.203297e-02
S-sub-base = 2.187637e-02
S-o2-bulk = 1.000000e-02
S-o2-base = 9.969460e-03

number of iteration: 1 
S-sub-bulk = 2.203297e-02
S-sub-base = 2.187634e-02
S-o2-bulk = 1.000000e-02
S-o2-base = 9.969455e-03

number of iteration: 1 
S-sub-bulk = 2.203297e-02
S-sub-base = 2.187631e-02
S-o2-bulk = 1.000000e-02
S-o2-base = 9.969450e-03

number of iteration: 1 
S-sub-bulk = 2.203297e-02
S-sub-base = 2.187628e-02
S-o2-bulk = 1.000000e-02
S-o2-base = 9.969445e-03

number of iteration: 1 
S-sub-bulk = 2.203297e-02
S-sub-base = 2.187625e-02
S-o2-bulk = 1.000000e-02
S-o2-base = 9.969440e-03

number of iteration: 1 
S-sub-bulk = 2.203298e-02
S-sub-base = 2.187622e-02
S-o2-bulk = 1.000000e-02
S-o2-base = 9.969435e-03

number of iteration: 1 
S-sub-bulk = 2.203298e-02
S-sub-base = 2.187620e-02
S-o2-bulk = 1.000000e-02
S-o2-base = 9.969430e-03

number of iteration: 1 
S-sub-bulk = 2.203298e-02
S-sub-base = 2.187617e-02
S-o2-bulk = 1.000000e-02
S-o2-base = 9.969425e-03

number of iteration: 1 
S-sub-bulk = 2.203298e-02
S-sub-base = 2.187614e-02
S-o2-bulk = 1.000000e-02
S-o2-base = 9.969420e-03

number of iteration: 1 
S-sub-bulk = 2.203298e-02
S-sub-base = 2.187611e-02
S-o2-bulk = 1.000000e-02
S-o2-base = 9.969415e-03

number of iteration: 1 
S-sub-bulk = 2.203298e-02
S-sub-base = 2.187608e-02
S-o2-bulk = 1.000000e-02
S-o2-base = 9.969409e-03

number of iteration: 1 
S-sub-bulk = 2.203298e-02
S-sub-base = 2.187605e-02
S-o2-bulk = 1.000000e-02
S-o2-base = 9.969404e-03

number of iteration: 1 
S-sub-bulk = 2.203298e-02
S-sub-base = 2.187602e-02
S-o2-bulk = 1.000000e-02
S-o2-base = 9.969399e-03

number of iteration: 1 
S-sub-bulk = 2.203299e-02
S-sub-base = 2.187600e-02
S-o2-bulk = 1.000000e-02
S-o2-base = 9.969394e-03

number of iteration: 1 
S-sub-bulk = 2.203299e-02
S-sub-base = 2.187597e-02
S-o2-bulk = 1.000000e-02
S-o2-base = 9.969389e-03

number of iteration: 1 
S-sub-bulk = 2.203299e-02
S-sub-base = 2.187594e-02
S-o2-bulk = 1.000000e-02
S-o2-base = 9.969384e-03

number of iteration: 1 
S-sub-bulk = 2.203299e-02
S-sub-base = 2.187591e-02
S-o2-bulk = 1.000000e-02
S-o2-base = 9.969379e-03

number of iteration: 1 
S-sub-bulk = 2.203299e-02
S-sub-base = 2.187588e-02
S-o2-bulk = 1.000000e-02
S-o2-base = 9.969375e-03

number of iteration: 1 
S-sub-bulk = 2.203299e-02
S-sub-base = 2.187585e-02
S-o2-bulk = 1.000000e-02
S-o2-base = 9.969370e-03

number of iteration: 1 
S-sub-bulk = 2.203299e-02
S-sub-base = 2.187582e-02
S-o2-bulk = 1.000000e-02
S-o2-base = 9.969365e-03

number of iteration: 1 
S-sub-bulk = 2.203299e-02
S-sub-base = 2.187580e-02
S-o2-bulk = 1.000000e-02
S-o2-base = 9.969360e-03

number of iteration: 1 
S-sub-bulk = 2.203300e-02
S-sub-base = 2.187577e-02
S-o2-bulk = 1.000000e-02
S-o2-base = 9.969355e-03

number of iteration: 1 
S-sub-bulk = 2.203300e-02
S-sub-base = 2.187574e-02
S-o2-bulk = 1.000000e-02
S-o2-base = 9.969350e-03

number of iteration: 1 
S-sub-bulk = 2.203300e-02
S-sub-base = 2.187571e-02
S-o2-bulk = 1.000000e-02
S-o2-base = 9.969345e-03

number of iteration: 1 
S-sub-bulk = 2.203300e-02
S-sub-base = 2.187568e-02
S-o2-bulk = 1.000000e-02
S-o2-base = 9.969340e-03

number of iteration: 1 
S-sub-bulk = 2.203300e-02
S-sub-base = 2.187565e-02
S-o2-bulk = 1.000000e-02
S-o2-base = 9.969335e-03

number of iteration: 1 
S-sub-bulk = 2.203300e-02
S-sub-base = 2.187562e-02
S-o2-bulk = 1.000000e-02
S-o2-base = 9.969330e-03

number of iteration: 1 
S-sub-bulk = 2.203300e-02
S-sub-base = 2.187560e-02
S-o2-bulk = 1.000000e-02
S-o2-base = 9.969325e-03

number of iteration: 1 
S-sub-bulk = 2.203300e-02
S-sub-base = 2.187557e-02
S-o2-bulk = 1.000000e-02
S-o2-base = 9.969320e-03

number of iteration: 1 
S-sub-bulk = 2.203301e-02
S-sub-base = 2.187554e-02
S-o2-bulk = 1.000000e-02
S-o2-base = 9.969315e-03

number of iteration: 1 
S-sub-bulk = 2.203301e-02
S-sub-base = 2.187551e-02
S-o2-bulk = 1.000000e-02
S-o2-base = 9.969310e-03

number of iteration: 1 
S-sub-bulk = 2.203301e-02
S-sub-base = 2.187548e-02
S-o2-bulk = 1.000000e-02
S-o2-base = 9.969305e-03

number of iteration: 1 
S-sub-bulk = 2.203301e-02
S-sub-base = 2.187545e-02
S-o2-bulk = 1.000000e-02
S-o2-base = 9.969300e-03

number of iteration: 1 
S-sub-bulk = 2.203301e-02
S-sub-base = 2.187542e-02
S-o2-bulk = 1.000000e-02
S-o2-base = 9.969296e-03

number of iteration: 1 
S-sub-bulk = 2.203301e-02
S-sub-base = 2.187540e-02
S-o2-bulk = 1.000000e-02
S-o2-base = 9.969291e-03

number of iteration: 1 
S-sub-bulk = 2.203301e-02
S-sub-base = 2.187537e-02
S-o2-bulk = 1.000000e-02
S-o2-base = 9.969286e-03

number of iteration: 1 
S-sub-bulk = 2.203301e-02
S-sub-base = 2.187534e-02
S-o2-bulk = 1.000000e-02
S-o2-base = 9.969281e-03

number of iteration: 1 
S-sub-bulk = 2.203302e-02
S-sub-base = 2.187531e-02
S-o2-bulk = 1.000000e-02
S-o2-base = 9.969276e-03

number of iteration: 1 
S-sub-bulk = 2.203302e-02
S-sub-base = 2.187528e-02
S-o2-bulk = 1.000000e-02
S-o2-base = 9.969271e-03

number of iteration: 1 
S-sub-bulk = 2.203302e-02
S-sub-base = 2.187525e-02
S-o2-bulk = 1.000000e-02
S-o2-base = 9.969266e-03

number of iteration: 1 
S-sub-bulk = 2.203302e-02
S-sub-base = 2.187523e-02
S-o2-bulk = 1.000000e-02
S-o2-base = 9.969262e-03

number of iteration: 1 
S-sub-bulk = 2.203302e-02
S-sub-base = 2.187520e-02
S-o2-bulk = 1.000000e-02
S-o2-base = 9.969257e-03

number of iteration: 1 
S-sub-bulk = 2.203302e-02
S-sub-base = 2.187517e-02
S-o2-bulk = 1.000000e-02
S-o2-base = 9.969252e-03

number of iteration: 1 
S-sub-bulk = 2.203302e-02
S-sub-base = 2.187514e-02
S-o2-bulk = 1.000000e-02
S-o2-base = 9.969247e-03

number of iteration: 1 
S-sub-bulk = 2.203302e-02
S-sub-base = 2.187511e-02
S-o2-bulk = 1.000000e-02
S-o2-base = 9.969242e-03

number of iteration: 1 
S-sub-bulk = 2.203303e-02
S-sub-base = 2.187508e-02
S-o2-bulk = 1.000000e-02
S-o2-base = 9.969237e-03

number of iteration: 1 
S-sub-bulk = 2.203303e-02
S-sub-base = 2.187505e-02
S-o2-bulk = 1.000000e-02
S-o2-base = 9.969233e-03

number of iteration: 1 
S-sub-bulk = 2.203303e-02
S-sub-base = 2.187503e-02
S-o2-bulk = 1.000000e-02
S-o2-base = 9.969228e-03

number of iteration: 1 
S-sub-bulk = 2.203303e-02
S-sub-base = 2.187500e-02
S-o2-bulk = 1.000000e-02
S-o2-base = 9.969223e-03

number of iteration: 1 
S-sub-bulk = 2.203303e-02
S-sub-base = 2.187497e-02
S-o2-bulk = 1.000000e-02
S-o2-base = 9.969218e-03

number of iteration: 1 
S-sub-bulk = 2.203303e-02
S-sub-base = 2.187494e-02
S-o2-bulk = 1.000000e-02
S-o2-base = 9.969213e-03

number of iteration: 1 
S-sub-bulk = 2.203303e-02
S-sub-base = 2.187491e-02
S-o2-bulk = 1.000000e-02
S-o2-base = 9.969209e-03

number of iteration: 1 
S-sub-bulk = 2.203303e-02
S-sub-base = 2.187488e-02
S-o2-bulk = 1.000000e-02
S-o2-base = 9.969204e-03

number of iteration: 1 
S-sub-bulk = 2.203304e-02
S-sub-base = 2.187486e-02
S-o2-bulk = 1.000000e-02
S-o2-base = 9.969199e-03

number of iteration: 1 
S-sub-bulk = 2.203304e-02
S-sub-base = 2.187483e-02
S-o2-bulk = 1.000000e-02
S-o2-base = 9.969194e-03

number of iteration: 1 
S-sub-bulk = 2.203304e-02
S-sub-base = 2.187480e-02
S-o2-bulk = 1.000000e-02
S-o2-base = 9.969190e-03

number of iteration: 1 
S-sub-bulk = 2.203304e-02
S-sub-base = 2.187477e-02
S-o2-bulk = 1.000000e-02
S-o2-base = 9.969185e-03

number of iteration: 1 
S-sub-bulk = 2.203304e-02
S-sub-base = 2.187474e-02
S-o2-bulk = 1.000000e-02
S-o2-base = 9.969180e-03

number of iteration: 1 
S-sub-bulk = 2.203304e-02
S-sub-base = 2.187471e-02
S-o2-bulk = 1.000000e-02
S-o2-base = 9.969175e-03

number of iteration: 1 
S-sub-bulk = 2.203304e-02
S-sub-base = 2.187469e-02
S-o2-bulk = 1.000000e-02
S-o2-base = 9.969171e-03

number of iteration: 1 
S-sub-bulk = 2.203304e-02
S-sub-base = 2.187466e-02
S-o2-bulk = 1.000000e-02
S-o2-base = 9.969166e-03

number of iteration: 1 
S-sub-bulk = 2.203305e-02
S-sub-base = 2.187463e-02
S-o2-bulk = 1.000000e-02
S-o2-base = 9.969161e-03

number of iteration: 1 
S-sub-bulk = 2.203305e-02
S-sub-base = 2.187460e-02
S-o2-bulk = 1.000000e-02
S-o2-base = 9.969156e-03

number of iteration: 1 
S-sub-bulk = 2.203305e-02
S-sub-base = 2.187457e-02
S-o2-bulk = 1.000000e-02
S-o2-base = 9.969152e-03

number of iteration: 1 
S-sub-bulk = 2.203305e-02
S-sub-base = 2.187454e-02
S-o2-bulk = 1.000000e-02
S-o2-base = 9.969147e-03

number of iteration: 1 
S-sub-bulk = 2.203305e-02
S-sub-base = 2.187452e-02
S-o2-bulk = 1.000000e-02
S-o2-base = 9.969142e-03

number of iteration: 1 
S-sub-bulk = 2.203305e-02
S-sub-base = 2.187449e-02
S-o2-bulk = 1.000000e-02
S-o2-base = 9.969137e-03

number of iteration: 1 
S-sub-bulk = 2.203305e-02
S-sub-base = 2.187446e-02
S-o2-bulk = 1.000000e-02
S-o2-base = 9.969133e-03

number of iteration: 1 
S-sub-bulk = 2.203305e-02
S-sub-base = 2.187443e-02
S-o2-bulk = 1.000000e-02
S-o2-base = 9.969128e-03

number of iteration: 1 
S-sub-bulk = 2.203306e-02
S-sub-base = 2.187440e-02
S-o2-bulk = 1.000000e-02
S-o2-base = 9.969123e-03

number of iteration: 1 
S-sub-bulk = 2.203306e-02
S-sub-base = 2.187438e-02
S-o2-bulk = 1.000000e-02
S-o2-base = 9.969119e-03

number of iteration: 1 
S-sub-bulk = 2.203306e-02
S-sub-base = 2.187435e-02
S-o2-bulk = 1.000000e-02
S-o2-base = 9.969114e-03

number of iteration: 1 
S-sub-bulk = 2.203306e-02
S-sub-base = 2.187432e-02
S-o2-bulk = 1.000000e-02
S-o2-base = 9.969109e-03

number of iteration: 1 
S-sub-bulk = 2.203306e-02
S-sub-base = 2.187429e-02
S-o2-bulk = 1.000000e-02
S-o2-base = 9.969105e-03

number of iteration: 1 
S-sub-bulk = 2.203306e-02
S-sub-base = 2.187426e-02
S-o2-bulk = 1.000000e-02
S-o2-base = 9.969100e-03

number of iteration: 1 
S-sub-bulk = 2.203306e-02
S-sub-base = 2.187423e-02
S-o2-bulk = 1.000000e-02
S-o2-base = 9.969095e-03

number of iteration: 1 
S-sub-bulk = 2.203306e-02
S-sub-base = 2.187421e-02
S-o2-bulk = 1.000000e-02
S-o2-base = 9.969091e-03

number of iteration: 1 
S-sub-bulk = 2.203307e-02
S-sub-base = 2.187418e-02
S-o2-bulk = 1.000000e-02
S-o2-base = 9.969086e-03

number of iteration: 1 
S-sub-bulk = 2.203307e-02
S-sub-base = 2.187415e-02
S-o2-bulk = 1.000000e-02
S-o2-base = 9.969081e-03

number of iteration: 1 
S-sub-bulk = 2.203307e-02
S-sub-base = 2.187412e-02
S-o2-bulk = 1.000000e-02
S-o2-base = 9.969077e-03

number of iteration: 1 
S-sub-bulk = 2.203307e-02
S-sub-base = 2.187409e-02
S-o2-bulk = 1.000000e-02
S-o2-base = 9.969072e-03

number of iteration: 1 
S-sub-bulk = 2.203307e-02
S-sub-base = 2.187407e-02
S-o2-bulk = 1.000000e-02
S-o2-base = 9.969068e-03

number of iteration: 1 
S-sub-bulk = 2.203307e-02
S-sub-base = 2.187404e-02
S-o2-bulk = 1.000000e-02
S-o2-base = 9.969063e-03

number of iteration: 1 
S-sub-bulk = 2.203307e-02
S-sub-base = 2.187401e-02
S-o2-bulk = 1.000000e-02
S-o2-base = 9.969058e-03

number of iteration: 1 
S-sub-bulk = 2.203307e-02
S-sub-base = 2.187398e-02
S-o2-bulk = 1.000000e-02
S-o2-base = 9.969054e-03

number of iteration: 1 
S-sub-bulk = 2.203307e-02
S-sub-base = 2.187395e-02
S-o2-bulk = 1.000000e-02
S-o2-base = 9.969049e-03

number of iteration: 1 
S-sub-bulk = 2.203308e-02
S-sub-base = 2.187393e-02
S-o2-bulk = 1.000000e-02
S-o2-base = 9.969045e-03

ERROR: Stop here (../fix_bio_verify.cpp:251)
