LAMMPS (5 Nov 2016)
# NUFEB simulation

atom_style	bio
atom_modify	map array sort 1000 5.0e-7
boundary	pp pp ff
newton		off
processors  2 1 1

comm_modify	vel yes

read_data_bio atom.in
  orthogonal box = (0 0 0) to (2e-05 2e-05 0.0001)
  2 by 1 by 1 MPI processor grid
  reading atoms ...
  9 atoms
  5 nutrients

group HET type 1
9 atoms in group HET

neighbor	5e-7 bin
neigh_modify	delay 0 one 2000

timestep 1800

fix 1 all nve/limit 1e-8
fix fv all viscous 1e-5

fix zw all wall/gran hooke/history 2000 NULL 500.0 NULL 1.5 0 zplane  0.0   1e-04
fix zwa all walladh v_kanc zplane  0.0   1e-04

##############Ibm Variable Definitions##############

#Defining EPS density and ratio variables
variable EPSdens equal 30
variable EPSratio equal 1.25
variable divMass equal 4e-16

variable ke equal 5e+10

#Defining kinetics variables
variable temp equal 298.15
variable gasTran equal 0.08205746
variable gvol equal 8e-14
variable rth equal 0.0083144
variable pressure equal 1
variable ph equal 7.0
variable etaHET equal 0.0

#Defining diffusion variables
variable diffT equal 1e-4
variable tol equal 1e-6
variable blThick equal 0
variable Q equal 0.000000231
variable rvol equal 1.25e-3
variable Af equal 0.1
variable shearRate equal 0.0

#Defining critical diameter of death
variable deadMass equal 6e-17

##############Simulation outputs##############

compute myPres all pressure thermo_temp

#dump		id all custom 20 snapshot.bubblemd id type diameter x y z
thermo_style    custom step cpu atoms biomass c_myPres
thermo		1000
thermo_modify	lost ignore



##############DEM functions##############
label       loopa
variable    a loop 10000

pair_style  gran/hooke/history 1.e-4 NULL 1.e-5 NULL 0.0 1
pair_coeff  * *

timestep 1800

variable kanc equal 50

fix 1 all nve/limit 1e-8
fix fv all viscous 1e-5

fix zw all wall/gran hooke/history 2000 NULL 500.0 NULL 1.5 0 zplane  0.0   1e-04
fix zwa all walladh v_kanc zplane  0.0   1e-04


##############Ibm functions##############

fix k1 all kinetics 1 9 9 45 v_temp v_rth v_gvol v_gasTran v_ph v_diffT v_blThick
fix kgm all kinetics/growth/monod v_EPSdens v_etaHET 1
fix g1 all kinetics/diffusion v_shearRate v_tol pp pp nd kg bulk v_Q v_rvol v_Af
fix d1 all divide 1 v_EPSdens v_divMass 31231
fix vf1 all verify 1 bm1 3

run 1
WARNING: EPS is not defined in fix_kinetics/kinetics/monod (../fix_bio_kinetics_monod.cpp:242)
Neighbor list info ...
  2 neighbor list requests
  update every 1 steps, delay 0 steps, check yes
  max neighbors/atom: 2000, page size: 100000
  master list distance cutoff = 1.5e-06
  ghost atom cutoff = 1.5e-06
  binsize = 7.5e-07 -> bins = 27 27 134
Memory usage per processor = 7.51775 Mbytes
Step CPU Atoms biomass c_myPres 
       0            0        9 8.4823002e-17            0 
       1 0.0046999454        9 9.3288065e-17            0 
Loop time of 0.0047164 on 2 procs for 1 steps with 9 atoms

Performance: 32974328080.073 tau/day, 212.026 timesteps/s
84.8% CPU use with 2 MPI tasks x no OpenMP threads

MPI task timing breakdown:
Section |  min time  |  avg time  |  max time  |%varavg| %total
---------------------------------------------------------------
Pair    | 2.861e-06  | 2.861e-06  | 2.861e-06  |   0.0 |  0.06
Neigh   | 8.297e-05  | 8.8453e-05 | 9.3937e-05 |   0.1 |  1.88
Comm    | 1.1921e-05 | 1.1921e-05 | 1.1921e-05 |   0.0 |  0.25
Output  | 2.0981e-05 | 2.1458e-05 | 2.1935e-05 |   0.0 |  0.45
Modify  | 0.0045772  | 0.0045822  | 0.0045872  |   0.0 | 97.15
Other   |            | 9.537e-06  |            |       |  0.20

Nlocal:    4.5 ave 6 max 3 min
Histogram: 1 0 0 0 0 0 0 0 0 1
Nghost:    1.5 ave 3 max 0 min
Histogram: 1 0 0 0 0 0 0 0 0 1
Neighs:    0 ave 0 max 0 min
Histogram: 2 0 0 0 0 0 0 0 0 0

Total # of neighbors = 0
Ave neighs/atom = 0
Neighbor list builds = 1
Dangerous builds = 0

##############DEM Run##############
unfix kgm
unfix g1
unfix d1
unfix vf1
unfix k1

timestep 1e-3
run 10000
Neighbor list info ...
  2 neighbor list requests
  update every 1 steps, delay 0 steps, check yes
  max neighbors/atom: 2000, page size: 100000
  master list distance cutoff = 1.53222e-06
  ghost atom cutoff = 1.53222e-06
  binsize = 7.66108e-07 -> bins = 27 27 131
Memory usage per processor = 7.51776 Mbytes
Step CPU Atoms biomass c_myPres 
       1            0        9 9.3288065e-17            0 
    1000 0.0069408417        9 9.3288065e-17            0 
    2000  0.017673969        9 9.3288065e-17            0 
    3000  0.023576975        9 9.3288065e-17            0 
    4000   0.02955389        9 9.3288065e-17            0 
    5000  0.035462856        9 9.3288065e-17            0 
    6000  0.041312933        9 9.3288065e-17            0 
    7000  0.052999973        9 9.3288065e-17            0 
    8000  0.059532881        9 9.3288065e-17            0 
    9000  0.065266848        9 9.3288065e-17            0 
   10000  0.070960999        9 9.3288065e-17            0 
   10001  0.070997953        9 9.3288065e-17            0 
Loop time of 0.0710135 on 2 procs for 10000 steps with 9 atoms

Performance: 12166709.158 tau/day, 140818.393 timesteps/s
90.1% CPU use with 2 MPI tasks x no OpenMP threads

MPI task timing breakdown:
Section |  min time  |  avg time  |  max time  |%varavg| %total
---------------------------------------------------------------
Pair    | 0.0024974  | 0.0025549  | 0.0026124  |   0.1 |  3.60
Neigh   | 0          | 0          | 0          |   0.0 |  0.00
Comm    | 0.01161    | 0.016217   | 0.020823   |   3.6 | 22.84
Output  | 0.00023699 | 0.00073481 | 0.0012326  |   1.8 |  1.03
Modify  | 0.018538   | 0.018987   | 0.019435   |   0.3 | 26.74
Other   |            | 0.03252    |            |       | 45.79

Nlocal:    4.5 ave 6 max 3 min
Histogram: 1 0 0 0 0 0 0 0 0 1
Nghost:    1.5 ave 3 max 0 min
Histogram: 1 0 0 0 0 0 0 0 0 1
Neighs:    0 ave 0 max 0 min
Histogram: 2 0 0 0 0 0 0 0 0 0

Total # of neighbors = 0
Ave neighs/atom = 0
Neighbor list builds = 0
Dangerous builds = 0

next a
jump SELF loopa
variable    a loop 10000

pair_style  gran/hooke/history 1.e-4 NULL 1.e-5 NULL 0.0 1
pair_coeff  * *

timestep 1800

variable kanc equal 50

fix 1 all nve/limit 1e-8
fix fv all viscous 1e-5

fix zw all wall/gran hooke/history 2000 NULL 500.0 NULL 1.5 0 zplane  0.0   1e-04
fix zwa all walladh v_kanc zplane  0.0   1e-04


##############Ibm functions##############

fix k1 all kinetics 1 9 9 45 v_temp v_rth v_gvol v_gasTran v_ph v_diffT v_blThick
fix kgm all kinetics/growth/monod v_EPSdens v_etaHET 1
fix g1 all kinetics/diffusion v_shearRate v_tol pp pp nd kg bulk v_Q v_rvol v_Af
fix d1 all divide 1 v_EPSdens v_divMass 31231
fix vf1 all verify 1 bm1 3

run 1
WARNING: EPS is not defined in fix_kinetics/kinetics/monod (../fix_bio_kinetics_monod.cpp:242)
Memory usage per processor = 7.51776 Mbytes
Step CPU Atoms biomass c_myPres 
   10001            0        9 9.3288065e-17            0 
   10002 0.0041341782        9 1.0259791e-16            0 
Loop time of 0.0041734 on 2 procs for 1 steps with 9 atoms

Performance: 37264598136.479 tau/day, 239.613 timesteps/s
47.9% CPU use with 2 MPI tasks x no OpenMP threads

MPI task timing breakdown:
Section |  min time  |  avg time  |  max time  |%varavg| %total
---------------------------------------------------------------
Pair    | 9.0599e-06 | 9.0599e-06 | 9.0599e-06 |   0.0 |  0.22
Neigh   | 6.7949e-05 | 7.2479e-05 | 7.7009e-05 |   0.1 |  1.74
Comm    | 8.1062e-06 | 8.1062e-06 | 8.1062e-06 |   0.0 |  0.19
Output  | 4.3869e-05 | 4.7445e-05 | 5.1022e-05 |   0.1 |  1.14
Modify  | 0.0040069  | 0.0040114  | 0.0040159  |   0.0 | 96.12
Other   |            | 2.491e-05  |            |       |  0.60

Nlocal:    4.5 ave 6 max 3 min
Histogram: 1 0 0 0 0 0 0 0 0 1
Nghost:    1.5 ave 3 max 0 min
Histogram: 1 0 0 0 0 0 0 0 0 1
Neighs:    0 ave 0 max 0 min
Histogram: 2 0 0 0 0 0 0 0 0 0

Total # of neighbors = 0
Ave neighs/atom = 0
Neighbor list builds = 1
Dangerous builds = 0

##############DEM Run##############
unfix kgm
unfix g1
unfix d1
unfix vf1
unfix k1

timestep 1e-3
run 10000
Neighbor list info ...
  2 neighbor list requests
  update every 1 steps, delay 0 steps, check yes
  max neighbors/atom: 2000, page size: 100000
  master list distance cutoff = 1.56547e-06
  ghost atom cutoff = 1.56547e-06
  binsize = 7.82735e-07 -> bins = 26 26 128
Memory usage per processor = 7.51776 Mbytes
Step CPU Atoms biomass c_myPres 
   10002            0        9 1.0259791e-16            0 
   11000 0.0067129135        9 1.0259791e-16            0 
   12000  0.013433933        9 1.0259791e-16            0 
   13000   0.02046299        9 1.0259791e-16            0 
   14000  0.033277988        9 1.0259791e-16            0 
   15000  0.040685892        9 1.0259791e-16            0 
   16000  0.047843933        9 1.0259791e-16            0 
   17000  0.061859846        9 1.0259791e-16            0 
   18000   0.06911397        9 1.0259791e-16            0 
   19000  0.076636076        9 1.0259791e-16            0 
   20000  0.090323925        9 1.0259791e-16            0 
   20002  0.090376854        9 1.0259791e-16            0 
Loop time of 0.0903986 on 2 procs for 10000 steps with 9 atoms

Performance: 9557675.424 tau/day, 110621.243 timesteps/s
86.3% CPU use with 2 MPI tasks x no OpenMP threads

MPI task timing breakdown:
Section |  min time  |  avg time  |  max time  |%varavg| %total
---------------------------------------------------------------
Pair    | 0.0034041  | 0.004372   | 0.0053399  |   1.5 |  4.84
Neigh   | 0          | 0          | 0          |   0.0 |  0.00
Comm    | 0.013788   | 0.02096    | 0.028132   |   5.0 | 23.19
Output  | 0.00032949 | 0.00038552 | 0.00044155 |   0.3 |  0.43
Modify  | 0.02141    | 0.022558   | 0.023705   |   0.8 | 24.95
Other   |            | 0.04212    |            |       | 46.60

Nlocal:    4.5 ave 6 max 3 min
Histogram: 1 0 0 0 0 0 0 0 0 1
Nghost:    1.5 ave 3 max 0 min
Histogram: 1 0 0 0 0 0 0 0 0 1
Neighs:    0 ave 0 max 0 min
Histogram: 2 0 0 0 0 0 0 0 0 0

Total # of neighbors = 0
Ave neighs/atom = 0
Neighbor list builds = 0
Dangerous builds = 0

next a
jump SELF loopa
variable    a loop 10000

pair_style  gran/hooke/history 1.e-4 NULL 1.e-5 NULL 0.0 1
pair_coeff  * *

timestep 1800

variable kanc equal 50

fix 1 all nve/limit 1e-8
fix fv all viscous 1e-5

fix zw all wall/gran hooke/history 2000 NULL 500.0 NULL 1.5 0 zplane  0.0   1e-04
fix zwa all walladh v_kanc zplane  0.0   1e-04


##############Ibm functions##############

fix k1 all kinetics 1 9 9 45 v_temp v_rth v_gvol v_gasTran v_ph v_diffT v_blThick
fix kgm all kinetics/growth/monod v_EPSdens v_etaHET 1
fix g1 all kinetics/diffusion v_shearRate v_tol pp pp nd kg bulk v_Q v_rvol v_Af
fix d1 all divide 1 v_EPSdens v_divMass 31231
fix vf1 all verify 1 bm1 3

run 1
WARNING: EPS is not defined in fix_kinetics/kinetics/monod (../fix_bio_kinetics_monod.cpp:242)
Memory usage per processor = 7.51776 Mbytes
Step CPU Atoms biomass c_myPres 
   20002            0        9 1.0259791e-16            0 
   20003 0.0012741089        9 1.1283686e-16            0 
Loop time of 0.00129294 on 2 procs for 1 steps with 9 atoms

Performance: 120283636009.589 tau/day, 773.429 timesteps/s
0.0% CPU use with 2 MPI tasks x no OpenMP threads

MPI task timing breakdown:
Section |  min time  |  avg time  |  max time  |%varavg| %total
---------------------------------------------------------------
Pair    | 9.5367e-07 | 1.5497e-06 | 2.1458e-06 |   0.0 |  0.12
Neigh   | 6.6996e-05 | 7.7009e-05 | 8.7023e-05 |   0.1 |  5.96
Comm    | 1.0014e-05 | 1.049e-05  | 1.0967e-05 |   0.0 |  0.81
Output  | 1.812e-05  | 2.0623e-05 | 2.3127e-05 |   0.1 |  1.60
Modify  | 0.0011632  | 0.0011727  | 0.0011821  |   0.0 | 90.70
Other   |            | 1.061e-05  |            |       |  0.82

Nlocal:    4.5 ave 6 max 3 min
Histogram: 1 0 0 0 0 0 0 0 0 1
Nghost:    1.5 ave 3 max 0 min
Histogram: 1 0 0 0 0 0 0 0 0 1
Neighs:    0 ave 0 max 0 min
Histogram: 2 0 0 0 0 0 0 0 0 0

Total # of neighbors = 0
Ave neighs/atom = 0
Neighbor list builds = 1
Dangerous builds = 0

##############DEM Run##############
unfix kgm
unfix g1
unfix d1
unfix vf1
unfix k1

timestep 1e-3
run 10000
Neighbor list info ...
  2 neighbor list requests
  update every 1 steps, delay 0 steps, check yes
  max neighbors/atom: 2000, page size: 100000
  master list distance cutoff = 1.5998e-06
  ghost atom cutoff = 1.5998e-06
  binsize = 7.99898e-07 -> bins = 26 26 126
Memory usage per processor = 7.51776 Mbytes
Step CPU Atoms biomass c_myPres 
   20003            0        9 1.1283686e-16            0 
   21000 0.0075540543        9 1.1283686e-16            0 
   22000  0.014859915        9 1.1283686e-16            0 
   23000  0.029974937        9 1.1283686e-16            0 
   24000  0.037271976        9 1.1283686e-16            0 
   25000  0.044363022        9 1.1283686e-16            0 
   26000   0.05731988        9 1.1283686e-16            0 
   27000  0.064033985        9 1.1283686e-16            0 
   28000  0.071529865        9 1.1283686e-16            0 
   29000  0.081343889        9 1.1283686e-16            0 
   30000  0.091444016        9 1.1283686e-16            0 
   30003  0.091502905        9 1.1283686e-16            0 
Loop time of 0.0915229 on 2 procs for 10000 steps with 9 atoms

Performance: 9440257.000 tau/day, 109262.234 timesteps/s
87.4% CPU use with 2 MPI tasks x no OpenMP threads

MPI task timing breakdown:
Section |  min time  |  avg time  |  max time  |%varavg| %total
---------------------------------------------------------------
Pair    | 0.0030193  | 0.0035499  | 0.0040805  |   0.9 |  3.88
Neigh   | 0          | 0          | 0          |   0.0 |  0.00
Comm    | 0.012366   | 0.019743   | 0.02712    |   5.3 | 21.57
Output  | 0.00035524 | 0.00041914 | 0.00048304 |   0.3 |  0.46
Modify  | 0.023492   | 0.0237     | 0.023909   |   0.1 | 25.90
Other   |            | 0.04411    |            |       | 48.20

Nlocal:    4.5 ave 6 max 3 min
Histogram: 1 0 0 0 0 0 0 0 0 1
Nghost:    1.5 ave 3 max 0 min
Histogram: 1 0 0 0 0 0 0 0 0 1
Neighs:    0 ave 0 max 0 min
Histogram: 2 0 0 0 0 0 0 0 0 0

Total # of neighbors = 0
Ave neighs/atom = 0
Neighbor list builds = 0
Dangerous builds = 0

next a
jump SELF loopa
variable    a loop 10000

pair_style  gran/hooke/history 1.e-4 NULL 1.e-5 NULL 0.0 1
pair_coeff  * *

timestep 1800

variable kanc equal 50

fix 1 all nve/limit 1e-8
fix fv all viscous 1e-5

fix zw all wall/gran hooke/history 2000 NULL 500.0 NULL 1.5 0 zplane  0.0   1e-04
fix zwa all walladh v_kanc zplane  0.0   1e-04


##############Ibm functions##############

fix k1 all kinetics 1 9 9 45 v_temp v_rth v_gvol v_gasTran v_ph v_diffT v_blThick
fix kgm all kinetics/growth/monod v_EPSdens v_etaHET 1
fix g1 all kinetics/diffusion v_shearRate v_tol pp pp nd kg bulk v_Q v_rvol v_Af
fix d1 all divide 1 v_EPSdens v_divMass 31231
fix vf1 all verify 1 bm1 3

run 1
WARNING: EPS is not defined in fix_kinetics/kinetics/monod (../fix_bio_kinetics_monod.cpp:242)
Memory usage per processor = 7.51776 Mbytes
Step CPU Atoms biomass c_myPres 
   30003            0        9 1.1283686e-16            0 
   30004 0.0015170574        9 1.2409761e-16            0 
Loop time of 0.00153756 on 2 procs for 1 steps with 9 atoms

Performance: 101147179109.940 tau/day, 650.381 timesteps/s
0.0% CPU use with 2 MPI tasks x no OpenMP threads

MPI task timing breakdown:
Section |  min time  |  avg time  |  max time  |%varavg| %total
---------------------------------------------------------------
Pair    | 9.5367e-07 | 1.0729e-06 | 1.1921e-06 |   0.0 |  0.07
Neigh   | 6.9857e-05 | 7.7367e-05 | 8.4877e-05 |   0.1 |  5.03
Comm    | 1.2159e-05 | 1.2159e-05 | 1.2159e-05 |   0.0 |  0.79
Output  | 2.2173e-05 | 8.8573e-05 | 0.00015497 |   0.7 |  5.76
Modify  | 0.0012939  | 0.00131    | 0.0013261  |   0.0 | 85.20
Other   |            | 4.84e-05   |            |       |  3.15

Nlocal:    4.5 ave 6 max 3 min
Histogram: 1 0 0 0 0 0 0 0 0 1
Nghost:    1.5 ave 3 max 0 min
Histogram: 1 0 0 0 0 0 0 0 0 1
Neighs:    0 ave 0 max 0 min
Histogram: 2 0 0 0 0 0 0 0 0 0

Total # of neighbors = 0
Ave neighs/atom = 0
Neighbor list builds = 1
Dangerous builds = 0

##############DEM Run##############
unfix kgm
unfix g1
unfix d1
unfix vf1
unfix k1

timestep 1e-3
run 10000
Neighbor list info ...
  2 neighbor list requests
  update every 1 steps, delay 0 steps, check yes
  max neighbors/atom: 2000, page size: 100000
  master list distance cutoff = 1.63523e-06
  ghost atom cutoff = 1.63523e-06
  binsize = 8.17614e-07 -> bins = 25 25 123
Memory usage per processor = 7.51776 Mbytes
Step CPU Atoms biomass c_myPres 
   30004            0        9 1.2409761e-16            0 
   31000  0.007365942        9 1.2409761e-16            0 
   32000  0.020951033        9 1.2409761e-16            0 
   33000  0.028076887        9 1.2409761e-16            0 
   34000  0.035812855        9 1.2409761e-16            0 
   35000  0.047855854        9 1.2409761e-16            0 
   36000  0.055563927        9 1.2409761e-16            0 
   37000  0.062829971        9 1.2409761e-16            0 
   38000  0.069605827        9 1.2409761e-16            0 
   39000  0.085242033        9 1.2409761e-16            0 
   40000  0.092636824        9 1.2409761e-16            0 
   40004  0.092695951        9 1.2409761e-16            0 
Loop time of 0.0926759 on 2 procs for 10000 steps with 9 atoms

Performance: 9322809.635 tau/day, 107902.889 timesteps/s
82.0% CPU use with 2 MPI tasks x no OpenMP threads

MPI task timing breakdown:
Section |  min time  |  avg time  |  max time  |%varavg| %total
---------------------------------------------------------------
Pair    | 0.0029507  | 0.0031909  | 0.0034311  |   0.4 |  3.44
Neigh   | 0          | 0          | 0          |   0.0 |  0.00
Comm    | 0.016818   | 0.022865   | 0.028913   |   4.0 | 24.67
Output  | 0.00041437 | 0.00050867 | 0.00060296 |   0.4 |  0.55
Modify  | 0.021242   | 0.023263   | 0.025284   |   1.3 | 25.10
Other   |            | 0.04285    |            |       | 46.23

Nlocal:    4.5 ave 6 max 3 min
Histogram: 1 0 0 0 0 0 0 0 0 1
Nghost:    1.5 ave 3 max 0 min
Histogram: 1 0 0 0 0 0 0 0 0 1
Neighs:    0 ave 0 max 0 min
Histogram: 2 0 0 0 0 0 0 0 0 0

Total # of neighbors = 0
Ave neighs/atom = 0
Neighbor list builds = 0
Dangerous builds = 0

next a
jump SELF loopa
variable    a loop 10000

pair_style  gran/hooke/history 1.e-4 NULL 1.e-5 NULL 0.0 1
pair_coeff  * *

timestep 1800

variable kanc equal 50

fix 1 all nve/limit 1e-8
fix fv all viscous 1e-5

fix zw all wall/gran hooke/history 2000 NULL 500.0 NULL 1.5 0 zplane  0.0   1e-04
fix zwa all walladh v_kanc zplane  0.0   1e-04


##############Ibm functions##############

fix k1 all kinetics 1 9 9 45 v_temp v_rth v_gvol v_gasTran v_ph v_diffT v_blThick
fix kgm all kinetics/growth/monod v_EPSdens v_etaHET 1
fix g1 all kinetics/diffusion v_shearRate v_tol pp pp nd kg bulk v_Q v_rvol v_Af
fix d1 all divide 1 v_EPSdens v_divMass 31231
fix vf1 all verify 1 bm1 3

run 1
WARNING: EPS is not defined in fix_kinetics/kinetics/monod (../fix_bio_kinetics_monod.cpp:242)
Memory usage per processor = 7.51776 Mbytes
Step CPU Atoms biomass c_myPres 
   40004            0        9 1.2409761e-16            0 
   40005 0.0014691353        9 1.3648216e-16            0 
Loop time of 0.00152552 on 2 procs for 1 steps with 9 atoms

Performance: 101945480672.033 tau/day, 655.514 timesteps/s
0.0% CPU use with 2 MPI tasks x no OpenMP threads

MPI task timing breakdown:
Section |  min time  |  avg time  |  max time  |%varavg| %total
---------------------------------------------------------------
Pair    | 9.5367e-07 | 1.9073e-06 | 2.861e-06  |   0.1 |  0.13
Neigh   | 6.3896e-05 | 7.093e-05  | 7.7963e-05 |   0.1 |  4.65
Comm    | 1.0967e-05 | 1.0967e-05 | 1.0967e-05 |   0.0 |  0.72
Output  | 4.1962e-05 | 0.0001384  | 0.00023484 |   0.8 |  9.07
Modify  | 0.0012362  | 0.0012536  | 0.001271   |   0.0 | 82.18
Other   |            | 4.971e-05  |            |       |  3.26

Nlocal:    4.5 ave 6 max 3 min
Histogram: 1 0 0 0 0 0 0 0 0 1
Nghost:    1.5 ave 3 max 0 min
Histogram: 1 0 0 0 0 0 0 0 0 1
Neighs:    0 ave 0 max 0 min
Histogram: 2 0 0 0 0 0 0 0 0 0

Total # of neighbors = 0
Ave neighs/atom = 0
Neighbor list builds = 1
Dangerous builds = 0

##############DEM Run##############
unfix kgm
unfix g1
unfix d1
unfix vf1
unfix k1

timestep 1e-3
run 10000
Neighbor list info ...
  2 neighbor list requests
  update every 1 steps, delay 0 steps, check yes
  max neighbors/atom: 2000, page size: 100000
  master list distance cutoff = 1.6718e-06
  ghost atom cutoff = 1.6718e-06
  binsize = 8.35901e-07 -> bins = 24 24 120
Memory usage per processor = 7.51776 Mbytes
Step CPU Atoms biomass c_myPres 
   40005            0        9 1.3648216e-16            0 
   41000  0.012065172        9 1.3648216e-16            0 
   42000  0.019603014        9 1.3648216e-16            0 
   43000  0.027264118        9 1.3648216e-16            0 
   44000  0.035679102        9 1.3648216e-16            0 
   45000  0.045643091        9 1.3648216e-16            0 
   46000  0.052421093        9 1.3648216e-16            0 
   47000  0.059483051        9 1.3648216e-16            0 
   48000  0.071542978        9 1.3648216e-16            0 
   49000  0.082247019        9 1.3648216e-16            0 
   50000  0.089842081        9 1.3648216e-16            0 
   50005   0.09007597        9 1.3648216e-16            0 
Loop time of 0.090097 on 2 procs for 10000 steps with 9 atoms

Performance: 9589669.738 tau/day, 110991.548 timesteps/s
82.1% CPU use with 2 MPI tasks x no OpenMP threads

MPI task timing breakdown:
Section |  min time  |  avg time  |  max time  |%varavg| %total
---------------------------------------------------------------
Pair    | 0.0033979  | 0.0035752  | 0.0037525  |   0.3 |  3.97
Neigh   | 0          | 0          | 0          |   0.0 |  0.00
Comm    | 0.013849   | 0.018726   | 0.023603   |   3.6 | 20.78
Output  | 0.00046992 | 0.00053728 | 0.00060463 |   0.3 |  0.60
Modify  | 0.020904   | 0.022191   | 0.023479   |   0.9 | 24.63
Other   |            | 0.04507    |            |       | 50.02

Nlocal:    4.5 ave 6 max 3 min
Histogram: 1 0 0 0 0 0 0 0 0 1
Nghost:    1.5 ave 3 max 0 min
Histogram: 1 0 0 0 0 0 0 0 0 1
Neighs:    0 ave 0 max 0 min
Histogram: 2 0 0 0 0 0 0 0 0 0

Total # of neighbors = 0
Ave neighs/atom = 0
Neighbor list builds = 0
Dangerous builds = 0

next a
jump SELF loopa
variable    a loop 10000

pair_style  gran/hooke/history 1.e-4 NULL 1.e-5 NULL 0.0 1
pair_coeff  * *

timestep 1800

variable kanc equal 50

fix 1 all nve/limit 1e-8
fix fv all viscous 1e-5

fix zw all wall/gran hooke/history 2000 NULL 500.0 NULL 1.5 0 zplane  0.0   1e-04
fix zwa all walladh v_kanc zplane  0.0   1e-04


##############Ibm functions##############

fix k1 all kinetics 1 9 9 45 v_temp v_rth v_gvol v_gasTran v_ph v_diffT v_blThick
fix kgm all kinetics/growth/monod v_EPSdens v_etaHET 1
fix g1 all kinetics/diffusion v_shearRate v_tol pp pp nd kg bulk v_Q v_rvol v_Af
fix d1 all divide 1 v_EPSdens v_divMass 31231
fix vf1 all verify 1 bm1 3

run 1
WARNING: EPS is not defined in fix_kinetics/kinetics/monod (../fix_bio_kinetics_monod.cpp:242)
Memory usage per processor = 7.51776 Mbytes
Step CPU Atoms biomass c_myPres 
   50005            0        9 1.3648216e-16            0 
   50006 0.0014438629        9 1.5010264e-16            0 
Loop time of 0.00150156 on 2 procs for 1 steps with 9 atoms

Performance: 103572270257.225 tau/day, 665.974 timesteps/s
133.2% CPU use with 2 MPI tasks x no OpenMP threads

MPI task timing breakdown:
Section |  min time  |  avg time  |  max time  |%varavg| %total
---------------------------------------------------------------
Pair    | 2.1458e-06 | 3.0994e-06 | 4.0531e-06 |   0.1 |  0.21
Neigh   | 5.4121e-05 | 5.9128e-05 | 6.4135e-05 |   0.1 |  3.94
Comm    | 7.8678e-06 | 7.8678e-06 | 7.8678e-06 |   0.0 |  0.52
Output  | 2.718e-05  | 5.0545e-05 | 7.391e-05  |   0.3 |  3.37
Modify  | 0.0013161  | 0.0013335  | 0.0013509  |   0.0 | 88.81
Other   |            | 4.745e-05  |            |       |  3.16

Nlocal:    4.5 ave 6 max 3 min
Histogram: 1 0 0 0 0 0 0 0 0 1
Nghost:    1.5 ave 3 max 0 min
Histogram: 1 0 0 0 0 0 0 0 0 1
Neighs:    0 ave 0 max 0 min
Histogram: 2 0 0 0 0 0 0 0 0 0

Total # of neighbors = 0
Ave neighs/atom = 0
Neighbor list builds = 1
Dangerous builds = 0

##############DEM Run##############
unfix kgm
unfix g1
unfix d1
unfix vf1
unfix k1

timestep 1e-3
run 10000
Neighbor list info ...
  2 neighbor list requests
  update every 1 steps, delay 0 steps, check yes
  max neighbors/atom: 2000, page size: 100000
  master list distance cutoff = 1.70955e-06
  ghost atom cutoff = 1.70955e-06
  binsize = 8.54776e-07 -> bins = 24 24 117
Memory usage per processor = 7.51776 Mbytes
Step CPU Atoms biomass c_myPres 
   50006            0        9 1.5010264e-16            0 
   51000 0.0079400539        9 1.5010264e-16            0 
   52000  0.015030861        9 1.5010264e-16            0 
   53000  0.023485899        9 1.5010264e-16            0 
   54000  0.037739992        9 1.5010264e-16            0 
   55000   0.04468894        9 1.5010264e-16            0 
   56000  0.051362991        9 1.5010264e-16            0 
   57000  0.063974857        9 1.5010264e-16            0 
   58000   0.07100606        9 1.5010264e-16            0 
   59000  0.078337908        9 1.5010264e-16            0 
   60000  0.087792873        9 1.5010264e-16            0 
   60006  0.087941885        9 1.5010264e-16            0 
Loop time of 0.0878769 on 2 procs for 10000 steps with 9 atoms

Performance: 9831933.573 tau/day, 113795.527 timesteps/s
86.5% CPU use with 2 MPI tasks x no OpenMP threads

MPI task timing breakdown:
Section |  min time  |  avg time  |  max time  |%varavg| %total
---------------------------------------------------------------
Pair    | 0.0032356  | 0.0033962  | 0.0035567  |   0.3 |  3.86
Neigh   | 0          | 0          | 0          |   0.0 |  0.00
Comm    | 0.012065   | 0.018058   | 0.024051   |   4.5 | 20.55
Output  | 0.00033402 | 0.00041366 | 0.00049329 |   0.4 |  0.47
Modify  | 0.020506   | 0.023067   | 0.025627   |   1.7 | 26.25
Other   |            | 0.04294    |            |       | 48.87

Nlocal:    4.5 ave 6 max 3 min
Histogram: 1 0 0 0 0 0 0 0 0 1
Nghost:    1.5 ave 3 max 0 min
Histogram: 1 0 0 0 0 0 0 0 0 1
Neighs:    0 ave 0 max 0 min
Histogram: 2 0 0 0 0 0 0 0 0 0

Total # of neighbors = 0
Ave neighs/atom = 0
Neighbor list builds = 0
Dangerous builds = 0

next a
jump SELF loopa
variable    a loop 10000

pair_style  gran/hooke/history 1.e-4 NULL 1.e-5 NULL 0.0 1
pair_coeff  * *

timestep 1800

variable kanc equal 50

fix 1 all nve/limit 1e-8
fix fv all viscous 1e-5

fix zw all wall/gran hooke/history 2000 NULL 500.0 NULL 1.5 0 zplane  0.0   1e-04
fix zwa all walladh v_kanc zplane  0.0   1e-04


##############Ibm functions##############

fix k1 all kinetics 1 9 9 45 v_temp v_rth v_gvol v_gasTran v_ph v_diffT v_blThick
fix kgm all kinetics/growth/monod v_EPSdens v_etaHET 1
fix g1 all kinetics/diffusion v_shearRate v_tol pp pp nd kg bulk v_Q v_rvol v_Af
fix d1 all divide 1 v_EPSdens v_divMass 31231
fix vf1 all verify 1 bm1 3

run 1
WARNING: EPS is not defined in fix_kinetics/kinetics/monod (../fix_bio_kinetics_monod.cpp:242)
Memory usage per processor = 7.51776 Mbytes
Step CPU Atoms biomass c_myPres 
   60006            0        9 1.5010264e-16            0 
   60007 0.0014359951        9 1.650824e-16            0 
Loop time of 0.00145757 on 2 procs for 1 steps with 9 atoms

Performance: 106697989380.878 tau/day, 686.072 timesteps/s
0.0% CPU use with 2 MPI tasks x no OpenMP threads

MPI task timing breakdown:
Section |  min time  |  avg time  |  max time  |%varavg| %total
---------------------------------------------------------------
Pair    | 1.9073e-06 | 2.0266e-06 | 2.1458e-06 |   0.0 |  0.14
Neigh   | 5.4836e-05 | 6.2466e-05 | 7.0095e-05 |   0.1 |  4.29
Comm    | 8.8215e-06 | 1.0014e-05 | 1.1206e-05 |   0.0 |  0.69
Output  | 2.1935e-05 | 8.44e-05   | 0.00014687 |   0.7 |  5.79
Modify  | 0.0012324  | 0.0012491  | 0.0012658  |   0.0 | 85.70
Other   |            | 4.959e-05  |            |       |  3.40

Nlocal:    4.5 ave 6 max 3 min
Histogram: 1 0 0 0 0 0 0 0 0 1
Nghost:    1.5 ave 3 max 0 min
Histogram: 1 0 0 0 0 0 0 0 0 1
Neighs:    0 ave 0 max 0 min
Histogram: 2 0 0 0 0 0 0 0 0 0

Total # of neighbors = 0
Ave neighs/atom = 0
Neighbor list builds = 1
Dangerous builds = 0

##############DEM Run##############
unfix kgm
unfix g1
unfix d1
unfix vf1
unfix k1

timestep 1e-3
run 10000
Neighbor list info ...
  2 neighbor list requests
  update every 1 steps, delay 0 steps, check yes
  max neighbors/atom: 2000, page size: 100000
  master list distance cutoff = 1.74852e-06
  ghost atom cutoff = 1.74852e-06
  binsize = 8.7426e-07 -> bins = 23 23 115
Memory usage per processor = 7.51776 Mbytes
Step CPU Atoms biomass c_myPres 
   60007            0        9 1.650824e-16            0 
   61000 0.0071370602        9 1.650824e-16            0 
   62000  0.013899088        9 1.650824e-16            0 
   63000  0.025470972        9 1.650824e-16            0 
   64000  0.032324076        9 1.650824e-16            0 
   65000   0.03946805        9 1.650824e-16            0 
   66000  0.047518015        9 1.650824e-16            0 
   67000  0.058815002        9 1.650824e-16            0 
   68000  0.066087008        9 1.650824e-16            0 
   69000  0.073219061        9 1.650824e-16            0 
   70000  0.084903002        9 1.650824e-16            0 
   70007   0.08513689        9 1.650824e-16            0 
Loop time of 0.0851226 on 2 procs for 10000 steps with 9 atoms

Performance: 10150067.658 tau/day, 117477.635 timesteps/s
89.3% CPU use with 2 MPI tasks x no OpenMP threads

MPI task timing breakdown:
Section |  min time  |  avg time  |  max time  |%varavg| %total
---------------------------------------------------------------
Pair    | 0.0029273  | 0.0030667  | 0.003206   |   0.3 |  3.60
Neigh   | 0          | 0          | 0          |   0.0 |  0.00
Comm    | 0.015251   | 0.020034   | 0.024816   |   3.4 | 23.54
Output  | 0.00047255 | 0.00060976 | 0.00074697 |   0.6 |  0.72
Modify  | 0.02002    | 0.022276   | 0.024532   |   1.5 | 26.17
Other   |            | 0.03914    |            |       | 45.98

Nlocal:    4.5 ave 6 max 3 min
Histogram: 1 0 0 0 0 0 0 0 0 1
Nghost:    1.5 ave 3 max 0 min
Histogram: 1 0 0 0 0 0 0 0 0 1
Neighs:    0 ave 0 max 0 min
Histogram: 2 0 0 0 0 0 0 0 0 0

Total # of neighbors = 0
Ave neighs/atom = 0
Neighbor list builds = 0
Dangerous builds = 0

next a
jump SELF loopa
variable    a loop 10000

pair_style  gran/hooke/history 1.e-4 NULL 1.e-5 NULL 0.0 1
pair_coeff  * *

timestep 1800

variable kanc equal 50

fix 1 all nve/limit 1e-8
fix fv all viscous 1e-5

fix zw all wall/gran hooke/history 2000 NULL 500.0 NULL 1.5 0 zplane  0.0   1e-04
fix zwa all walladh v_kanc zplane  0.0   1e-04


##############Ibm functions##############

fix k1 all kinetics 1 9 9 45 v_temp v_rth v_gvol v_gasTran v_ph v_diffT v_blThick
fix kgm all kinetics/growth/monod v_EPSdens v_etaHET 1
fix g1 all kinetics/diffusion v_shearRate v_tol pp pp nd kg bulk v_Q v_rvol v_Af
fix d1 all divide 1 v_EPSdens v_divMass 31231
fix vf1 all verify 1 bm1 3

run 1
WARNING: EPS is not defined in fix_kinetics/kinetics/monod (../fix_bio_kinetics_monod.cpp:242)
Memory usage per processor = 7.51776 Mbytes
Step CPU Atoms biomass c_myPres 
   70007            0        9 1.650824e-16            0 
   70008 0.0010809898        9 1.8155709e-16            0 
Loop time of 0.00109994 on 2 procs for 1 steps with 9 atoms

Performance: 141389001426.249 tau/day, 909.137 timesteps/s
0.0% CPU use with 2 MPI tasks x no OpenMP threads

MPI task timing breakdown:
Section |  min time  |  avg time  |  max time  |%varavg| %total
---------------------------------------------------------------
Pair    | 1.1921e-06 | 2.1458e-06 | 3.0994e-06 |   0.1 |  0.20
Neigh   | 5.2929e-05 | 5.9009e-05 | 6.5088e-05 |   0.1 |  5.36
Comm    | 9.0599e-06 | 9.0599e-06 | 9.0599e-06 |   0.0 |  0.82
Output  | 2.0027e-05 | 2.1458e-05 | 2.2888e-05 |   0.0 |  1.95
Modify  | 0.00099254 | 0.00099766 | 0.0010028  |   0.0 | 90.70
Other   |            | 1.061e-05  |            |       |  0.96

Nlocal:    4.5 ave 6 max 3 min
Histogram: 1 0 0 0 0 0 0 0 0 1
Nghost:    1.5 ave 3 max 0 min
Histogram: 1 0 0 0 0 0 0 0 0 1
Neighs:    0 ave 0 max 0 min
Histogram: 2 0 0 0 0 0 0 0 0 0

Total # of neighbors = 0
Ave neighs/atom = 0
Neighbor list builds = 1
Dangerous builds = 0

##############DEM Run##############
unfix kgm
unfix g1
unfix d1
unfix vf1
unfix k1

timestep 1e-3
run 10000
Neighbor list info ...
  2 neighbor list requests
  update every 1 steps, delay 0 steps, check yes
  max neighbors/atom: 2000, page size: 100000
  master list distance cutoff = 1.78874e-06
  ghost atom cutoff = 1.78874e-06
  binsize = 8.94372e-07 -> bins = 23 23 112
Memory usage per processor = 7.51776 Mbytes
Step CPU Atoms biomass c_myPres 
   70008            0        9 1.8155709e-16            0 
   71000 0.0071139336        9 1.8155709e-16            0 
   72000  0.014454126        9 1.8155709e-16            0 
   73000  0.021418095        9 1.8155709e-16            0 
   74000  0.030900002        9 1.8155709e-16            0 
   75000  0.038077116        9 1.8155709e-16            0 
   76000  0.045378923        9 1.8155709e-16            0 
   77000  0.052513123        9 1.8155709e-16            0 
   78000  0.061728001        9 1.8155709e-16            0 
   79000  0.068771124        9 1.8155709e-16            0 
   80000  0.076201916        9 1.8155709e-16            0 
   80008  0.076288939        9 1.8155709e-16            0 
Loop time of 0.0763071 on 2 procs for 10000 steps with 9 atoms

Performance: 11322674.715 tau/day, 131049.476 timesteps/s
91.7% CPU use with 2 MPI tasks x no OpenMP threads

MPI task timing breakdown:
Section |  min time  |  avg time  |  max time  |%varavg| %total
---------------------------------------------------------------
Pair    | 0.0033112  | 0.0034739  | 0.0036366  |   0.3 |  4.55
Neigh   | 0          | 0          | 0          |   0.0 |  0.00
Comm    | 0.012429   | 0.015923   | 0.019418   |   2.8 | 20.87
Output  | 0.00037742 | 0.00044465 | 0.00051188 |   0.3 |  0.58
Modify  | 0.020543   | 0.021449   | 0.022355   |   0.6 | 28.11
Other   |            | 0.03502    |            |       | 45.89

Nlocal:    4.5 ave 6 max 3 min
Histogram: 1 0 0 0 0 0 0 0 0 1
Nghost:    1.5 ave 3 max 0 min
Histogram: 1 0 0 0 0 0 0 0 0 1
Neighs:    0 ave 0 max 0 min
Histogram: 2 0 0 0 0 0 0 0 0 0

Total # of neighbors = 0
Ave neighs/atom = 0
Neighbor list builds = 0
Dangerous builds = 0

next a
jump SELF loopa
variable    a loop 10000

pair_style  gran/hooke/history 1.e-4 NULL 1.e-5 NULL 0.0 1
pair_coeff  * *

timestep 1800

variable kanc equal 50

fix 1 all nve/limit 1e-8
fix fv all viscous 1e-5

fix zw all wall/gran hooke/history 2000 NULL 500.0 NULL 1.5 0 zplane  0.0   1e-04
fix zwa all walladh v_kanc zplane  0.0   1e-04


##############Ibm functions##############

fix k1 all kinetics 1 9 9 45 v_temp v_rth v_gvol v_gasTran v_ph v_diffT v_blThick
fix kgm all kinetics/growth/monod v_EPSdens v_etaHET 1
fix g1 all kinetics/diffusion v_shearRate v_tol pp pp nd kg bulk v_Q v_rvol v_Af
fix d1 all divide 1 v_EPSdens v_divMass 31231
fix vf1 all verify 1 bm1 3

run 1
WARNING: EPS is not defined in fix_kinetics/kinetics/monod (../fix_bio_kinetics_monod.cpp:242)
Memory usage per processor = 7.51776 Mbytes
Step CPU Atoms biomass c_myPres 
   80008            0        9 1.8155709e-16            0 
   80009 0.0033318996        9 1.9967591e-16            0 
Loop time of 0.0033356 on 2 procs for 1 steps with 9 atoms

Performance: 46624363538.115 tau/day, 299.797 timesteps/s
60.0% CPU use with 2 MPI tasks x no OpenMP threads

MPI task timing breakdown:
Section |  min time  |  avg time  |  max time  |%varavg| %total
---------------------------------------------------------------
Pair    | 3.0994e-06 | 3.0994e-06 | 3.0994e-06 |   0.0 |  0.09
Neigh   | 5.0068e-05 | 5.7101e-05 | 6.4135e-05 |   0.1 |  1.71
Comm    | 8.8215e-06 | 8.8215e-06 | 8.8215e-06 |   0.0 |  0.26
Output  | 2.4796e-05 | 5.7459e-05 | 9.0122e-05 |   0.4 |  1.72
Modify  | 0.0031641  | 0.0031786  | 0.0031931  |   0.0 | 95.29
Other   |            | 3.052e-05  |            |       |  0.91

Nlocal:    4.5 ave 6 max 3 min
Histogram: 1 0 0 0 0 0 0 0 0 1
Nghost:    1.5 ave 3 max 0 min
Histogram: 1 0 0 0 0 0 0 0 0 1
Neighs:    0 ave 0 max 0 min
Histogram: 2 0 0 0 0 0 0 0 0 0

Total # of neighbors = 0
Ave neighs/atom = 0
Neighbor list builds = 1
Dangerous builds = 0

##############DEM Run##############
unfix kgm
unfix g1
unfix d1
unfix vf1
unfix k1

timestep 1e-3
run 10000
Neighbor list info ...
  2 neighbor list requests
  update every 1 steps, delay 0 steps, check yes
  max neighbors/atom: 2000, page size: 100000
  master list distance cutoff = 1.83026e-06
  ghost atom cutoff = 1.83026e-06
  binsize = 9.15131e-07 -> bins = 22 22 110
Memory usage per processor = 7.51776 Mbytes
Step CPU Atoms biomass c_myPres 
   80009            0        9 1.9967591e-16            0 
   81000  0.009706974        9 1.9967591e-16            0 
   82000  0.017059088        9 1.9967591e-16            0 
   83000   0.02479291        9 1.9967591e-16            0 
   84000  0.036941051        9 1.9967591e-16            0 
   85000  0.044193029        9 1.9967591e-16            0 
   86000  0.050992012        9 1.9967591e-16            0 
   87000  0.057922125        9 1.9967591e-16            0 
   88000  0.067615032        9 1.9967591e-16            0 
   89000  0.075071096        9 1.9967591e-16            0 
   90000  0.082037926        9 1.9967591e-16            0 
   90009  0.082123041        9 1.9967591e-16            0 
Loop time of 0.0813746 on 2 procs for 10000 steps with 9 atoms

Performance: 10617557.810 tau/day, 122888.401 timesteps/s
93.4% CPU use with 2 MPI tasks x no OpenMP threads

MPI task timing breakdown:
Section |  min time  |  avg time  |  max time  |%varavg| %total
---------------------------------------------------------------
Pair    | 0.0028834  | 0.0031455  | 0.0034075  |   0.5 |  3.87
Neigh   | 0          | 0          | 0          |   0.0 |  0.00
Comm    | 0.012776   | 0.01746    | 0.022144   |   3.5 | 21.46
Output  | 0.00028563 | 0.00035226 | 0.0004189  |   0.4 |  0.43
Modify  | 0.019513   | 0.020566   | 0.021619   |   0.7 | 25.27
Other   |            | 0.03985    |            |       | 48.97

Nlocal:    4.5 ave 6 max 3 min
Histogram: 1 0 0 0 0 0 0 0 0 1
Nghost:    1.5 ave 3 max 0 min
Histogram: 1 0 0 0 0 0 0 0 0 1
Neighs:    0 ave 0 max 0 min
Histogram: 2 0 0 0 0 0 0 0 0 0

Total # of neighbors = 0
Ave neighs/atom = 0
Neighbor list builds = 0
Dangerous builds = 0

next a
jump SELF loopa
variable    a loop 10000

pair_style  gran/hooke/history 1.e-4 NULL 1.e-5 NULL 0.0 1
pair_coeff  * *

timestep 1800

variable kanc equal 50

fix 1 all nve/limit 1e-8
fix fv all viscous 1e-5

fix zw all wall/gran hooke/history 2000 NULL 500.0 NULL 1.5 0 zplane  0.0   1e-04
fix zwa all walladh v_kanc zplane  0.0   1e-04


##############Ibm functions##############

fix k1 all kinetics 1 9 9 45 v_temp v_rth v_gvol v_gasTran v_ph v_diffT v_blThick
fix kgm all kinetics/growth/monod v_EPSdens v_etaHET 1
fix g1 all kinetics/diffusion v_shearRate v_tol pp pp nd kg bulk v_Q v_rvol v_Af
fix d1 all divide 1 v_EPSdens v_divMass 31231
fix vf1 all verify 1 bm1 3

run 1
WARNING: EPS is not defined in fix_kinetics/kinetics/monod (../fix_bio_kinetics_monod.cpp:242)
Memory usage per processor = 7.51776 Mbytes
Step CPU Atoms biomass c_myPres 
   90009            0        9 1.9967591e-16            0 
   90010 0.0010647774        9 2.1960292e-16            0 
Loop time of 0.00108194 on 2 procs for 1 steps with 9 atoms

Performance: 143741330559.718 tau/day, 924.263 timesteps/s
0.0% CPU use with 2 MPI tasks x no OpenMP threads

MPI task timing breakdown:
Section |  min time  |  avg time  |  max time  |%varavg| %total
---------------------------------------------------------------
Pair    | 9.5367e-07 | 1.4305e-06 | 1.9073e-06 |   0.0 |  0.13
Neigh   | 4.7922e-05 | 5.2452e-05 | 5.6982e-05 |   0.1 |  4.85
Comm    | 8.1062e-06 | 8.5831e-06 | 9.0599e-06 |   0.0 |  0.79
Output  | 1.8835e-05 | 2.0385e-05 | 2.1935e-05 |   0.0 |  1.88
Modify  | 0.00098515 | 0.00098968 | 0.00099421 |   0.0 | 91.47
Other   |            | 9.418e-06  |            |       |  0.87

Nlocal:    4.5 ave 6 max 3 min
Histogram: 1 0 0 0 0 0 0 0 0 1
Nghost:    1.5 ave 3 max 0 min
Histogram: 1 0 0 0 0 0 0 0 0 1
Neighs:    0 ave 0 max 0 min
Histogram: 2 0 0 0 0 0 0 0 0 0

Total # of neighbors = 0
Ave neighs/atom = 0
Neighbor list builds = 1
Dangerous builds = 0

##############DEM Run##############
unfix kgm
unfix g1
unfix d1
unfix vf1
unfix k1

timestep 1e-3
run 10000
Neighbor list info ...
  2 neighbor list requests
  update every 1 steps, delay 0 steps, check yes
  max neighbors/atom: 2000, page size: 100000
  master list distance cutoff = 1.87312e-06
  ghost atom cutoff = 1.87312e-06
  binsize = 9.36559e-07 -> bins = 22 22 107
Memory usage per processor = 7.51776 Mbytes
Step CPU Atoms biomass c_myPres 
   90010            0        9 2.1960292e-16            0 
   91000 0.0097799301        9 2.1960292e-16            0 
   92000  0.017163038        9 2.1960292e-16            0 
   93000  0.024574041        9 2.1960292e-16            0 
   94000  0.031277895        9 2.1960292e-16            0 
   95000  0.041599989        9 2.1960292e-16            0 
   96000  0.048937082        9 2.1960292e-16            0 
   97000  0.056520939        9 2.1960292e-16            0 
   98000   0.06377697        9 2.1960292e-16            0 
   99000   0.07396698        9 2.1960292e-16            0 
  100000  0.080943108        9 2.1960292e-16            0 
  100010  0.081039906        9 2.1960292e-16            0 
Loop time of 0.081058 on 2 procs for 10000 steps with 9 atoms

Performance: 10659030.937 tau/day, 123368.414 timesteps/s
91.3% CPU use with 2 MPI tasks x no OpenMP threads

MPI task timing breakdown:
Section |  min time  |  avg time  |  max time  |%varavg| %total
---------------------------------------------------------------
Pair    | 0.0032427  | 0.0034138  | 0.0035849  |   0.3 |  4.21
Neigh   | 0          | 0          | 0          |   0.0 |  0.00
Comm    | 0.012821   | 0.017256   | 0.021692   |   3.4 | 21.29
Output  | 0.00027728 | 0.00034404 | 0.0004108  |   0.4 |  0.42
Modify  | 0.021808   | 0.022845   | 0.023881   |   0.7 | 28.18
Other   |            | 0.0372     |            |       | 45.89

Nlocal:    4.5 ave 6 max 3 min
Histogram: 1 0 0 0 0 0 0 0 0 1
Nghost:    1.5 ave 3 max 0 min
Histogram: 1 0 0 0 0 0 0 0 0 1
Neighs:    0 ave 0 max 0 min
Histogram: 2 0 0 0 0 0 0 0 0 0

Total # of neighbors = 0
Ave neighs/atom = 0
Neighbor list builds = 0
Dangerous builds = 0

next a
jump SELF loopa
variable    a loop 10000

pair_style  gran/hooke/history 1.e-4 NULL 1.e-5 NULL 0.0 1
pair_coeff  * *

timestep 1800

variable kanc equal 50

fix 1 all nve/limit 1e-8
fix fv all viscous 1e-5

fix zw all wall/gran hooke/history 2000 NULL 500.0 NULL 1.5 0 zplane  0.0   1e-04
fix zwa all walladh v_kanc zplane  0.0   1e-04


##############Ibm functions##############

fix k1 all kinetics 1 9 9 45 v_temp v_rth v_gvol v_gasTran v_ph v_diffT v_blThick
fix kgm all kinetics/growth/monod v_EPSdens v_etaHET 1
fix g1 all kinetics/diffusion v_shearRate v_tol pp pp nd kg bulk v_Q v_rvol v_Af
fix d1 all divide 1 v_EPSdens v_divMass 31231
fix vf1 all verify 1 bm1 3

run 1
WARNING: EPS is not defined in fix_kinetics/kinetics/monod (../fix_bio_kinetics_monod.cpp:242)
Memory usage per processor = 7.51776 Mbytes
Step CPU Atoms biomass c_myPres 
  100010            0        9 2.1960292e-16            0 
  100011 0.0015599728        9 2.4151859e-16            0 
Loop time of 0.00157905 on 2 procs for 1 steps with 9 atoms

Performance: 98489832112.336 tau/day, 633.294 timesteps/s
126.7% CPU use with 2 MPI tasks x no OpenMP threads

MPI task timing breakdown:
Section |  min time  |  avg time  |  max time  |%varavg| %total
---------------------------------------------------------------
Pair    | 2.1458e-06 | 1.0133e-05 | 1.812e-05  |   0.3 |  0.64
Neigh   | 5.2929e-05 | 0.00010586 | 0.00015879 |   0.5 |  6.70
Comm    | 3.6001e-05 | 3.6001e-05 | 3.6001e-05 |   0.0 |  2.28
Output  | 2.0981e-05 | 2.2531e-05 | 2.408e-05  |   0.0 |  1.43
Modify  | 0.0013328  | 0.0013938  | 0.0014548  |   0.2 | 88.27
Other   |            | 1.073e-05  |            |       |  0.68

Nlocal:    4.5 ave 6 max 3 min
Histogram: 1 0 0 0 0 0 0 0 0 1
Nghost:    1.5 ave 3 max 0 min
Histogram: 1 0 0 0 0 0 0 0 0 1
Neighs:    0 ave 0 max 0 min
Histogram: 2 0 0 0 0 0 0 0 0 0

Total # of neighbors = 0
Ave neighs/atom = 0
Neighbor list builds = 1
Dangerous builds = 0

##############DEM Run##############
unfix kgm
unfix g1
unfix d1
unfix vf1
unfix k1

timestep 1e-3
run 10000
Neighbor list info ...
  2 neighbor list requests
  update every 1 steps, delay 0 steps, check yes
  max neighbors/atom: 2000, page size: 100000
  master list distance cutoff = 1.91736e-06
  ghost atom cutoff = 1.91736e-06
  binsize = 9.58678e-07 -> bins = 21 21 105
Memory usage per processor = 7.51776 Mbytes
Step CPU Atoms biomass c_myPres 
  100011            0        9 2.4151859e-16            0 
  101000 0.0074419975        9 2.4151859e-16            0 
  102000  0.016268969        9 2.4151859e-16            0 
  103000   0.02250886        9 2.4151859e-16            0 
  104000   0.02894187        9 2.4151859e-16            0 
  105000   0.03571105        9 2.4151859e-16            0 
  106000  0.044359922        9 2.4151859e-16            0 
  107000  0.050820827        9 2.4151859e-16            0 
  108000  0.057952881        9 2.4151859e-16            0 
  109000  0.066196918        9 2.4151859e-16            0 
  110000  0.073472977        9 2.4151859e-16            0 
  110011  0.073570013        9 2.4151859e-16            0 
Loop time of 0.0735874 on 2 procs for 10000 steps with 9 atoms

Performance: 11741137.658 tau/day, 135892.797 timesteps/s
84.3% CPU use with 2 MPI tasks x no OpenMP threads

MPI task timing breakdown:
Section |  min time  |  avg time  |  max time  |%varavg| %total
---------------------------------------------------------------
Pair    | 0.0026371  | 0.0028149  | 0.0029926  |   0.3 |  3.83
Neigh   | 0          | 0          | 0          |   0.0 |  0.00
Comm    | 0.011141   | 0.015152   | 0.019163   |   3.3 | 20.59
Output  | 0.00032949 | 0.00041842 | 0.00050735 |   0.4 |  0.57
Modify  | 0.01861    | 0.020823   | 0.023037   |   1.5 | 28.30
Other   |            | 0.03438    |            |       | 46.72

Nlocal:    4.5 ave 6 max 3 min
Histogram: 1 0 0 0 0 0 0 0 0 1
Nghost:    1.5 ave 3 max 0 min
Histogram: 1 0 0 0 0 0 0 0 0 1
Neighs:    0 ave 0 max 0 min
Histogram: 2 0 0 0 0 0 0 0 0 0

Total # of neighbors = 0
Ave neighs/atom = 0
Neighbor list builds = 0
Dangerous builds = 0

next a
jump SELF loopa
variable    a loop 10000

pair_style  gran/hooke/history 1.e-4 NULL 1.e-5 NULL 0.0 1
pair_coeff  * *

timestep 1800

variable kanc equal 50

fix 1 all nve/limit 1e-8
fix fv all viscous 1e-5

fix zw all wall/gran hooke/history 2000 NULL 500.0 NULL 1.5 0 zplane  0.0   1e-04
fix zwa all walladh v_kanc zplane  0.0   1e-04


##############Ibm functions##############

fix k1 all kinetics 1 9 9 45 v_temp v_rth v_gvol v_gasTran v_ph v_diffT v_blThick
fix kgm all kinetics/growth/monod v_EPSdens v_etaHET 1
fix g1 all kinetics/diffusion v_shearRate v_tol pp pp nd kg bulk v_Q v_rvol v_Af
fix d1 all divide 1 v_EPSdens v_divMass 31231
fix vf1 all verify 1 bm1 3

run 1
WARNING: EPS is not defined in fix_kinetics/kinetics/monod (../fix_bio_kinetics_monod.cpp:242)
Memory usage per processor = 7.51776 Mbytes
Step CPU Atoms biomass c_myPres 
  110011            0        9 2.4151859e-16            0 
  110012 0.0013430119        9 2.6562136e-16            0 
Loop time of 0.00143814 on 2 procs for 1 steps with 9 atoms

Performance: 108139615066.313 tau/day, 695.342 timesteps/s
139.1% CPU use with 2 MPI tasks x no OpenMP threads

MPI task timing breakdown:
Section |  min time  |  avg time  |  max time  |%varavg| %total
---------------------------------------------------------------
Pair    | 1.1921e-06 | 1.6689e-06 | 2.1458e-06 |   0.0 |  0.12
Neigh   | 5.1022e-05 | 5.4955e-05 | 5.8889e-05 |   0.1 |  3.82
Comm    | 1.2159e-05 | 1.2159e-05 | 1.2159e-05 |   0.0 |  0.85
Output  | 2.0027e-05 | 5.9605e-05 | 9.9182e-05 |   0.5 |  4.14
Modify  | 0.0012534  | 0.0012584  | 0.0012634  |   0.0 | 87.50
Other   |            | 5.138e-05  |            |       |  3.57

Nlocal:    4.5 ave 6 max 3 min
Histogram: 1 0 0 0 0 0 0 0 0 1
Nghost:    1.5 ave 3 max 0 min
Histogram: 1 0 0 0 0 0 0 0 0 1
Neighs:    0 ave 0 max 0 min
Histogram: 2 0 0 0 0 0 0 0 0 0

Total # of neighbors = 0
Ave neighs/atom = 0
Neighbor list builds = 1
Dangerous builds = 0

##############DEM Run##############
unfix kgm
unfix g1
unfix d1
unfix vf1
unfix k1

timestep 1e-3
run 10000
Neighbor list info ...
  2 neighbor list requests
  update every 1 steps, delay 0 steps, check yes
  max neighbors/atom: 2000, page size: 100000
  master list distance cutoff = 1.96302e-06
  ghost atom cutoff = 1.96302e-06
  binsize = 9.81509e-07 -> bins = 21 21 102
Memory usage per processor = 7.51776 Mbytes
Step CPU Atoms biomass c_myPres 
  110012            0        9 2.6562136e-16            0 
  111000 0.0083670616        9 2.6562136e-16            0 
  112000  0.018213034        9 2.6562136e-16            0 
  113000  0.026139021        9 2.6562136e-16            0 
  114000   0.03411293        9 2.6562136e-16            0 
  115000  0.041595936        9 2.6562136e-16            0 
  116000  0.048177004        9 2.6562136e-16            0 
  117000  0.055711985        9 2.6562136e-16            0 
  118000  0.064338923        9 2.6562136e-16            0 
  119000  0.071833849        9 2.6562136e-16            0 
  120000  0.081145048        9 2.6562136e-16            0 
  120012  0.081348896        9 2.6562136e-16            0 
Loop time of 0.0812885 on 2 procs for 10000 steps with 9 atoms

Performance: 10628815.367 tau/day, 123018.696 timesteps/s
83.7% CPU use with 2 MPI tasks x no OpenMP threads

MPI task timing breakdown:
Section |  min time  |  avg time  |  max time  |%varavg| %total
---------------------------------------------------------------
Pair    | 0.0025413  | 0.0027912  | 0.003041   |   0.5 |  3.43
Neigh   | 0          | 0          | 0          |   0.0 |  0.00
Comm    | 0.011059   | 0.015976   | 0.020893   |   3.9 | 19.65
Output  | 0.00037026 | 0.0010771  | 0.0017838  |   2.2 |  1.32
Modify  | 0.0201     | 0.02265    | 0.025199   |   1.7 | 27.86
Other   |            | 0.03879    |            |       | 47.72

Nlocal:    4.5 ave 6 max 3 min
Histogram: 1 0 0 0 0 0 0 0 0 1
Nghost:    1.5 ave 3 max 0 min
Histogram: 1 0 0 0 0 0 0 0 0 1
Neighs:    0 ave 0 max 0 min
Histogram: 2 0 0 0 0 0 0 0 0 0

Total # of neighbors = 0
Ave neighs/atom = 0
Neighbor list builds = 0
Dangerous builds = 0

next a
jump SELF loopa
variable    a loop 10000

pair_style  gran/hooke/history 1.e-4 NULL 1.e-5 NULL 0.0 1
pair_coeff  * *

timestep 1800

variable kanc equal 50

fix 1 all nve/limit 1e-8
fix fv all viscous 1e-5

fix zw all wall/gran hooke/history 2000 NULL 500.0 NULL 1.5 0 zplane  0.0   1e-04
fix zwa all walladh v_kanc zplane  0.0   1e-04


##############Ibm functions##############

fix k1 all kinetics 1 9 9 45 v_temp v_rth v_gvol v_gasTran v_ph v_diffT v_blThick
fix kgm all kinetics/growth/monod v_EPSdens v_etaHET 1
fix g1 all kinetics/diffusion v_shearRate v_tol pp pp nd kg bulk v_Q v_rvol v_Af
fix d1 all divide 1 v_EPSdens v_divMass 31231
fix vf1 all verify 1 bm1 3

run 1
WARNING: EPS is not defined in fix_kinetics/kinetics/monod (../fix_bio_kinetics_monod.cpp:242)
Memory usage per processor = 7.51776 Mbytes
Step CPU Atoms biomass c_myPres 
  120012            0        9 2.6562136e-16            0 
  120013 0.0010681152        9 2.9212952e-16            0 
Loop time of 0.00120306 on 2 procs for 1 steps with 9 atoms

Performance: 129270344447.087 tau/day, 831.214 timesteps/s
0.0% CPU use with 2 MPI tasks x no OpenMP threads

MPI task timing breakdown:
Section |  min time  |  avg time  |  max time  |%varavg| %total
---------------------------------------------------------------
Pair    | 1.9073e-06 | 1.9073e-06 | 1.9073e-06 |   0.0 |  0.16
Neigh   | 3.6001e-05 | 4.0054e-05 | 4.4107e-05 |   0.1 |  3.33
Comm    | 7.8678e-06 | 7.8678e-06 | 7.8678e-06 |   0.0 |  0.65
Output  | 1.9073e-05 | 7.8559e-05 | 0.00013804 |   0.7 |  6.53
Modify  | 0.0010014  | 0.0010054  | 0.0010095  |   0.0 | 83.57
Other   |            | 6.926e-05  |            |       |  5.76

Nlocal:    4.5 ave 6 max 3 min
Histogram: 1 0 0 0 0 0 0 0 0 1
Nghost:    1.5 ave 3 max 0 min
Histogram: 1 0 0 0 0 0 0 0 0 1
Neighs:    0 ave 0 max 0 min
Histogram: 2 0 0 0 0 0 0 0 0 0

Total # of neighbors = 0
Ave neighs/atom = 0
Neighbor list builds = 1
Dangerous builds = 0

##############DEM Run##############
unfix kgm
unfix g1
unfix d1
unfix vf1
unfix k1

timestep 1e-3
run 10000
Neighbor list info ...
  2 neighbor list requests
  update every 1 steps, delay 0 steps, check yes
  max neighbors/atom: 2000, page size: 100000
  master list distance cutoff = 2.01015e-06
  ghost atom cutoff = 2.01015e-06
  binsize = 1.00508e-06 -> bins = 20 20 100
Memory usage per processor = 7.51776 Mbytes
Step CPU Atoms biomass c_myPres 
  120013            0        9 2.9212952e-16            0 
  121000 0.0062379837        9 2.9212952e-16            0 
  122000  0.017693996        9 2.9212952e-16            0 
  123000   0.02470088        9 2.9212952e-16            0 
  124000  0.033542871        9 2.9212952e-16            0 
  125000  0.041423082        9 2.9212952e-16            0 
  126000  0.049659967        9 2.9212952e-16            0 
  127000  0.055794954        9 2.9212952e-16            0 
  128000  0.078890085        9 2.9212952e-16            0 
  129000  0.094480991        9 2.9212952e-16            0 
  130000   0.11271596        9 2.9212952e-16            0 
  130013   0.11287189        9 2.9212952e-16            0 
Loop time of 0.112885 on 2 procs for 10000 steps with 9 atoms

Performance: 7653774.755 tau/day, 88585.356 timesteps/s
72.6% CPU use with 2 MPI tasks x no OpenMP threads

MPI task timing breakdown:
Section |  min time  |  avg time  |  max time  |%varavg| %total
---------------------------------------------------------------
Pair    | 0.0025687  | 0.0030535  | 0.0035384  |   0.9 |  2.70
Neigh   | 0          | 0          | 0          |   0.0 |  0.00
Comm    | 0.019151   | 0.031445   | 0.043739   |   6.9 | 27.86
Output  | 0.00025177 | 0.00077581 | 0.0012999  |   1.9 |  0.69
Modify  | 0.020397   | 0.023024   | 0.025652   |   1.7 | 20.40
Other   |            | 0.05459    |            |       | 48.36

Nlocal:    4.5 ave 6 max 3 min
Histogram: 1 0 0 0 0 0 0 0 0 1
Nghost:    1.5 ave 3 max 0 min
Histogram: 1 0 0 0 0 0 0 0 0 1
Neighs:    0 ave 0 max 0 min
Histogram: 2 0 0 0 0 0 0 0 0 0

Total # of neighbors = 0
Ave neighs/atom = 0
Neighbor list builds = 0
Dangerous builds = 0

next a
jump SELF loopa
variable    a loop 10000

pair_style  gran/hooke/history 1.e-4 NULL 1.e-5 NULL 0.0 1
pair_coeff  * *

timestep 1800

variable kanc equal 50

fix 1 all nve/limit 1e-8
fix fv all viscous 1e-5

fix zw all wall/gran hooke/history 2000 NULL 500.0 NULL 1.5 0 zplane  0.0   1e-04
fix zwa all walladh v_kanc zplane  0.0   1e-04


##############Ibm functions##############

fix k1 all kinetics 1 9 9 45 v_temp v_rth v_gvol v_gasTran v_ph v_diffT v_blThick
fix kgm all kinetics/growth/monod v_EPSdens v_etaHET 1
fix g1 all kinetics/diffusion v_shearRate v_tol pp pp nd kg bulk v_Q v_rvol v_Af
fix d1 all divide 1 v_EPSdens v_divMass 31231
fix vf1 all verify 1 bm1 3

run 1
WARNING: EPS is not defined in fix_kinetics/kinetics/monod (../fix_bio_kinetics_monod.cpp:242)
Memory usage per processor = 7.51776 Mbytes
Step CPU Atoms biomass c_myPres 
  130013            0        9 2.9212952e-16            0 
  130014 0.0018332005        9 3.2128311e-16            0 
Loop time of 0.00188315 on 2 procs for 1 steps with 9 atoms

Performance: 82585067807.812 tau/day, 531.025 timesteps/s
0.0% CPU use with 2 MPI tasks x no OpenMP threads

MPI task timing breakdown:
Section |  min time  |  avg time  |  max time  |%varavg| %total
---------------------------------------------------------------
Pair    | 1.9073e-06 | 2.5034e-06 | 3.0994e-06 |   0.0 |  0.13
Neigh   | 4.4107e-05 | 4.5061e-05 | 4.6015e-05 |   0.0 |  2.39
Comm    | 8.1062e-06 | 8.5831e-06 | 9.0599e-06 |   0.0 |  0.46
Output  | 1.8835e-05 | 1.9908e-05 | 2.0981e-05 |   0.0 |  1.06
Modify  | 0.0017638  | 0.0017638  | 0.0017638  |   0.0 | 93.66
Other   |            | 4.327e-05  |            |       |  2.30

Nlocal:    4.5 ave 6 max 3 min
Histogram: 1 0 0 0 0 0 0 0 0 1
Nghost:    1.5 ave 3 max 0 min
Histogram: 1 0 0 0 0 0 0 0 0 1
Neighs:    0 ave 0 max 0 min
Histogram: 2 0 0 0 0 0 0 0 0 0

Total # of neighbors = 0
Ave neighs/atom = 0
Neighbor list builds = 1
Dangerous builds = 0

##############DEM Run##############
unfix kgm
unfix g1
unfix d1
unfix vf1
unfix k1

timestep 1e-3
run 10000
Neighbor list info ...
  2 neighbor list requests
  update every 1 steps, delay 0 steps, check yes
  max neighbors/atom: 2000, page size: 100000
  master list distance cutoff = 2.0588e-06
  ghost atom cutoff = 2.0588e-06
  binsize = 1.0294e-06 -> bins = 20 20 98
Memory usage per processor = 7.51776 Mbytes
Step CPU Atoms biomass c_myPres 
  130014            0        9 3.2128311e-16            0 
  131000 0.0073180199        9 3.2128311e-16            0 
  132000  0.018122196        9 3.2128311e-16            0 
  133000  0.026595116        9 3.2128311e-16            0 
  134000  0.034703016        9 3.2128311e-16            0 
  135000  0.043402195        9 3.2128311e-16            0 
  136000  0.050605059        9 3.2128311e-16            0 
  137000  0.059885025        9 3.2128311e-16            0 
  138000  0.067459106        9 3.2128311e-16            0 
  139000  0.077948093        9 3.2128311e-16            0 
  140000  0.084236145        9 3.2128311e-16            0 
  140014   0.08454299        9 3.2128311e-16            0 
Loop time of 0.0846845 on 2 procs for 10000 steps with 9 atoms

Performance: 10202576.507 tau/day, 118085.376 timesteps/s
85.0% CPU use with 2 MPI tasks x no OpenMP threads

MPI task timing breakdown:
Section |  min time  |  avg time  |  max time  |%varavg| %total
---------------------------------------------------------------
Pair    | 0.0026574  | 0.0027785  | 0.0028996  |   0.2 |  3.28
Neigh   | 0          | 0          | 0          |   0.0 |  0.00
Comm    | 0.012054   | 0.01992    | 0.027785   |   5.6 | 23.52
Output  | 0.00031567 | 0.0012907  | 0.0022657  |   2.7 |  1.52
Modify  | 0.019173   | 0.020675   | 0.022176   |   1.0 | 24.41
Other   |            | 0.04002    |            |       | 47.26

Nlocal:    4.5 ave 6 max 3 min
Histogram: 1 0 0 0 0 0 0 0 0 1
Nghost:    1.5 ave 3 max 0 min
Histogram: 1 0 0 0 0 0 0 0 0 1
Neighs:    0 ave 0 max 0 min
Histogram: 2 0 0 0 0 0 0 0 0 0

Total # of neighbors = 0
Ave neighs/atom = 0
Neighbor list builds = 0
Dangerous builds = 0

next a
jump SELF loopa
variable    a loop 10000

pair_style  gran/hooke/history 1.e-4 NULL 1.e-5 NULL 0.0 1
pair_coeff  * *

timestep 1800

variable kanc equal 50

fix 1 all nve/limit 1e-8
fix fv all viscous 1e-5

fix zw all wall/gran hooke/history 2000 NULL 500.0 NULL 1.5 0 zplane  0.0   1e-04
fix zwa all walladh v_kanc zplane  0.0   1e-04


##############Ibm functions##############

fix k1 all kinetics 1 9 9 45 v_temp v_rth v_gvol v_gasTran v_ph v_diffT v_blThick
fix kgm all kinetics/growth/monod v_EPSdens v_etaHET 1
fix g1 all kinetics/diffusion v_shearRate v_tol pp pp nd kg bulk v_Q v_rvol v_Af
fix d1 all divide 1 v_EPSdens v_divMass 31231
fix vf1 all verify 1 bm1 3

run 1
WARNING: EPS is not defined in fix_kinetics/kinetics/monod (../fix_bio_kinetics_monod.cpp:242)
Memory usage per processor = 7.51776 Mbytes
Step CPU Atoms biomass c_myPres 
  140014            0        9 3.2128311e-16            0 
  140015  0.001693964        9 3.5334612e-16            0 
Loop time of 0.00177908 on 2 procs for 1 steps with 9 atoms

Performance: 87415995454.302 tau/day, 562.088 timesteps/s
112.4% CPU use with 2 MPI tasks x no OpenMP threads

MPI task timing breakdown:
Section |  min time  |  avg time  |  max time  |%varavg| %total
---------------------------------------------------------------
Pair    | 9.5367e-07 | 1.0014e-05 | 1.9073e-05 |   0.3 |  0.56
Neigh   | 3.4094e-05 | 3.9577e-05 | 4.5061e-05 |   0.1 |  2.22
Comm    | 9.0599e-06 | 9.5367e-06 | 1.0014e-05 |   0.0 |  0.54
Output  | 1.812e-05  | 5.3048e-05 | 8.7976e-05 |   0.5 |  2.98
Modify  | 0.0016191  | 0.0016226  | 0.001626   |   0.0 | 91.20
Other   |            | 4.435e-05  |            |       |  2.49

Nlocal:    4.5 ave 6 max 3 min
Histogram: 1 0 0 0 0 0 0 0 0 1
Nghost:    1.5 ave 3 max 0 min
Histogram: 1 0 0 0 0 0 0 0 0 1
Neighs:    0 ave 0 max 0 min
Histogram: 2 0 0 0 0 0 0 0 0 0

Total # of neighbors = 0
Ave neighs/atom = 0
Neighbor list builds = 1
Dangerous builds = 0

##############DEM Run##############
unfix kgm
unfix g1
unfix d1
unfix vf1
unfix k1

timestep 1e-3
run 10000
Neighbor list info ...
  2 neighbor list requests
  update every 1 steps, delay 0 steps, check yes
  max neighbors/atom: 2000, page size: 100000
  master list distance cutoff = 2.10902e-06
  ghost atom cutoff = 2.10902e-06
  binsize = 1.05451e-06 -> bins = 19 19 95
Memory usage per processor = 7.51776 Mbytes
Step CPU Atoms biomass c_myPres 
  140015            0        9 3.5334612e-16            0 
  141000  0.014590025        9 3.5334612e-16            0 
  142000  0.022079945        9 3.5334612e-16            0 
  143000  0.031121969        9 3.5334612e-16            0 
  144000  0.041061878        9 3.5334612e-16            0 
  145000  0.049201965        9 3.5334612e-16            0 
  146000  0.056907892        9 3.5334612e-16            0 
  147000  0.064877033        9 3.5334612e-16            0 
  148000  0.074190855        9 3.5334612e-16            0 
  149000  0.084764957        9 3.5334612e-16            0 
  150000  0.092154026        9 3.5334612e-16            0 
  150015  0.092464924        9 3.5334612e-16            0 
Loop time of 0.0926111 on 2 procs for 10000 steps with 9 atoms

Performance: 9329337.827 tau/day, 107978.447 timesteps/s
82.1% CPU use with 2 MPI tasks x no OpenMP threads

MPI task timing breakdown:
Section |  min time  |  avg time  |  max time  |%varavg| %total
---------------------------------------------------------------
Pair    | 0.0030274  | 0.0040196  | 0.0050118  |   1.6 |  4.34
Neigh   | 0          | 0          | 0          |   0.0 |  0.00
Comm    | 0.012935   | 0.019727   | 0.026518   |   4.8 | 21.30
Output  | 0.00026631 | 0.0012503  | 0.0022342  |   2.8 |  1.35
Modify  | 0.021226   | 0.022358   | 0.023489   |   0.8 | 24.14
Other   |            | 0.04526    |            |       | 48.87

Nlocal:    4.5 ave 6 max 3 min
Histogram: 1 0 0 0 0 0 0 0 0 1
Nghost:    1.5 ave 3 max 0 min
Histogram: 1 0 0 0 0 0 0 0 0 1
Neighs:    0 ave 0 max 0 min
Histogram: 2 0 0 0 0 0 0 0 0 0

Total # of neighbors = 0
Ave neighs/atom = 0
Neighbor list builds = 0
Dangerous builds = 0

next a
jump SELF loopa
variable    a loop 10000

pair_style  gran/hooke/history 1.e-4 NULL 1.e-5 NULL 0.0 1
pair_coeff  * *

timestep 1800

variable kanc equal 50

fix 1 all nve/limit 1e-8
fix fv all viscous 1e-5

fix zw all wall/gran hooke/history 2000 NULL 500.0 NULL 1.5 0 zplane  0.0   1e-04
fix zwa all walladh v_kanc zplane  0.0   1e-04


##############Ibm functions##############

fix k1 all kinetics 1 9 9 45 v_temp v_rth v_gvol v_gasTran v_ph v_diffT v_blThick
fix kgm all kinetics/growth/monod v_EPSdens v_etaHET 1
fix g1 all kinetics/diffusion v_shearRate v_tol pp pp nd kg bulk v_Q v_rvol v_Af
fix d1 all divide 1 v_EPSdens v_divMass 31231
fix vf1 all verify 1 bm1 3

run 1
WARNING: EPS is not defined in fix_kinetics/kinetics/monod (../fix_bio_kinetics_monod.cpp:242)
Memory usage per processor = 7.51776 Mbytes
Step CPU Atoms biomass c_myPres 
  150015            0        9 3.5334612e-16            0 
  150016 0.0018599033        9 3.8860892e-16            0 
Loop time of 0.00195003 on 2 procs for 1 steps with 9 atoms

Performance: 79752800841.179 tau/day, 512.814 timesteps/s
102.6% CPU use with 2 MPI tasks x no OpenMP threads

MPI task timing breakdown:
Section |  min time  |  avg time  |  max time  |%varavg| %total
---------------------------------------------------------------
Pair    | 9.5367e-07 | 1.4305e-06 | 1.9073e-06 |   0.0 |  0.07
Neigh   | 3.0041e-05 | 3.3975e-05 | 3.7909e-05 |   0.1 |  1.74
Comm    | 1.0967e-05 | 1.0967e-05 | 1.0967e-05 |   0.0 |  0.56
Output  | 1.9073e-05 | 5.6624e-05 | 9.4175e-05 |   0.5 |  2.90
Modify  | 0.001796   | 0.0017995  | 0.0018029  |   0.0 | 92.28
Other   |            | 4.756e-05  |            |       |  2.44

Nlocal:    4.5 ave 6 max 3 min
Histogram: 1 0 0 0 0 0 0 0 0 1
Nghost:    1.5 ave 3 max 0 min
Histogram: 1 0 0 0 0 0 0 0 0 1
Neighs:    0 ave 0 max 0 min
Histogram: 2 0 0 0 0 0 0 0 0 0

Total # of neighbors = 0
Ave neighs/atom = 0
Neighbor list builds = 1
Dangerous builds = 0

##############DEM Run##############
unfix kgm
unfix g1
unfix d1
unfix vf1
unfix k1

timestep 1e-3
run 10000
Neighbor list info ...
  2 neighbor list requests
  update every 1 steps, delay 0 steps, check yes
  max neighbors/atom: 2000, page size: 100000
  master list distance cutoff = 2.16086e-06
  ghost atom cutoff = 2.16086e-06
  binsize = 1.08043e-06 -> bins = 19 19 93
Memory usage per processor = 7.51776 Mbytes
Step CPU Atoms biomass c_myPres 
  150016            0        9 3.8860892e-16            0 
  151000  0.010696888        9 3.8860892e-16            0 
  152000  0.020116806        9 3.8860892e-16            0 
  153000  0.028108835        9 3.8860892e-16            0 
  154000  0.036324978        9 3.8860892e-16            0 
  155000  0.044349909        9 3.8860892e-16            0 
  156000  0.053264856        9 3.8860892e-16            0 
  157000  0.061143875        9 3.8860892e-16            0 
  158000  0.069250822        9 3.8860892e-16            0 
  159000  0.078744888        9 3.8860892e-16            0 
  160000  0.087134838        9 3.8860892e-16            0 
  160016  0.087478876        9 3.8860892e-16            0 
Loop time of 0.0872259 on 2 procs for 10000 steps with 9 atoms

Performance: 9905313.230 tau/day, 114644.829 timesteps/s
80.3% CPU use with 2 MPI tasks x no OpenMP threads

MPI task timing breakdown:
Section |  min time  |  avg time  |  max time  |%varavg| %total
---------------------------------------------------------------
Pair    | 0.0030205  | 0.0032477  | 0.003475   |   0.4 |  3.72
Neigh   | 0          | 0          | 0          |   0.0 |  0.00
Comm    | 0.01374    | 0.019659   | 0.025578   |   4.2 | 22.54
Output  | 0.0004046  | 0.0019794  | 0.0035541  |   3.5 |  2.27
Modify  | 0.019605   | 0.020022   | 0.020439   |   0.3 | 22.95
Other   |            | 0.04232    |            |       | 48.51

Nlocal:    4.5 ave 6 max 3 min
Histogram: 1 0 0 0 0 0 0 0 0 1
Nghost:    1.5 ave 3 max 0 min
Histogram: 1 0 0 0 0 0 0 0 0 1
Neighs:    0 ave 0 max 0 min
Histogram: 2 0 0 0 0 0 0 0 0 0

Total # of neighbors = 0
Ave neighs/atom = 0
Neighbor list builds = 0
Dangerous builds = 0

next a
jump SELF loopa
variable    a loop 10000

pair_style  gran/hooke/history 1.e-4 NULL 1.e-5 NULL 0.0 1
pair_coeff  * *

timestep 1800

variable kanc equal 50

fix 1 all nve/limit 1e-8
fix fv all viscous 1e-5

fix zw all wall/gran hooke/history 2000 NULL 500.0 NULL 1.5 0 zplane  0.0   1e-04
fix zwa all walladh v_kanc zplane  0.0   1e-04


##############Ibm functions##############

fix k1 all kinetics 1 9 9 45 v_temp v_rth v_gvol v_gasTran v_ph v_diffT v_blThick
fix kgm all kinetics/growth/monod v_EPSdens v_etaHET 1
fix g1 all kinetics/diffusion v_shearRate v_tol pp pp nd kg bulk v_Q v_rvol v_Af
fix d1 all divide 1 v_EPSdens v_divMass 31231
fix vf1 all verify 1 bm1 3

run 1
WARNING: EPS is not defined in fix_kinetics/kinetics/monod (../fix_bio_kinetics_monod.cpp:242)
Memory usage per processor = 7.51776 Mbytes
Step CPU Atoms biomass c_myPres 
  160016            0        9 3.8860892e-16            0 
  160017 0.0033359528        9 4.2739083e-16            0 
Loop time of 0.00342751 on 2 procs for 1 steps with 9 atoms

Performance: 45374106711.185 tau/day, 291.757 timesteps/s
116.7% CPU use with 2 MPI tasks x no OpenMP threads

MPI task timing breakdown:
Section |  min time  |  avg time  |  max time  |%varavg| %total
---------------------------------------------------------------
Pair    | 2.1458e-06 | 2.5034e-06 | 2.861e-06  |   0.0 |  0.07
Neigh   | 3.1948e-05 | 3.4451e-05 | 3.6955e-05 |   0.0 |  1.01
Comm    | 9.0599e-06 | 9.0599e-06 | 9.0599e-06 |   0.0 |  0.26
Output  | 2.1935e-05 | 5.8532e-05 | 9.5129e-05 |   0.5 |  1.71
Modify  | 0.0032723  | 0.0032761  | 0.0032799  |   0.0 | 95.58
Other   |            | 4.685e-05  |            |       |  1.37

Nlocal:    4.5 ave 6 max 3 min
Histogram: 1 0 0 0 0 0 0 0 0 1
Nghost:    1.5 ave 3 max 0 min
Histogram: 1 0 0 0 0 0 0 0 0 1
Neighs:    0 ave 0 max 0 min
Histogram: 2 0 0 0 0 0 0 0 0 0

Total # of neighbors = 0
Ave neighs/atom = 0
Neighbor list builds = 1
Dangerous builds = 0

##############DEM Run##############
unfix kgm
unfix g1
unfix d1
unfix vf1
unfix k1

timestep 1e-3
run 10000
Neighbor list info ...
  2 neighbor list requests
  update every 1 steps, delay 0 steps, check yes
  max neighbors/atom: 2000, page size: 100000
  master list distance cutoff = 2.21437e-06
  ghost atom cutoff = 2.21437e-06
  binsize = 1.10718e-06 -> bins = 19 19 91
Memory usage per processor = 7.51776 Mbytes
Step CPU Atoms biomass c_myPres 
  160017            0        9 4.2739083e-16            0 
  161000  0.012307882        9 4.2739083e-16            0 
  162000     0.022753        9 4.2739083e-16            0 
  163000  0.030140877        9 4.2739083e-16            0 
  164000  0.040714979        9 4.2739083e-16            0 
  165000  0.048222065        9 4.2739083e-16            0 
  166000  0.056169987        9 4.2739083e-16            0 
  167000  0.063272953        9 4.2739083e-16            0 
  168000  0.072432995        9 4.2739083e-16            0 
  169000  0.078502893        9 4.2739083e-16            0 
  170000  0.086724997        9 4.2739083e-16            0 
  170017  0.087295055        9 4.2739083e-16            0 
Loop time of 0.0875919 on 2 procs for 10000 steps with 9 atoms

Performance: 9863927.292 tau/day, 114165.825 timesteps/s
84.5% CPU use with 2 MPI tasks x no OpenMP threads

MPI task timing breakdown:
Section |  min time  |  avg time  |  max time  |%varavg| %total
---------------------------------------------------------------
Pair    | 0.0027039  | 0.0027601  | 0.0028162  |   0.1 |  3.15
Neigh   | 0          | 0          | 0          |   0.0 |  0.00
Comm    | 0.012221   | 0.018879   | 0.025537   |   4.8 | 21.55
Output  | 0.00030613 | 0.0013372  | 0.0023682  |   2.8 |  1.53
Modify  | 0.018343   | 0.020517   | 0.02269    |   1.5 | 23.42
Other   |            | 0.0441     |            |       | 50.35

Nlocal:    4.5 ave 6 max 3 min
Histogram: 1 0 0 0 0 0 0 0 0 1
Nghost:    1.5 ave 3 max 0 min
Histogram: 1 0 0 0 0 0 0 0 0 1
Neighs:    0 ave 0 max 0 min
Histogram: 2 0 0 0 0 0 0 0 0 0

Total # of neighbors = 0
Ave neighs/atom = 0
Neighbor list builds = 0
Dangerous builds = 0

next a
jump SELF loopa
variable    a loop 10000

pair_style  gran/hooke/history 1.e-4 NULL 1.e-5 NULL 0.0 1
pair_coeff  * *

timestep 1800

variable kanc equal 50

fix 1 all nve/limit 1e-8
fix fv all viscous 1e-5

fix zw all wall/gran hooke/history 2000 NULL 500.0 NULL 1.5 0 zplane  0.0   1e-04
fix zwa all walladh v_kanc zplane  0.0   1e-04


##############Ibm functions##############

fix k1 all kinetics 1 9 9 45 v_temp v_rth v_gvol v_gasTran v_ph v_diffT v_blThick
fix kgm all kinetics/growth/monod v_EPSdens v_etaHET 1
fix g1 all kinetics/diffusion v_shearRate v_tol pp pp nd kg bulk v_Q v_rvol v_Af
fix d1 all divide 1 v_EPSdens v_divMass 31231
fix vf1 all verify 1 bm1 3

run 1
WARNING: EPS is not defined in fix_kinetics/kinetics/monod (../fix_bio_kinetics_monod.cpp:242)
Memory usage per processor = 7.51776 Mbytes
Step CPU Atoms biomass c_myPres 
  170017            0        9 4.2739083e-16            0 
  170018 0.0026278496        9 4.7004304e-16            0 
Loop time of 0.00271201 on 2 procs for 1 steps with 9 atoms

Performance: 57344893018.022 tau/day, 368.730 timesteps/s
73.7% CPU use with 2 MPI tasks x no OpenMP threads

MPI task timing breakdown:
Section |  min time  |  avg time  |  max time  |%varavg| %total
---------------------------------------------------------------
Pair    | 1.9073e-06 | 2.0266e-06 | 2.1458e-06 |   0.0 |  0.07
Neigh   | 2.718e-05  | 3.159e-05  | 3.6001e-05 |   0.1 |  1.16
Comm    | 8.8215e-06 | 8.8215e-06 | 8.8215e-06 |   0.0 |  0.33
Output  | 2.0981e-05 | 5.5075e-05 | 8.9169e-05 |   0.5 |  2.03
Modify  | 0.0025659  | 0.0025707  | 0.0025756  |   0.0 | 94.79
Other   |            | 4.375e-05  |            |       |  1.61

Nlocal:    4.5 ave 6 max 3 min
Histogram: 1 0 0 0 0 0 0 0 0 1
Nghost:    1.5 ave 3 max 0 min
Histogram: 1 0 0 0 0 0 0 0 0 1
Neighs:    0 ave 0 max 0 min
Histogram: 2 0 0 0 0 0 0 0 0 0

Total # of neighbors = 0
Ave neighs/atom = 0
Neighbor list builds = 1
Dangerous builds = 0

##############DEM Run##############
unfix kgm
unfix g1
unfix d1
unfix vf1
unfix k1

timestep 1e-3
run 10000
Neighbor list info ...
  2 neighbor list requests
  update every 1 steps, delay 0 steps, check yes
  max neighbors/atom: 2000, page size: 100000
  master list distance cutoff = 2.2696e-06
  ghost atom cutoff = 2.2696e-06
  binsize = 1.1348e-06 -> bins = 18 18 89
Memory usage per processor = 7.51776 Mbytes
Step CPU Atoms biomass c_myPres 
  170018            0        9 4.7004304e-16            0 
  171000 0.0087339878        9 4.7004304e-16            0 
  172000  0.014776945        9 4.7004304e-16            0 
  173000  0.023130894        9 4.7004304e-16            0 
  174000  0.029666901        9 4.7004304e-16            0 
  175000  0.039845943        9 4.7004304e-16            0 
  176000  0.045933008        9 4.7004304e-16            0 
  177000  0.052881002        9 4.7004304e-16            0 
  178000  0.060496807        9 4.7004304e-16            0 
  179000  0.068986893        9 4.7004304e-16            0 
  180000   0.07683301        9 4.7004304e-16            0 
  180018  0.077157974        9 4.7004304e-16            0 
Loop time of 0.0773048 on 2 procs for 10000 steps with 9 atoms

Performance: 11176531.754 tau/day, 129358.006 timesteps/s
88.0% CPU use with 2 MPI tasks x no OpenMP threads

MPI task timing breakdown:
Section |  min time  |  avg time  |  max time  |%varavg| %total
---------------------------------------------------------------
Pair    | 0.0025346  | 0.0027235  | 0.0029123  |   0.4 |  3.52
Neigh   | 0          | 0          | 0          |   0.0 |  0.00
Comm    | 0.010704   | 0.016265   | 0.021826   |   4.4 | 21.04
Output  | 0.00029945 | 0.0014471  | 0.0025947  |   3.0 |  1.87
Modify  | 0.018879   | 0.019599   | 0.020318   |   0.5 | 25.35
Other   |            | 0.03727    |            |       | 48.21

Nlocal:    4.5 ave 6 max 3 min
Histogram: 1 0 0 0 0 0 0 0 0 1
Nghost:    1.5 ave 3 max 0 min
Histogram: 1 0 0 0 0 0 0 0 0 1
Neighs:    0 ave 0 max 0 min
Histogram: 2 0 0 0 0 0 0 0 0 0

Total # of neighbors = 0
Ave neighs/atom = 0
Neighbor list builds = 0
Dangerous builds = 0

next a
jump SELF loopa
variable    a loop 10000

pair_style  gran/hooke/history 1.e-4 NULL 1.e-5 NULL 0.0 1
pair_coeff  * *

timestep 1800

variable kanc equal 50

fix 1 all nve/limit 1e-8
fix fv all viscous 1e-5

fix zw all wall/gran hooke/history 2000 NULL 500.0 NULL 1.5 0 zplane  0.0   1e-04
fix zwa all walladh v_kanc zplane  0.0   1e-04


##############Ibm functions##############

fix k1 all kinetics 1 9 9 45 v_temp v_rth v_gvol v_gasTran v_ph v_diffT v_blThick
fix kgm all kinetics/growth/monod v_EPSdens v_etaHET 1
fix g1 all kinetics/diffusion v_shearRate v_tol pp pp nd kg bulk v_Q v_rvol v_Af
fix d1 all divide 1 v_EPSdens v_divMass 31231
fix vf1 all verify 1 bm1 3

run 1
WARNING: EPS is not defined in fix_kinetics/kinetics/monod (../fix_bio_kinetics_monod.cpp:242)
Memory usage per processor = 7.51776 Mbytes
Step CPU Atoms biomass c_myPres 
  180018            0        9 4.7004304e-16            0 
  180019 0.0039930344        9 5.1695178e-16            0 
Loop time of 0.00411499 on 2 procs for 1 steps with 9 atoms

Performance: 37793572124.337 tau/day, 243.014 timesteps/s
48.6% CPU use with 2 MPI tasks x no OpenMP threads

MPI task timing breakdown:
Section |  min time  |  avg time  |  max time  |%varavg| %total
---------------------------------------------------------------
Pair    | 1.9073e-06 | 2.0266e-06 | 2.1458e-06 |   0.0 |  0.05
Neigh   | 2.8133e-05 | 3.2544e-05 | 3.6955e-05 |   0.1 |  0.79
Comm    | 8.8215e-06 | 8.8215e-06 | 8.8215e-06 |   0.0 |  0.21
Output  | 2.2173e-05 | 5.9009e-05 | 9.5844e-05 |   0.5 |  1.43
Modify  | 0.0039299  | 0.0039339  | 0.003938   |   0.0 | 95.60
Other   |            | 7.868e-05  |            |       |  1.91

Nlocal:    4.5 ave 6 max 3 min
Histogram: 1 0 0 0 0 0 0 0 0 1
Nghost:    1.5 ave 3 max 0 min
Histogram: 1 0 0 0 0 0 0 0 0 1
Neighs:    0 ave 0 max 0 min
Histogram: 2 0 0 0 0 0 0 0 0 0

Total # of neighbors = 0
Ave neighs/atom = 0
Neighbor list builds = 1
Dangerous builds = 0

##############DEM Run##############
unfix kgm
unfix g1
unfix d1
unfix vf1
unfix k1

timestep 1e-3
run 10000
Neighbor list info ...
  2 neighbor list requests
  update every 1 steps, delay 0 steps, check yes
  max neighbors/atom: 2000, page size: 100000
  master list distance cutoff = 2.32661e-06
  ghost atom cutoff = 2.32661e-06
  binsize = 1.1633e-06 -> bins = 18 18 86
Memory usage per processor = 7.51776 Mbytes
Step CPU Atoms biomass c_myPres 
  180019            0        9 5.1695178e-16            0 
  181000 0.0092699528        9 5.1695178e-16            0 
  182000  0.016937017        9 5.1695178e-16            0 
  183000  0.023915052        9 5.1695178e-16            0 
  184000  0.031279087        9 5.1695178e-16            0 
  185000  0.040510178        9 5.1695178e-16            0 
  186000  0.047877073        9 5.1695178e-16            0 
  187000  0.054862022        9 5.1695178e-16            0 
  188000  0.062824011        9 5.1695178e-16            0 
  189000   0.07181406        9 5.1695178e-16            0 
  190000  0.079571962        9 5.1695178e-16            0 
  190019  0.080271006        9 5.1695178e-16            0 
Loop time of 0.0805922 on 2 procs for 10000 steps with 9 atoms

Performance: 10720646.384 tau/day, 124081.555 timesteps/s
86.9% CPU use with 2 MPI tasks x no OpenMP threads

MPI task timing breakdown:
Section |  min time  |  avg time  |  max time  |%varavg| %total
---------------------------------------------------------------
Pair    | 0.0025835  | 0.0030994  | 0.0036154  |   0.9 |  3.85
Neigh   | 0          | 0          | 0          |   0.0 |  0.00
Comm    | 0.012111   | 0.016886   | 0.021661   |   3.7 | 20.95
Output  | 0.00039625 | 0.002185   | 0.0039737  |   3.8 |  2.71
Modify  | 0.018437   | 0.02048    | 0.022523   |   1.4 | 25.41
Other   |            | 0.03794    |            |       | 47.08

Nlocal:    4.5 ave 6 max 3 min
Histogram: 1 0 0 0 0 0 0 0 0 1
Nghost:    1.5 ave 3 max 0 min
Histogram: 1 0 0 0 0 0 0 0 0 1
Neighs:    0 ave 0 max 0 min
Histogram: 2 0 0 0 0 0 0 0 0 0

Total # of neighbors = 0
Ave neighs/atom = 0
Neighbor list builds = 0
Dangerous builds = 0

next a
jump SELF loopa
variable    a loop 10000

pair_style  gran/hooke/history 1.e-4 NULL 1.e-5 NULL 0.0 1
pair_coeff  * *

timestep 1800

variable kanc equal 50

fix 1 all nve/limit 1e-8
fix fv all viscous 1e-5

[...]
Memory usage per processor = 7.64387 Mbytes
Step CPU Atoms biomass c_myPres 
  670067            0      159 4.968972e-14  0.054674003 
  670068    3.1970959      180 5.4643707e-14   0.23056519 
Loop time of 3.19713 on 2 procs for 1 steps with 180 atoms

Performance: 48643635.043 tau/day, 0.313 timesteps/s
86.5% CPU use with 2 MPI tasks x no OpenMP threads

MPI task timing breakdown:
Section |  min time  |  avg time  |  max time  |%varavg| %total
---------------------------------------------------------------
Pair    | 7.1049e-05 | 7.6056e-05 | 8.1062e-05 |   0.1 |  0.00
Neigh   | 0.00014997 | 0.00017297 | 0.00019598 |   0.2 |  0.01
Comm    | 0.00015807 | 0.00016701 | 0.00017595 |   0.1 |  0.01
Output  | 2.1935e-05 | 2.9922e-05 | 3.7909e-05 |   0.1 |  0.00
Modify  | 3.1966     | 3.1967     | 3.1967     |   0.0 | 99.99
Other   |            | 2.265e-05  |            |       |  0.00

Nlocal:    90 ave 99 max 81 min
Histogram: 1 0 0 0 0 0 0 0 0 1
Nghost:    135 ave 141 max 129 min
Histogram: 1 0 0 0 0 0 0 0 0 1
Neighs:    368 ave 407 max 329 min
Histogram: 1 0 0 0 0 0 0 0 0 1

Total # of neighbors = 736
Ave neighs/atom = 4.08889
Neighbor list builds = 1
Dangerous builds = 0

##############DEM Run##############
unfix kgm
unfix g1
unfix d1
unfix vf1
unfix k1

timestep 1e-3
run 10000
Neighbor list info ...
  2 neighbor list requests
  update every 1 steps, delay 0 steps, check yes
  max neighbors/atom: 2000, page size: 100000
  master list distance cutoff = 4.10028e-06
  ghost atom cutoff = 4.10028e-06
  binsize = 2.05014e-06 -> bins = 10 10 49
Memory usage per processor = 7.64399 Mbytes
Step CPU Atoms biomass c_myPres 
  670068            0      180 5.4643707e-14   0.23933313 
  671000   0.16267085      180 5.4643707e-14   0.14873762 
  672000   0.26959682      180 5.4643707e-14   0.12030623 
  673000   0.39377999      180 5.4643707e-14   0.10406563 
  674000   0.49510384      180 5.4643707e-14  0.096432684 
  675000   0.60433793      180 5.4643707e-14  0.091224091 
  676000   0.70098686      180 5.4643707e-14  0.086770038 
  677000   0.79632688      180 5.4643707e-14  0.083806808 
  678000   0.88878798      180 5.4643707e-14  0.081448236 
  679000    1.0507698      180 5.4643707e-14  0.079199867 
  680000    1.2599149      180 5.4643707e-14  0.077866724 
  680068    1.2832818      180 5.4643707e-14  0.077706179 
Loop time of 1.28335 on 2 procs for 10000 steps with 180 atoms

Performance: 673235.701 tau/day, 7792.080 timesteps/s
78.4% CPU use with 2 MPI tasks x no OpenMP threads

MPI task timing breakdown:
Section |  min time  |  avg time  |  max time  |%varavg| %total
---------------------------------------------------------------
Pair    | 0.57997    | 0.60239    | 0.6248     |   2.9 | 46.94
Neigh   | 0.0035489  | 0.004727   | 0.0059052  |   1.7 |  0.37
Comm    | 0.28035    | 0.28355    | 0.28676    |   0.6 | 22.09
Output  | 0.00094247 | 0.0039493  | 0.0069561  |   4.8 |  0.31
Modify  | 0.14002    | 0.14762    | 0.15523    |   2.0 | 11.50
Other   |            | 0.2411     |            |       | 18.79

Nlocal:    90 ave 96 max 84 min
Histogram: 1 0 0 0 0 0 0 0 0 1
Nghost:    135.5 ave 146 max 125 min
Histogram: 1 0 0 0 0 0 0 0 0 1
Neighs:    408 ave 442 max 374 min
Histogram: 1 0 0 0 0 0 0 0 0 1

Total # of neighbors = 816
Ave neighs/atom = 4.53333
Neighbor list builds = 20
Dangerous builds = 0

next a
jump SELF loopa
variable    a loop 10000

pair_style  gran/hooke/history 1.e-4 NULL 1.e-5 NULL 0.0 1
pair_coeff  * *

timestep 1800

variable kanc equal 50

fix 1 all nve/limit 1e-8
fix fv all viscous 1e-5

fix zw all wall/gran hooke/history 2000 NULL 500.0 NULL 1.5 0 zplane  0.0   1e-04
fix zwa all walladh v_kanc zplane  0.0   1e-04


##############Ibm functions##############

fix k1 all kinetics 1 9 9 45 v_temp v_rth v_gvol v_gasTran v_ph v_diffT v_blThick
fix kgm all kinetics/growth/monod v_EPSdens v_etaHET 1
fix g1 all kinetics/diffusion v_shearRate v_tol pp pp nd kg bulk v_Q v_rvol v_Af
fix d1 all divide 1 v_EPSdens v_divMass 31231
fix vf1 all verify 1 bm1 3

run 1
WARNING: EPS is not defined in fix_kinetics/kinetics/monod (../fix_bio_kinetics_monod.cpp:242)
Memory usage per processor = 7.64399 Mbytes
Step CPU Atoms biomass c_myPres 
  680068            0      180 5.4643707e-14  0.077706179 
  680069     3.719836      197 6.0090468e-14   0.25398879 
Loop time of 3.71992 on 2 procs for 1 steps with 197 atoms

Performance: 41807304.703 tau/day, 0.269 timesteps/s
87.9% CPU use with 2 MPI tasks x no OpenMP threads

MPI task timing breakdown:
Section |  min time  |  avg time  |  max time  |%varavg| %total
---------------------------------------------------------------
Pair    | 6.9857e-05 | 7.5459e-05 | 8.1062e-05 |   0.1 |  0.00
Neigh   | 0.00017619 | 0.00019503 | 0.00021386 |   0.1 |  0.01
Comm    | 4.1962e-05 | 4.2915e-05 | 4.3869e-05 |   0.0 |  0.00
Output  | 2.8849e-05 | 9.6917e-05 | 0.00016499 |   0.7 |  0.00
Modify  | 3.7194     | 3.7194     | 3.7195     |   0.0 | 99.99
Other   |            | 8.965e-05  |            |       |  0.00

Nlocal:    98.5 ave 106 max 91 min
Histogram: 1 0 0 0 0 0 0 0 0 1
Nghost:    147.5 ave 157 max 138 min
Histogram: 1 0 0 0 0 0 0 0 0 1
Neighs:    415.5 ave 451 max 380 min
Histogram: 1 0 0 0 0 0 0 0 0 1

Total # of neighbors = 831
Ave neighs/atom = 4.21827
Neighbor list builds = 1
Dangerous builds = 0

##############DEM Run##############
unfix kgm
unfix g1
unfix d1
unfix vf1
unfix k1

timestep 1e-3
run 10000
Neighbor list info ...
  2 neighbor list requests
  update every 1 steps, delay 0 steps, check yes
  max neighbors/atom: 2000, page size: 100000
  master list distance cutoff = 4.08928e-06
  ghost atom cutoff = 4.08928e-06
  binsize = 2.04464e-06 -> bins = 10 10 49
Memory usage per processor = 7.64408 Mbytes
Step CPU Atoms biomass c_myPres 
  680069            0      197 6.0090468e-14   0.26594895 
  681000   0.27165103      197 6.0090468e-14   0.16332045 
  682000   0.40427113      197 6.0090468e-14   0.13346531 
  683000   0.54334998      197 6.0090468e-14   0.11896656 
  684000   0.65975308      197 6.0090468e-14   0.10955889 
  685000   0.88402009      197 6.0090468e-14   0.10417507 
  686000   0.98709106      197 6.0090468e-14   0.10105903 
  687000     1.158515      197 6.0090468e-14   0.09758038 
  688000    1.2769082      197 6.0090468e-14  0.095043853 
  689000     1.383646      197 6.0090468e-14   0.09350057 
  690000    1.6469262      197 6.0090468e-14  0.092140247 
  690069    1.6681061      197 6.0090468e-14  0.092486377 
Loop time of 1.6696 on 2 procs for 10000 steps with 197 atoms

Performance: 517489.955 tau/day, 5989.467 timesteps/s
73.1% CPU use with 2 MPI tasks x no OpenMP threads

MPI task timing breakdown:
Section |  min time  |  avg time  |  max time  |%varavg| %total
---------------------------------------------------------------
Pair    | 0.70954    | 0.74138    | 0.77322    |   3.7 | 44.40
Neigh   | 0.0034719  | 0.0040585  | 0.0046451  |   0.9 |  0.24
Comm    | 0.31711    | 0.36596    | 0.4148     |   8.1 | 21.92
Output  | 0.0041041  | 0.0044223  | 0.0047405  |   0.5 |  0.26
Modify  | 0.14651    | 0.16091    | 0.17531    |   3.6 |  9.64
Other   |            | 0.3929     |            |       | 23.53

Nlocal:    98.5 ave 105 max 92 min
Histogram: 1 0 0 0 0 0 0 0 0 1
Nghost:    152.5 ave 162 max 143 min
Histogram: 1 0 0 0 0 0 0 0 0 1
Neighs:    468.5 ave 501 max 436 min
Histogram: 1 0 0 0 0 0 0 0 0 1

Total # of neighbors = 937
Ave neighs/atom = 4.75635
Neighbor list builds = 15
Dangerous builds = 0

next a
jump SELF loopa
variable    a loop 10000

pair_style  gran/hooke/history 1.e-4 NULL 1.e-5 NULL 0.0 1
pair_coeff  * *

timestep 1800

variable kanc equal 50

fix 1 all nve/limit 1e-8
fix fv all viscous 1e-5

fix zw all wall/gran hooke/history 2000 NULL 500.0 NULL 1.5 0 zplane  0.0   1e-04
fix zwa all walladh v_kanc zplane  0.0   1e-04


##############Ibm functions##############

fix k1 all kinetics 1 9 9 45 v_temp v_rth v_gvol v_gasTran v_ph v_diffT v_blThick
fix kgm all kinetics/growth/monod v_EPSdens v_etaHET 1
fix g1 all kinetics/diffusion v_shearRate v_tol pp pp nd kg bulk v_Q v_rvol v_Af
fix d1 all divide 1 v_EPSdens v_divMass 31231
fix vf1 all verify 1 bm1 3

run 1
WARNING: EPS is not defined in fix_kinetics/kinetics/monod (../fix_bio_kinetics_monod.cpp:242)
Memory usage per processor = 7.64408 Mbytes
Step CPU Atoms biomass c_myPres 
  690069            0      197 6.0090468e-14  0.092486377 
  690070    4.2816269      219 6.6078531e-14   0.30663215 
Loop time of 4.28161 on 2 procs for 1 steps with 219 atoms

Performance: 36322826.482 tau/day, 0.234 timesteps/s
95.1% CPU use with 2 MPI tasks x no OpenMP threads

MPI task timing breakdown:
Section |  min time  |  avg time  |  max time  |%varavg| %total
---------------------------------------------------------------
Pair    | 9.7036e-05 | 9.8467e-05 | 9.9897e-05 |   0.0 |  0.00
Neigh   | 0.00020385 | 0.00020885 | 0.00021386 |   0.0 |  0.00
Comm    | 4.22e-05   | 4.4107e-05 | 4.6015e-05 |   0.0 |  0.00
Output  | 2.408e-05  | 2.6464e-05 | 2.8849e-05 |   0.0 |  0.00
Modify  | 4.2812     | 4.2812     | 4.2812     |   0.0 | 99.99
Other   |            | 1.717e-05  |            |       |  0.00

Nlocal:    109.5 ave 117 max 102 min
Histogram: 1 0 0 0 0 0 0 0 0 1
Nghost:    171.5 ave 181 max 162 min
Histogram: 1 0 0 0 0 0 0 0 0 1
Neighs:    483 ave 512 max 454 min
Histogram: 1 0 0 0 0 0 0 0 0 1

Total # of neighbors = 966
Ave neighs/atom = 4.41096
Neighbor list builds = 1
Dangerous builds = 0

##############DEM Run##############
unfix kgm
unfix g1
unfix d1
unfix vf1
unfix k1

timestep 1e-3
run 10000
Neighbor list info ...
  2 neighbor list requests
  update every 1 steps, delay 0 steps, check yes
  max neighbors/atom: 2000, page size: 100000
  master list distance cutoff = 4.09986e-06
  ghost atom cutoff = 4.09986e-06
  binsize = 2.04993e-06 -> bins = 10 10 49
Memory usage per processor = 7.64422 Mbytes
Step CPU Atoms biomass c_myPres 
  690070            0      219 6.6078531e-14   0.32109899 
  691000   0.11455297      219 6.6078531e-14   0.20462781 
  692000   0.22036195      219 6.6078531e-14   0.16821545 
  693000   0.33599997      219 6.6078531e-14   0.14671851 
  694000   0.45496988      219 6.6078531e-14   0.13624972 
  695000   0.57244205      219 6.6078531e-14   0.13187444 
  696000   0.69240093      219 6.6078531e-14   0.12804825 
  697000   0.81084991      219 6.6078531e-14   0.12465943 
  698000   0.93236804      219 6.6078531e-14   0.12101974 
  699000     1.047437      219 6.6078531e-14   0.11807296 
  700000    1.1639359      219 6.6078531e-14    0.1146748 
  700070     1.172929      219 6.6078531e-14   0.11448072 
Loop time of 1.17296 on 2 procs for 10000 steps with 219 atoms

Performance: 736597.383 tau/day, 8525.433 timesteps/s
92.1% CPU use with 2 MPI tasks x no OpenMP threads

MPI task timing breakdown:
Section |  min time  |  avg time  |  max time  |%varavg| %total
---------------------------------------------------------------
Pair    | 0.59413    | 0.64472    | 0.69531    |   6.3 | 54.97
Neigh   | 0.0033638  | 0.0036273  | 0.0038908  |   0.4 |  0.31
Comm    | 0.19902    | 0.20665    | 0.21429    |   1.7 | 17.62
Output  | 0.0002985  | 0.00041497 | 0.00053144 |   0.6 |  0.04
Modify  | 0.12883    | 0.14806    | 0.16728    |   5.0 | 12.62
Other   |            | 0.1695     |            |       | 14.45

Nlocal:    109.5 ave 122 max 97 min
Histogram: 1 0 0 0 0 0 0 0 0 1
Nghost:    174.5 ave 180 max 169 min
Histogram: 1 0 0 0 0 0 0 0 0 1
Neighs:    541 ave 601 max 481 min
Histogram: 1 0 0 0 0 0 0 0 0 1

Total # of neighbors = 1082
Ave neighs/atom = 4.94064
Neighbor list builds = 17
Dangerous builds = 0

next a
jump SELF loopa
variable    a loop 10000

pair_style  gran/hooke/history 1.e-4 NULL 1.e-5 NULL 0.0 1
pair_coeff  * *

timestep 1800

variable kanc equal 50

fix 1 all nve/limit 1e-8
fix fv all viscous 1e-5

fix zw all wall/gran hooke/history 2000 NULL 500.0 NULL 1.5 0 zplane  0.0   1e-04
fix zwa all walladh v_kanc zplane  0.0   1e-04


##############Ibm functions##############

fix k1 all kinetics 1 9 9 45 v_temp v_rth v_gvol v_gasTran v_ph v_diffT v_blThick
fix kgm all kinetics/growth/monod v_EPSdens v_etaHET 1
fix g1 all kinetics/diffusion v_shearRate v_tol pp pp nd kg bulk v_Q v_rvol v_Af
fix d1 all divide 1 v_EPSdens v_divMass 31231
fix vf1 all verify 1 bm1 3

run 1
WARNING: EPS is not defined in fix_kinetics/kinetics/monod (../fix_bio_kinetics_monod.cpp:242)
Memory usage per processor = 7.64422 Mbytes
Step CPU Atoms biomass c_myPres 
  700070            0      219 6.6078531e-14   0.11448072 
  700071     5.187794      244 7.2661171e-14   0.35563489 
Loop time of 5.18781 on 2 procs for 1 steps with 244 atoms

Performance: 29977949.994 tau/day, 0.193 timesteps/s
94.7% CPU use with 2 MPI tasks x no OpenMP threads

MPI task timing breakdown:
Section |  min time  |  avg time  |  max time  |%varavg| %total
---------------------------------------------------------------
Pair    | 0.000108   | 0.00010955 | 0.0001111  |   0.0 |  0.00
Neigh   | 0.00018787 | 0.00022697 | 0.00026608 |   0.3 |  0.00
Comm    | 4.1008e-05 | 4.3035e-05 | 4.5061e-05 |   0.0 |  0.00
Output  | 2.0981e-05 | 2.3007e-05 | 2.5034e-05 |   0.0 |  0.00
Modify  | 5.1874     | 5.1874     | 5.1874     |   0.0 | 99.99
Other   |            | 1.192e-05  |            |       |  0.00

Nlocal:    122 ave 136 max 108 min
Histogram: 1 0 0 0 0 0 0 0 0 1
Nghost:    192.5 ave 199 max 186 min
Histogram: 1 0 0 0 0 0 0 0 0 1
Neighs:    559.5 ave 619 max 500 min
Histogram: 1 0 0 0 0 0 0 0 0 1

Total # of neighbors = 1119
Ave neighs/atom = 4.58607
Neighbor list builds = 1
Dangerous builds = 0

##############DEM Run##############
unfix kgm
unfix g1
unfix d1
unfix vf1
unfix k1

timestep 1e-3
run 10000
Neighbor list info ...
  2 neighbor list requests
  update every 1 steps, delay 0 steps, check yes
  max neighbors/atom: 2000, page size: 100000
  master list distance cutoff = 4.0945e-06
  ghost atom cutoff = 4.0945e-06
  binsize = 2.04725e-06 -> bins = 10 10 49
Memory usage per processor = 7.64433 Mbytes
Step CPU Atoms biomass c_myPres 
  700071            0      244 7.2661171e-14    0.3719052 
  701000     0.165833      244 7.2661171e-14   0.24977138 
  702000   0.31753397      244 7.2661171e-14   0.20960303 
  703000   0.47298813      244 7.2661171e-14   0.18991443 
  704000   0.61885905      244 7.2661171e-14   0.17647073 
  705000   0.76130509      244 7.2661171e-14   0.16911761 
  706000   0.90182996      244 7.2661171e-14   0.16187426 
  707000    1.0445931      244 7.2661171e-14   0.15352401 
  708000    1.1762621      244 7.2661171e-14   0.14806566 
  709000     1.325387      244 7.2661171e-14   0.14421968 
  710000     1.482162      244 7.2661171e-14   0.14097245 
  710071     1.493705      244 7.2661171e-14   0.14091987 
Loop time of 1.49388 on 2 procs for 10000 steps with 244 atoms

Performance: 578361.633 tau/day, 6694.000 timesteps/s
93.0% CPU use with 2 MPI tasks x no OpenMP threads

MPI task timing breakdown:
Section |  min time  |  avg time  |  max time  |%varavg| %total
---------------------------------------------------------------
Pair    | 0.7985     | 0.84128    | 0.88407    |   4.7 | 56.32
Neigh   | 0.0068147  | 0.0069003  | 0.0069859  |   0.1 |  0.46
Comm    | 0.22537    | 0.23641    | 0.24746    |   2.3 | 15.83
Output  | 0.00068712 | 0.00080717 | 0.00092721 |   0.4 |  0.05
Modify  | 0.16986    | 0.17045    | 0.17103    |   0.1 | 11.41
Other   |            | 0.238      |            |       | 15.93

Nlocal:    122 ave 135 max 109 min
Histogram: 1 0 0 0 0 0 0 0 0 1
Nghost:    191.5 ave 192 max 191 min
Histogram: 1 0 0 0 0 0 0 0 0 1
Neighs:    629.5 ave 697 max 562 min
Histogram: 1 0 0 0 0 0 0 0 0 1

Total # of neighbors = 1259
Ave neighs/atom = 5.15984
Neighbor list builds = 25
Dangerous builds = 0

next a
jump SELF loopa
variable    a loop 10000

pair_style  gran/hooke/history 1.e-4 NULL 1.e-5 NULL 0.0 1
pair_coeff  * *

timestep 1800

variable kanc equal 50

fix 1 all nve/limit 1e-8
fix fv all viscous 1e-5

fix zw all wall/gran hooke/history 2000 NULL 500.0 NULL 1.5 0 zplane  0.0   1e-04
fix zwa all walladh v_kanc zplane  0.0   1e-04


##############Ibm functions##############

fix k1 all kinetics 1 9 9 45 v_temp v_rth v_gvol v_gasTran v_ph v_diffT v_blThick
fix kgm all kinetics/growth/monod v_EPSdens v_etaHET 1
fix g1 all kinetics/diffusion v_shearRate v_tol pp pp nd kg bulk v_Q v_rvol v_Af
fix d1 all divide 1 v_EPSdens v_divMass 31231
fix vf1 all verify 1 bm1 3

run 1
WARNING: EPS is not defined in fix_kinetics/kinetics/monod (../fix_bio_kinetics_monod.cpp:242)
Memory usage per processor = 7.64433 Mbytes
Step CPU Atoms biomass c_myPres 
  710071            0      244 7.2661171e-14   0.14091987 
  710072    78.631516      271 7.9896716e-14    0.4176406 
Loop time of 78.6316 on 2 procs for 1 steps with 271 atoms

Performance: 1977830.969 tau/day, 0.013 timesteps/s
89.6% CPU use with 2 MPI tasks x no OpenMP threads

MPI task timing breakdown:
Section |  min time  |  avg time  |  max time  |%varavg| %total
---------------------------------------------------------------
Pair    | 0.00011587 | 0.00012898 | 0.0001421  |   0.1 |  0.00
Neigh   | 0.00028586 | 0.00030899 | 0.00033212 |   0.1 |  0.00
Comm    | 5.1975e-05 | 5.3525e-05 | 5.5075e-05 |   0.0 |  0.00
Output  | 0.00014186 | 0.00021148 | 0.0002811  |   0.5 |  0.00
Modify  | 78.631     | 78.631     | 78.631     |   0.0 |100.00
Other   |            | 5.925e-05  |            |       |  0.00

Nlocal:    135.5 ave 148 max 123 min
Histogram: 1 0 0 0 0 0 0 0 0 1
Nghost:    215 ave 217 max 213 min
Histogram: 1 0 0 0 0 0 0 0 0 1
Neighs:    633.5 ave 699 max 568 min
Histogram: 1 0 0 0 0 0 0 0 0 1

Total # of neighbors = 1267
Ave neighs/atom = 4.67528
Neighbor list builds = 1
Dangerous builds = 0

##############DEM Run##############
unfix kgm
unfix g1
unfix d1
unfix vf1
unfix k1

timestep 1e-3
run 10000
Neighbor list info ...
  2 neighbor list requests
  update every 1 steps, delay 0 steps, check yes
  max neighbors/atom: 2000, page size: 100000
  master list distance cutoff = 4.09276e-06
  ghost atom cutoff = 4.09276e-06
  binsize = 2.04638e-06 -> bins = 10 10 49
Memory usage per processor = 7.6484 Mbytes
Step CPU Atoms biomass c_myPres 
  710072            0      271 7.9896716e-14   0.43422004 
  711000   0.23100615      271 7.9896716e-14   0.29950772 
  712000   0.50792122      271 7.9896716e-14   0.26354428 
  713000   0.75059605      271 7.9896716e-14   0.24498148 
  714000   0.99638009      271 7.9896716e-14   0.23622126 
  715000    1.1717842      271 7.9896716e-14   0.22890254 
  716000    1.4120781      271 7.9896716e-14   0.22057695 
  717000    1.6744242      271 7.9896716e-14   0.21437925 
  718000     1.863667      271 7.9896716e-14    0.2103049 
  719000    2.0506172      271 7.9896716e-14   0.20581724 
  720000     2.295408      271 7.9896716e-14    0.2035237 
  720072    2.3077452      271 7.9896716e-14   0.20313776 
Loop time of 2.30778 on 2 procs for 10000 steps with 271 atoms

Performance: 374386.098 tau/day, 4333.172 timesteps/s
88.1% CPU use with 2 MPI tasks x no OpenMP threads

MPI task timing breakdown:
Section |  min time  |  avg time  |  max time  |%varavg| %total
---------------------------------------------------------------
Pair    | 1.2295     | 1.2494     | 1.2692     |   1.8 | 54.14
Neigh   | 0.0089631  | 0.0089777  | 0.0089922  |   0.0 |  0.39
Comm    | 0.36164    | 0.36807    | 0.3745     |   1.1 | 15.95
Output  | 0.00036669 | 0.00097942 | 0.0015922  |   2.0 |  0.04
Modify  | 0.24172    | 0.24943    | 0.25715    |   1.5 | 10.81
Other   |            | 0.4309     |            |       | 18.67

Nlocal:    135.5 ave 148 max 123 min
Histogram: 1 0 0 0 0 0 0 0 0 1
Nghost:    214.5 ave 217 max 212 min
Histogram: 1 0 0 0 0 0 0 0 0 1
Neighs:    710 ave 769 max 651 min
Histogram: 1 0 0 0 0 0 0 0 0 1

Total # of neighbors = 1420
Ave neighs/atom = 5.23985
Neighbor list builds = 21
Dangerous builds = 0
