LAMMPS (5 Nov 2016)
# NUFEB simulation

atom_style	bio
atom_modify	map array sort 1000 5.0e-7
boundary	ff ff ff
newton		off
#processors  2 1 1

comm_modify	vel yes
read_data_bio atom.in
  orthogonal box = (0 0 0) to (0.0001 0.0001 0.0001)
  1 by 1 by 1 MPI processor grid
  reading atoms ...
  3 atoms
  10 nutrients

group AOB type 1
1 atoms in group AOB
group NOB type 2
1 atoms in group NOB
group COMM type 3
1 atoms in group COMM

neighbor	5.0e-7 bin
neigh_modify	delay 0 one 5000

#pair_style none
pair_style  gran/hooke/history 0.000200 NULL 0.000050 NULL 0.0 1

pair_coeff  * *
timestep 36

fix 1 all nve/limit 1e-8

#fix	 2 all gravity 1.47 vector 0 0 -1 # spherical 90.0 -180.0
#fix     3 all fdrag
fix 10 all viscous 0.1


fix xw all wall/gran hooke/history 2000 NULL 500.0 NULL 1.5 0 xplane  0.0   1.0e-04
fix yw all wall/gran hooke/history 2000 NULL 500.0 NULL 1.5 0 yplane  0.0   1.0e-04
fix zw all wall/gran hooke/history 2000 NULL 500.0 NULL 1.5 0 zplane  0.0   1.0e-04

variable kanc equal 50

fix xwa all walladh v_kanc xplane  0.0   1.0e-04
fix ywa all walladh v_kanc yplane  0.0   1.0e-04
fix zwa all walladh v_kanc zplane  0.0   1.0e-04

##############Ibm Variable Definitions##############

#Defining EPS density and ratio variables
variable EPSdens equal 30
variable EPSratio equal 1.25

variable ke equal 5e+10

#Defining kinetics variables
variable temp equal 298.15
variable gasTran equal 0.08205746
variable gvol equal 8e-14
variable rth equal 0.0083144
variable pressure equal 1
variable ph equal 7.0

#Defining diffusion variables
variable diffT equal 1e-6
variable tol equal 5e-10

##############Ibm functions##############

fix k1 all kinetics 25 25 25 v_temp v_rth v_gvol v_gasTran v_ph
fix g1 all diffusion exp v_diffT v_tol pp pp nd
#fix ki3 all kinetics/ph 1
fix ki2 all kinetics/thermo 1 fix open v_pressure
fix ki1 all kinetics/monod 1 v_EPSdens
fix d1 all divide 1 v_EPSdens 1 31231

#fix j1 all epsadh 1 v_ke 1
#fix e1 HET eps_extract 16 v_EPSratio v_EPSdens 1242242

##############Ibm compute##############

compute myMass all biomass
compute myNtypes all ntypes

##############Simulation outputs##############

#dump		id all custom 250 snapshot.bubblemd id type diameter x y z
dump            d0 all bio 500 biomass
thermo_style    custom step cpu atoms biomass c_myNtypes[*] c_myMass[2]
thermo		5
thermo_modify	lost ignore

run  5000
Neighbor list info ...
  2 neighbor list requests
  update every 1 steps, delay 0 steps, check yes
  max neighbors/atom: 5000, page size: 100000
  master list distance cutoff = 1.466e-06
  ghost atom cutoff = 1.466e-06
  binsize = 7.33e-07 -> bins = 137 137 137
Memory usage per processor = 18.9946 Mbytes
Step CPU Atoms biomass c_myNtypes[1] c_myNtypes[2] c_myNtypes[3] c_myMass[2] 
       0            0        3 4.1062866e-16            1            1            1 1.3687622e-16 
       5     22.57836        3 4.1151573e-16            1            1            1 1.3680774e-16 
      10     24.34236        3 4.1240617e-16            1            1            1 1.3673929e-16 
      15    25.912154        3 4.1329999e-16            1            1            1 1.3667088e-16 
      20    27.312824        3 4.1419721e-16            1            1            1 1.3660251e-16 
      25    28.611605        3 4.1509783e-16            1            1            1 1.3653417e-16 
      30    29.964769        3 4.1600188e-16            1            1            1 1.3646586e-16 
      35    31.156103        3 4.1690935e-16            1            1            1 1.3639758e-16 
      40    32.301447        3 4.1782026e-16            1            1            1 1.3632934e-16 
      45    33.411064        3 4.1873463e-16            1            1            1 1.3626114e-16 
      50    34.518623        3 4.1965246e-16            1            1            1 1.3619297e-16 
      55    35.600966        3 4.2057377e-16            1            1            1 1.3612483e-16 
      60    36.690453        3 4.2149857e-16            1            1            1 1.3605673e-16 
      65    37.739843        3 4.2242687e-16            1            1            1 1.3598866e-16 
      70    38.771998        3 4.2335868e-16            1            1            1 1.3592062e-16 
      75    39.804269        3 4.2429402e-16            1            1            1 1.3585262e-16 
      80    40.808662        3 4.252329e-16            1            1            1 1.3578465e-16 
      85    41.818384        3 4.2617533e-16            1            1            1 1.3571672e-16 
      90    42.851674        3 4.2712132e-16            1            1            1 1.3564882e-16 
      95    43.844702        3 4.2807088e-16            1            1            1 1.3558096e-16 
     100    44.845561        3 4.2902403e-16            1            1            1 1.3551313e-16 
     105    45.845683        3 4.2998079e-16            1            1            1 1.3544533e-16 
     110    46.851044        3 4.3094115e-16            1            1            1 1.3537757e-16 
     115    47.862464        3 4.3190514e-16            1            1            1 1.3530984e-16 
     120     48.86009        3 4.3287276e-16            1            1            1 1.3524214e-16 
     125    49.849693        3 4.3384403e-16            1            1            1 1.3517448e-16 
     130    50.827246        3 4.3481897e-16            1            1            1 1.3510685e-16 
     135    51.829911        3 4.3579758e-16            1            1            1 1.3503926e-16 
     140    52.861808        3 4.3677988e-16            1            1            1 1.349717e-16 
     145    53.894172        3 4.3776588e-16            1            1            1 1.3490417e-16 
     150    54.862623        4 4.3875559e-16            2            1            1 1.3483668e-16 
     155    55.814812        5 4.3974903e-16            2            1            2 1.3476922e-16 
     160    56.776778        5 4.407462e-16            2            1            2 1.3470179e-16 
     165    57.768633        5 4.4174713e-16            2            1            2 1.346344e-16 
     170    58.734266        5 4.4275182e-16            2            1            2 1.3456705e-16 
     175    59.712713        5 4.4376029e-16            2            1            2 1.3449972e-16 
     180     60.67871        5 4.4477255e-16            2            1            2 1.3443243e-16 
     185    61.683832        5 4.4578861e-16            2            1            2 1.3436517e-16 
     190    62.652557        5 4.468085e-16            2            1            2 1.3429795e-16 
     195     63.61068        5 4.4783221e-16            2            1            2 1.3423076e-16 
     200    64.633793        5 4.4885976e-16            2            1            2 1.3416361e-16 
     205    65.622009        5 4.4989117e-16            2            1            2 1.3409649e-16 
     210     66.63209        5 4.5092645e-16            2            1            2 1.340294e-16 
     215    67.612132        5 4.5196562e-16            2            1            2 1.3396234e-16 
     220     68.56742        5 4.5300868e-16            2            1            2 1.3389532e-16 
     225    69.540307        5 4.5405565e-16            2            1            2 1.3382833e-16 
     230    70.519885        5 4.5510655e-16            2            1            2 1.3376138e-16 
     235    71.508897        5 4.5616138e-16            2            1            2 1.3369446e-16 
     240    72.486872        5 4.5722017e-16            2            1            2 1.3362757e-16 
     245    73.481846        5 4.5828291e-16            2            1            2 1.3356072e-16 
     250    74.448881        5 4.5934964e-16            2            1            2 1.334939e-16 
     255    75.444307        5 4.6042036e-16            2            1            2 1.3342711e-16 
     260    76.454951        5 4.6149509e-16            2            1            2 1.3336036e-16 
     265    77.450728        5 4.6257383e-16            2            1            2 1.3329364e-16 
     270    78.434156        5 4.6365661e-16            2            1            2 1.3322695e-16 
     275    79.415468        5 4.6474344e-16            2            1            2 1.3316029e-16 
     280    80.401055        5 4.6583433e-16            2            1            2 1.3309367e-16 
     285    81.378544        5 4.6692929e-16            2            1            2 1.3302709e-16 
     290    82.387077        5 4.6802835e-16            2            1            2 1.3296053e-16 
     295    83.478251        5 4.6913151e-16            2            1            2 1.3289401e-16 
     300    84.459719        5 4.7023878e-16            2            1            2 1.3282753e-16 
     305     85.44556        5 4.7135019e-16            2            1            2 1.3276107e-16 
     310      86.4348        5 4.7246575e-16            2            1            2 1.3269465e-16 
     315    87.416071        5 4.7358547e-16            2            1            2 1.3262827e-16 
     320    88.411231        5 4.7470936e-16            2            1            2 1.3256191e-16 
     325    89.410157        5 4.7583745e-16            2            1            2 1.3249559e-16 
     330    90.390276        5 4.7696973e-16            2            1            2 1.324293e-16 
     335    91.360603        5 4.7810624e-16            2            1            2 1.3236305e-16 
     340     92.35839        5 4.7924698e-16            2            1            2 1.3229683e-16 
     345    93.350041        5 4.8039197e-16            2            1            2 1.3223064e-16 
     350    94.330558        5 4.8154122e-16            2            1            2 1.3216449e-16 
     355    95.311101        5 4.8269476e-16            2            1            2 1.3209836e-16 
     360    96.305396        5 4.8385258e-16            2            1            2 1.3203228e-16 
     365    97.292176        5 4.8501471e-16            2            1            2 1.3196622e-16 
     370    98.332494        5 4.8618116e-16            2            1            2 1.319002e-16 
     375    99.362218        5 4.8735195e-16            2            1            2 1.3183421e-16 
     380    100.39485        5 4.885271e-16            2            1            2 1.3176825e-16 
     385    101.43553        5 4.8970661e-16            2            1            2 1.3170233e-16 
     390    102.62542        5 4.908905e-16            2            1            2 1.3163644e-16 
     395    103.66685        5 4.9207879e-16            2            1            2 1.3157058e-16 
     400    104.73505        5 4.932715e-16            2            1            2 1.3150475e-16 
     405    105.72885        5 4.9446863e-16            2            1            2 1.3143896e-16 
     410    106.75525        5 4.9567021e-16            2            1            2 1.313732e-16 
     415    107.79103        5 4.9687624e-16            2            1            2 1.3130748e-16 
     420    108.81026        5 4.9808675e-16            2            1            2 1.3124178e-16 
     425    109.82828        5 4.9930175e-16            2            1            2 1.3117612e-16 
     430    110.83607        5 5.0052126e-16            2            1            2 1.311105e-16 
     435    111.85612        5 5.0174529e-16            2            1            2 1.310449e-16 
     440    112.87094        5 5.0297385e-16            2            1            2 1.3097934e-16 
     445    113.89939        5 5.0420697e-16            2            1            2 1.3091381e-16 
     450    114.92495        5 5.0544466e-16            2            1            2 1.3084831e-16 
     455    115.95063        5 5.0668693e-16            2            1            2 1.3078285e-16 
     460    116.98662        5 5.079338e-16            2            1            2 1.3071742e-16 
     465    118.05377        5 5.0918528e-16            2            1            2 1.3065202e-16 
     470    119.09394        5 5.104414e-16            2            1            2 1.3058666e-16 
     475    120.13471        5 5.1170217e-16            2            1            2 1.3052133e-16 
     480     121.1741        5 5.129676e-16            2            1            2 1.3045603e-16 
     485    122.24808        5 5.1423771e-16            2            1            2 1.3039076e-16 
     490    123.36047        5 5.1551251e-16            2            1            2 1.3032552e-16 
     495    124.42154        5 5.1679204e-16            2            1            2 1.3026032e-16 
     500    125.48282        5 5.1807629e-16            2            1            2 1.3019515e-16 
     505    126.52761        5 5.1936528e-16            2            1            2 1.3013002e-16 
     510    127.57337        5 5.2065904e-16            2            1            2 1.3006491e-16 
     515    128.63677        5 5.2195757e-16            2            1            2 1.2999984e-16 
     520    129.76641        5 5.2326091e-16            2            1            2 1.299348e-16 
     525    130.84439        5 5.2456905e-16            2            1            2 1.298698e-16 
     530    131.92114        5 5.2588202e-16            2            1            2 1.2980482e-16 
     535    132.99638        5 5.2719984e-16            2            1            2 1.2973988e-16 
     540    134.08001        5 5.2852252e-16            2            1            2 1.2967497e-16 
     545    135.15593        5 5.2985007e-16            2            1            2 1.296101e-16 
     550    136.23407        5 5.3118253e-16            2            1            2 1.2954525e-16 
     555    137.38769        5 5.3251989e-16            2            1            2 1.2948044e-16 
     560    138.50631        5 5.3386219e-16            2            1            2 1.2941566e-16 
     565    139.63417        5 5.3520943e-16            2            1            2 1.2935091e-16 
     570    140.73687        5 5.3656164e-16            2            1            2 1.292862e-16 
     575    141.87294        5 5.3791883e-16            2            1            2 1.2922152e-16 
     580    143.10626        5 5.3928102e-16            2            1            2 1.2915687e-16 
     585    144.22117        5 5.4064822e-16            2            1            2 1.2909225e-16 
     590    145.30845        5 5.4202046e-16            2            1            2 1.2902767e-16 
     595    146.42524        5 5.4339774e-16            2            1            2 1.2896311e-16 
     600    147.52818        5 5.447801e-16            2            1            2 1.2889859e-16 
     605    148.64052        5 5.4616754e-16            2            1            2 1.2883411e-16 
     610    149.76632        5 5.4756008e-16            2            1            2 1.2876965e-16 
     615    150.88038        5 5.4895775e-16            2            1            2 1.2870523e-16 
     620    151.99138        5 5.5036055e-16            2            1            2 1.2864084e-16 
     625     153.1136        5 5.5176852e-16            2            1            2 1.2857648e-16 
     630    154.24603        5 5.5318165e-16            2            1            2 1.2851215e-16 
     635      155.381        5 5.5459998e-16            2            1            2 1.2844786e-16 
     640    156.51122        5 5.5602352e-16            2            1            2 1.2838359e-16 
     645    157.64213        5 5.5745229e-16            2            1            2 1.2831936e-16 
     650     158.7825        5 5.5888631e-16            2            1            2 1.2825516e-16 
     655    159.94433        5 5.6032559e-16            2            1            2  1.28191e-16 
     660    161.10105        5 5.6177015e-16            2            1            2 1.2812686e-16 
     665    162.27258        5 5.6322002e-16            2            1            2 1.2806276e-16 
     670    163.43301        5 5.646752e-16            2            1            2 1.2799869e-16 
     675    164.61127        5 5.6613573e-16            2            1            2 1.2793465e-16 
     680    165.77039        5 5.6760161e-16            2            1            2 1.2787065e-16 
     685    166.94221        5 5.6907286e-16            2            1            2 1.2780668e-16 
     690    168.10677        5 5.7054951e-16            2            1            2 1.2774273e-16 
     695    169.28734        5 5.7203158e-16            2            1            2 1.2767882e-16 
     700    170.53504        5 5.7351908e-16            2            1            2 1.2761495e-16 
     705     171.7082        5 5.7501202e-16            2            1            2 1.275511e-16 
     710     172.9024        5 5.7651044e-16            2            1            2 1.2748729e-16 
     715    174.14246        5 5.7801434e-16            2            1            2 1.2742351e-16 
     720     175.3356        5 5.7952376e-16            2            1            2 1.2735976e-16 
     725    176.54622        5 5.810387e-16            2            1            2 1.2729604e-16 
     730    177.73737        5 5.8255918e-16            2            1            2 1.2723235e-16 
     735    178.92413        5 5.8408523e-16            2            1            2 1.271687e-16 
     740    180.10532        5 5.8561687e-16            2            1            2 1.2710507e-16 
     745    181.37582        5 5.8715411e-16            2            1            2 1.2704148e-16 
     750    182.59409        5 5.8869697e-16            2            1            2 1.2697792e-16 
     755    183.81677        5 5.9024547e-16            2            1            2 1.269144e-16 
     760    185.03114        5 5.9179964e-16            2            1            2 1.268509e-16 
     765    186.23376        5 5.9335949e-16            2            1            2 1.2678744e-16 
     770    187.43899        5 5.9492504e-16            2            1            2 1.2672401e-16 
     775    188.66875        5 5.9649632e-16            2            1            2 1.2666061e-16 
     780    189.91449        5 5.9807333e-16            2            1            2 1.2659724e-16 
     785    191.15551        5 5.9965611e-16            2            1            2 1.265339e-16 
     790    192.37801        5 6.0124467e-16            2            1            2 1.264706e-16 
     795    193.62069        5 6.0283902e-16            2            1            2 1.2640732e-16 
     800    194.87969        5 6.0443921e-16            2            1            2 1.2634408e-16 
     805    196.15877        5 6.0604523e-16            2            1            2 1.2628087e-16 
     810    197.44857        5 6.0765711e-16            2            1            2 1.2621769e-16 
     815    198.71376        5 6.0927488e-16            2            1            2 1.2615455e-16 
     820    199.98794        5 6.1089855e-16            2            1            2 1.2609143e-16 
     825    201.26051        5 6.1252815e-16            2            1            2 1.2602835e-16 
     830    202.54591        5 6.1416369e-16            2            1            2 1.259653e-16 
     835    203.84787        5 6.1580519e-16            2            1            2 1.2590228e-16 
     840    205.11512        5 6.1745268e-16            2            1            2 1.2583929e-16 
     845    206.45855        5 6.1910617e-16            2            1            2 1.2577633e-16 
     850    207.76332        5 6.2076569e-16            2            1            2 1.257134e-16 
     855    209.04741        5 6.2243126e-16            2            1            2 1.2565051e-16 
     860    210.32923        5 6.241029e-16            2            1            2 1.2558765e-16 
     865    211.63104        5 6.2578063e-16            2            1            2 1.2552482e-16 
     870    212.91115        5 6.2746447e-16            2            1            2 1.2546202e-16 
     875    214.21701        5 6.2915444e-16            2            1            2 1.2539925e-16 
     880    215.54819        5 6.3085057e-16            2            1            2 1.2533651e-16 
     885    216.93879        5 6.3255287e-16            2            1            2 1.252738e-16 
     890    218.33373        5 6.3426137e-16            2            1            2 1.2521113e-16 
     895    219.69192        5 6.3597609e-16            2            1            2 1.2514849e-16 
     900    221.02941        5 6.3769704e-16            2            1            2 1.2508587e-16 
     905    222.35295        5 6.3942426e-16            2            1            2 1.2502329e-16 
     910    223.71968        5 6.4115776e-16            2            1            2 1.2496075e-16 
     915    225.08762        5 6.4289757e-16            2            1            2 1.2489823e-16 
     920    226.47474        5 6.446437e-16            2            1            2 1.2483574e-16 
     925    227.90589        5 6.4639618e-16            2            1            2 1.2477329e-16 
     930    229.31179        5 6.4815504e-16            2            1            2 1.2471086e-16 
     935    230.79064        5 6.4992028e-16            2            1            2 1.2464847e-16 
     940    232.11835        5 6.5169194e-16            2            1            2 1.2458611e-16 
     945    233.49907        5 6.5347004e-16            2            1            2 1.2452378e-16 
     950    234.91047        5 6.552546e-16            2            1            2 1.2446148e-16 
     955    236.32162        6 6.5704564e-16            2            1            3 1.2439921e-16 
     960    237.71832        6 6.5884319e-16            2            1            3 1.2433697e-16 
     965    239.09506        6 6.6064726e-16            2            1            3 1.2427477e-16 
     970     240.4549        6 6.6245789e-16            2            1            3 1.2421259e-16 
     975    241.81788        6 6.6427508e-16            2            1            3 1.2415045e-16 
     980    243.17812        6 6.6609888e-16            2            1            3 1.2408834e-16 
     985    244.53696        6 6.6792929e-16            2            1            3 1.2402625e-16 
     990    245.90285        7 6.6976634e-16            3            1            3 1.239642e-16 
     995    247.27424        7 6.7161006e-16            3            1            3 1.2390218e-16 
    1000    248.65668        7 6.7346047e-16            3            1            3 1.238402e-16 
    1005    250.09177        7 6.7531759e-16            3            1            3 1.2377824e-16 
    1010    251.49968        7 6.7718144e-16            3            1            3 1.2371631e-16 
    1015    252.92346        7 6.7905205e-16            3            1            3 1.2365442e-16 
    1020    254.33729        7 6.8092944e-16            3            1            3 1.2359255e-16 
    1025    255.76181        7 6.8281364e-16            3            1            3 1.2353072e-16 
    1030      257.186        7 6.8470467e-16            3            1            3 1.2346892e-16 
    1035    258.59513        7 6.8660255e-16            3            1            3 1.2340715e-16 
    1040    260.03974        7 6.885073e-16            3            1            3 1.2334541e-16 
    1045     261.4449        7 6.9041896e-16            3            1            3 1.232837e-16 
    1050    262.99575        7 6.9233754e-16            3            1            3 1.2322202e-16 
    1055    264.48662        7 6.9426306e-16            3            1            3 1.2316037e-16 
    1060     265.9654        7 6.9619557e-16            3            1            3 1.2309875e-16 
    1065    267.43617        7 6.9813506e-16            3            1            3 1.2303717e-16 
    1070     268.8695        7 7.0008158e-16            3            1            3 1.2297561e-16 
    1075    270.32176        7 7.0203514e-16            3            1            3 1.2291409e-16 
    1080    271.75666        7 7.0399578e-16            3            1            3 1.2285259e-16 
    1085    273.21358        7 7.0596351e-16            3            1            3 1.2279113e-16 
    1090    274.90793        7 7.0793835e-16            3            1            3 1.227297e-16 
    1095    276.61625        7 7.0992035e-16            3            1            3 1.2266829e-16 
    1100    278.35192        7 7.1190951e-16            3            1            3 1.2260692e-16 
    1105    280.23048        7 7.1390586e-16            3            1            3 1.2254558e-16 
    1110    281.92484        7 7.1590943e-16            3            1            3 1.2248427e-16 
    1115    283.64518        7 7.1792025e-16            3            1            3  1.22423e-16 
    1120    285.34489        7 7.1993834e-16            3            1            3 1.2236175e-16 
    1125    287.05444        7 7.2196372e-16            3            1            3 1.2230053e-16 
    1130    288.80233        7 7.2399642e-16            3            1            3 1.2223934e-16 
    1135     290.5255        7 7.2603646e-16            3            1            3 1.2217819e-16 
    1140    292.30188        7 7.2808388e-16            3            1            3 1.2211706e-16 
    1145    293.88521        7 7.3013869e-16            3            1            3 1.2205597e-16 
    1150    295.50163        7 7.3220093e-16            3            1            3 1.219949e-16 
    1155    297.25814        7 7.3427061e-16            3            1            3 1.2193387e-16 
    1160    298.78362        7 7.3634776e-16            3            1            3 1.2187286e-16 
    1165    300.35751        7 7.3843242e-16            3            1            3 1.2181189e-16 
    1170    301.95959        7 7.405246e-16            3            1            3 1.2175095e-16 
    1175    303.48138        7 7.4262434e-16            3            1            3 1.2169004e-16 
    1180    304.97384        7 7.4473165e-16            3            1            3 1.2162915e-16 
    1185    306.53612        7 7.4684656e-16            3            1            3 1.215683e-16 
    1190    308.10753        7 7.4896911e-16            3            1            3 1.2150748e-16 
    1195    309.69364        7 7.5109932e-16            3            1            3 1.2144669e-16 
    1200    311.23088        7 7.5323721e-16            3            1            3 1.2138593e-16 
    1205    312.77769        7 7.5538281e-16            3            1            3 1.213252e-16 
    1210    314.33777        7 7.5753615e-16            3            1            3 1.212645e-16 
    1215    315.89255        7 7.5969725e-16            3            1            3 1.2120384e-16 
    1220    317.53506        7 7.6186615e-16            3            1            3 1.211432e-16 
    1225    319.10047        7 7.6404286e-16            3            1            3 1.2108259e-16 
    1230    320.69918        7 7.6622743e-16            3            1            3 1.2102201e-16 
    1235     322.2936        7 7.6841986e-16            3            1            3 1.2096147e-16 
    1240    323.94201        7 7.706202e-16            3            1            3 1.2090095e-16 
    1245     325.5272        7 7.7282846e-16            3            1            3 1.2084046e-16 
    1250     327.0346        7 7.7504468e-16            3            1            3 1.2078001e-16 
    1255    328.56147        7 7.7726888e-16            3            1            3 1.2071958e-16 
    1260    330.10094        7 7.795011e-16            3            1            3 1.2065918e-16 
    1265     331.6267        7 7.8174135e-16            3            1            3 1.2059882e-16 
    1270    333.14698        7 7.8398967e-16            3            1            3 1.2053848e-16 
    1275    334.67567        8 7.8624609e-16            4            1            3 1.2047818e-16 
    1280     336.2059        8 7.8851063e-16            4            1            3 1.204179e-16 
    1285     337.7414        8 7.9078332e-16            4            1            3 1.2035766e-16 
    1290    339.29579        8 7.9306419e-16            4            1            3 1.2029744e-16 
    1295    340.84724        8 7.9535327e-16            4            1            3 1.2023726e-16 
    1300    342.44409        8 7.9765059e-16            4            1            3 1.201771e-16 
    1305    344.02414        8 7.9995617e-16            4            1            3 1.2011698e-16 
    1310    345.58952        8 8.0227005e-16            4            1            3 1.2005688e-16 
    1315    347.15413        8 8.0459225e-16            4            1            3 1.1999682e-16 
    1320    348.73128        8 8.0692281e-16            4            1            3 1.1993678e-16 
    1325    350.32309        8 8.0926174e-16            4            1            3 1.1987678e-16 
    1330    351.89706        8 8.1160909e-16            4            1            3 1.1981681e-16 
    1335    353.47253        8 8.1396488e-16            4            1            3 1.1975686e-16 
    1340    355.05307        8 8.1632913e-16            4            1            3 1.1969695e-16 
    1345    356.63795        8 8.1870189e-16            4            1            3 1.1963706e-16 
    1350    358.24535        8 8.2108317e-16            4            1            3 1.1957721e-16 
    1355    359.89128        8 8.2347301e-16            4            1            3 1.1951738e-16 
    1360     361.4981        8 8.2587144e-16            4            1            3 1.1945759e-16 
    1365    363.11162        8 8.2827849e-16            4            1            3 1.1939782e-16 
    1370    364.72361        8 8.3069418e-16            4            1            3 1.1933809e-16 
    1375    366.32921        8 8.3311855e-16            4            1            3 1.1927839e-16 
    1380    367.95257        8 8.3555163e-16            4            1            3 1.1921871e-16 
    1385    369.57765        8 8.3799345e-16            4            1            3 1.1915907e-16 
    1390    371.21617        8 8.4044404e-16            4            1            3 1.1909945e-16 
    1395     372.9551        8 8.4290343e-16            4            1            3 1.1903986e-16 
    1400    374.60124        8 8.4537164e-16            4            1            3 1.1898031e-16 
    1405    376.31772        8 8.4784872e-16            4            1            3 1.1892078e-16 
    1410    377.96917        8 8.5033469e-16            4            1            3 1.1886129e-16 
    1415    379.63918        8 8.5282958e-16            4            1            3 1.1880182e-16 
    1420    381.28327        8 8.5533343e-16            4            1            3 1.1874238e-16 
    1425    382.98687        8 8.5784626e-16            4            1            3 1.1868298e-16 
    1430    384.65738        9 8.6036811e-16            4            1            4 1.186236e-16 
    1435    386.30961        9  8.62899e-16            4            1            4 1.1856425e-16 
    1440    387.99443        9 8.6543897e-16            4            1            4 1.1850494e-16 
    1445    389.70668        9 8.6798805e-16            4            1            4 1.1844565e-16 
    1450    391.36463        9 8.7054628e-16            4            1            4 1.1838639e-16 
    1455    393.06354        9 8.7311368e-16            4            1            4 1.1832716e-16 
    1460    394.77581        9 8.7569029e-16            4            1            4 1.1826796e-16 
    1465      396.507        9 8.7827613e-16            4            1            4 1.1820879e-16 
    1470    398.18658        9 8.8087124e-16            4            1            4 1.1814965e-16 
    1475    399.87805        9 8.8347566e-16            4            1            4 1.1809054e-16 
    1480     401.6373        9 8.8608941e-16            4            1            4 1.1803146e-16 
    1485    403.35536        9 8.8871253e-16            4            1            4 1.1797241e-16 
    1490    405.10583        9 8.9134505e-16            4            1            4 1.1791339e-16 
    1495    406.89704        9  8.93987e-16            4            1            4 1.178544e-16 
    1500    408.66054        9 8.9663842e-16            4            1            4 1.1779544e-16 
    1505     410.4166        9 8.9929934e-16            4            1            4 1.177365e-16 
    1510    412.14603        9 9.0196978e-16            4            1            4 1.176776e-16 
    1515     413.9132        9 9.046498e-16            4            1            4 1.1761872e-16 
    1520    415.64485        9 9.0733941e-16            4            1            4 1.1755988e-16 
    1525    417.37599        9 9.1003865e-16            4            1            4 1.1750107e-16 
    1530    419.11363        9 9.1274756e-16            4            1            4 1.1744228e-16 
    1535      420.856        9 9.1546617e-16            4            1            4 1.1738352e-16 
    1540    422.60254        9 9.1819451e-16            4            1            4 1.173248e-16 
    1545    424.36259        9 9.2093261e-16            4            1            4 1.172661e-16 
    1550     426.1304        9 9.2368052e-16            4            1            4 1.1720743e-16 
    1555    427.89196        9 9.2643826e-16            4            1            4 1.1714879e-16 
    1560    429.66147        9 9.2920587e-16            4            1            4 1.1709018e-16 
    1565      431.442        9 9.3198339e-16            4            1            4 1.170316e-16 
    1570    433.25665        9 9.3477084e-16            4            1            4 1.1697305e-16 
    1575    435.07932        9 9.3756826e-16            4            1            4 1.1691453e-16 
    1580    436.89653        9 9.4037569e-16            4            1            4 1.1685604e-16 
    1585    438.68708        9 9.4319317e-16            4            1            4 1.1679757e-16 
    1590    440.48487        9 9.4602072e-16            4            1            4 1.1673914e-16 
    1595    442.28764        9 9.4885838e-16            4            1            4 1.1668074e-16 
    1600    444.15171        9 9.5170619e-16            4            1            4 1.1662236e-16 
    1605    446.02843        9 9.5456418e-16            4            1            4 1.1656402e-16 
    1610    447.88948        9 9.5743239e-16            4            1            4 1.165057e-16 
    1615    449.73659        9 9.6031086e-16            4            1            4 1.1644741e-16 
    1620    451.57665        9 9.6319961e-16            4            1            4 1.1638915e-16 
    1625    453.42295        9 9.6609869e-16            4            1            4 1.1633092e-16 
    1630    455.29324        9 9.6900813e-16            4            1            4 1.1627272e-16 
    1635    457.13967        9 9.7192797e-16            4            1            4 1.1621455e-16 
    1640    458.98855        9 9.7485824e-16            4            1            4 1.1615641e-16 
    1645    460.84741        9 9.7779898e-16            4            1            4 1.160983e-16 
    1650     462.7098        9 9.8075023e-16            4            1            4 1.1604021e-16 
    1655     464.5782        9 9.8371202e-16            4            1            4 1.1598216e-16 
    1660    466.45596        9 9.8668439e-16            4            1            4 1.1592413e-16 
    1665    468.34061        9 9.8966738e-16            4            1            4 1.1586614e-16 
    1670    470.24253        9 9.9266102e-16            4            1            4 1.1580817e-16 
    1675    472.15534        9 9.9566535e-16            4            1            4 1.1575023e-16 
    1680    474.07393        9 9.9868041e-16            4            1            4 1.1569232e-16 
    1685    475.99126        9 1.0017062e-15            4            1            4 1.1563444e-16 
    1690    477.89861        9 1.0047429e-15            4            1            4 1.1557659e-16 
    1695    479.81043        9 1.0077903e-15            4            1            4 1.1551876e-16 
    1700      481.728        9 1.0108487e-15            4            1            4 1.1546097e-16 
    1705    483.65085        9 1.0139179e-15            4            1            4 1.1540321e-16 
    1710    485.57528        9 1.0169982e-15            4            1            4 1.1534547e-16 
    1715    487.58119        9 1.0200894e-15            4            1            4 1.1528776e-16 
    1720    489.51626        9 1.0231916e-15            4            1            4 1.1523008e-16 
    1725    491.46366        9 1.0263049e-15            4            1            4 1.1517244e-16 
    1730    493.41874        9 1.0294293e-15            4            1            4 1.1511481e-16 
    1735    495.39394        9 1.0325649e-15            4            1            4 1.1505722e-16 
    1740    497.37221        9 1.0357117e-15            4            1            4 1.1499966e-16 
    1745    499.35668        9 1.0388696e-15            4            1            4 1.1494213e-16 
    1750    501.34868        9 1.0420389e-15            4            1            4 1.1488462e-16 
    1755    503.38959        9 1.0452194e-15            4            1            4 1.1482714e-16 
    1760    505.42254        9 1.0484113e-15            4            1            4 1.147697e-16 
    1765    507.44559        9 1.0516146e-15            4            1            4 1.1471228e-16 
    1770    509.45383        9 1.0548292e-15            4            1            4 1.1465489e-16 
    1775    511.47688        9 1.0580554e-15            4            1            4 1.1459753e-16 
    1780    513.54483        9 1.061293e-15            4            1            4 1.1454019e-16 
    1785    515.62597        9 1.0645422e-15            4            1            4 1.1448289e-16 
    1790    517.71704        9 1.067803e-15            4            1            4 1.1442561e-16 
    1795    519.79767        9 1.0710754e-15            4            1            4 1.1436837e-16 
    1800    521.85644        9 1.0743594e-15            4            1            4 1.1431115e-16 
    1805    523.95346        9 1.0776552e-15            4            1            4 1.1425396e-16 
    1810    526.01762        9 1.0809627e-15            4            1            4 1.141968e-16 
    1815    528.07891        9 1.084282e-15            4            1            4 1.1413966e-16 
    1820    530.15513        9 1.0876131e-15            4            1            4 1.1408256e-16 
    1825    532.23489        9 1.0909561e-15            4            1            4 1.1402549e-16 
    1830    534.32293        9 1.0943109e-15            4            1            4 1.1396844e-16 
    1835    536.40411       10 1.0976778e-15            4            1            5 1.1391142e-16 
    1840    538.48164       10 1.1010566e-15            4            1            5 1.1385443e-16 
    1845    540.58123       10 1.1044475e-15            4            1            5 1.1379747e-16 
    1850    542.71398       10 1.1078504e-15            4            1            5 1.1374054e-16 
    1855    544.81555       10 1.1112655e-15            4            1            5 1.1368363e-16 
    1860    546.91909       10 1.1146927e-15            4            1            5 1.1362676e-16 
    1865    549.03348       10 1.1181321e-15            4            1            5 1.1356991e-16 
    1870    551.14911       10 1.1215837e-15            4            1            5 1.1351309e-16 
    1875    553.27072       10 1.1250477e-15            4            1            5 1.134563e-16 
    1880    555.41428       10 1.128524e-15            4            1            5 1.1339954e-16 
    1885    557.56228       10 1.1320126e-15            4            1            5 1.1334281e-16 
    1890    559.71952       10 1.1355137e-15            4            1            5 1.132861e-16 
    1895     561.8819       10 1.1390272e-15            4            1            5 1.1322943e-16 
    1900    564.10741       10 1.1425532e-15            4            1            5 1.1317278e-16 
    1905    566.34119       11 1.1460918e-15            5            1            5 1.1311616e-16 
    1910    568.56715       11 1.1496429e-15            5            1            5 1.1305957e-16 
    1915    570.77345       11 1.1532067e-15            5            1            5  1.13003e-16 
    1920    572.94715       11 1.1567832e-15            5            1            5 1.1294647e-16 
    1925    575.14925       11 1.1603724e-15            5            1            5 1.1288996e-16 
    1930    577.37619       11 1.1639744e-15            5            1            5 1.1283348e-16 
    1935    579.60931       11 1.1675892e-15            5            1            5 1.1277703e-16 
    1940     581.8857       11 1.1712168e-15            5            1            5 1.1272061e-16 
    1945    584.19477       11 1.1748573e-15            5            1            5 1.1266422e-16 
    1950    586.41115       11 1.1785108e-15            5            1            5 1.1260785e-16 
    1955    588.63073       11 1.1821773e-15            5            1            5 1.1255151e-16 
    1960     590.8574       11 1.1858568e-15            5            1            5 1.124952e-16 
    1965    593.09754       11 1.1895493e-15            5            1            5 1.1243892e-16 
    1970    595.37964       11 1.193255e-15            5            1            5 1.1238267e-16 
    1975    597.63601       11 1.1969739e-15            5            1            5 1.1232645e-16 
    1980    599.91823       11 1.200706e-15            5            1            5 1.1227025e-16 
    1985    602.22002       11 1.2044514e-15            5            1            5 1.1221408e-16 
    1990    604.50823       11 1.2082101e-15            5            1            5 1.1215794e-16 
    1995     606.8166       11 1.2119821e-15            5            1            5 1.1210183e-16 
    2000    609.13192       11 1.2157676e-15            5            1            5 1.1204574e-16 
    2005    611.48085       11 1.2195664e-15            5            1            5 1.1198969e-16 
    2010    613.79884       11 1.2233788e-15            5            1            5 1.1193366e-16 
    2015    616.09448       11 1.2272048e-15            5            1            5 1.1187766e-16 
    2020    618.47019       12 1.2310443e-15            6            1            5 1.1182169e-16 
    2025      620.821       12 1.2348975e-15            6            1            5 1.1176575e-16 
    2030    623.21539       12 1.2387643e-15            6            1            5 1.1170983e-16 
    2035    625.53768       12 1.2426449e-15            6            1            5 1.1165394e-16 
    2040    627.92499       12 1.2465393e-15            6            1            5 1.1159808e-16 
    2045    630.29099       12 1.2504475e-15            6            1            5 1.1154225e-16 
    2050    632.68382       13 1.2543695e-15            7            1            5 1.1148645e-16 
    2055    635.09642       13 1.2583055e-15            7            1            5 1.1143067e-16 
    2060    637.51288       13 1.2622555e-15            7            1            5 1.1137492e-16 
    2065    639.90846       13 1.2662195e-15            7            1            5 1.113192e-16 
    2070    642.29751       13 1.2701976e-15            7            1            5 1.1126351e-16 
    2075    644.69699       13 1.2741898e-15            7            1            5 1.1120784e-16 
    2080    647.08556       13 1.2781962e-15            7            1            5 1.1115221e-16 
    2085    649.49551       13 1.2822168e-15            7            1            5 1.110966e-16 
    2090    652.04494       13 1.2862516e-15            7            1            5 1.1104102e-16 
    2095    654.46703       13 1.2903008e-15            7            1            5 1.1098546e-16 
    2100    656.89155       13 1.2943644e-15            7            1            5 1.1092994e-16 
    2105    659.34204       13 1.2984424e-15            7            1            5 1.1087444e-16 
    2110    661.79478       13 1.3025348e-15            7            1            5 1.1081897e-16 
    2115    664.24625       13 1.3066418e-15            7            1            5 1.1076353e-16 
    2120    666.69551       13 1.3107633e-15            7            1            5 1.1070812e-16 
    2125    669.14711       13 1.3148995e-15            7            1            5 1.1065273e-16 
    2130     671.6193       14 1.3190503e-15            7            1            6 1.1059737e-16 
    2135    674.07832       14 1.3232159e-15            7            1            6 1.1054204e-16 
    2140    676.54791       14 1.3273962e-15            7            1            6 1.1048674e-16 
    2145    679.02834       14 1.3315914e-15            7            1            6 1.1043146e-16 
    2150    681.51589       14 1.3358015e-15            7            1            6 1.1037621e-16 
    2155    684.03753       14 1.3400264e-15            7            1            6 1.1032099e-16 
    2160    686.53803       14 1.3442664e-15            7            1            6 1.102658e-16 
    2165    689.07856       14 1.3485214e-15            7            1            6 1.1021063e-16 
    2170    691.58145       14 1.3527915e-15            7            1            6 1.101555e-16 
    2175    694.08919       14 1.3570767e-15            7            1            6 1.1010039e-16 
    2180    696.60546       14 1.3613772e-15            7            1            6 1.100453e-16 
    2185    699.13177       14 1.3656928e-15            7            1            6 1.0999025e-16 
    2190    701.67225       14 1.3700238e-15            7            1            6 1.0993522e-16 
    2195    704.24811       14 1.3743701e-15            7            1            6 1.0988022e-16 
    2200    706.81228       14 1.3787318e-15            7            1            6 1.0982525e-16 
    2205    709.39089       14 1.383109e-15            7            1            6 1.097703e-16 
    2210      711.996       15 1.3875017e-15            7            1            7 1.0971539e-16 
    2215    714.61264       15  1.39191e-15            7            1            7 1.096605e-16 
    2220    717.23098       15 1.3963339e-15            7            1            7 1.0960564e-16 
    2225    719.84671       15 1.4007735e-15            7            1            7 1.095508e-16 
    2230    722.48633       15 1.4052288e-15            7            1            7 1.0949599e-16 
    2235    725.15701       15 1.4096999e-15            7            1            7 1.0944121e-16 
    2240    727.79766       15 1.4141868e-15            7            1            7 1.0938646e-16 
    2245    730.44259       15 1.4186897e-15            7            1            7 1.0933174e-16 
    2250     733.1058       15 1.4232085e-15            7            1            7 1.0927704e-16 
    2255    735.78745       15 1.4277433e-15            7            1            7 1.0922237e-16 
    2260    738.46503       15 1.4322941e-15            7            1            7 1.0916773e-16 
    2265    741.13591       15 1.4368611e-15            7            1            7 1.0911311e-16 
    2270     743.8517       15 1.4414443e-15            7            1            7 1.0905852e-16 
    2275    746.55113       15 1.4460437e-15            7            1            7 1.0900396e-16 
    2280    749.24678       15 1.4506593e-15            7            1            7 1.0894943e-16 
    2285    751.96277       15 1.4552914e-15            7            1            7 1.0889492e-16 
    2290    754.66081       15 1.4599398e-15            7            1            7 1.0884044e-16 
    2295    757.35368       15 1.4646047e-15            7            1            7 1.0878599e-16 
    2300    760.05401       15 1.4692861e-15            7            1            7 1.0873157e-16 
    2305    762.76261       15 1.4739841e-15            7            1            7 1.0867717e-16 
    2310    765.52654       15 1.4786987e-15            7            1            7 1.086228e-16 
    2315    768.27562       15  1.48343e-15            7            1            7 1.0856846e-16 
    2320    771.00897       15 1.4881781e-15            7            1            7 1.0851414e-16 
    2325    773.76576       15 1.492943e-15            7            1            7 1.0845985e-16 
    2330    776.51679       15 1.4977247e-15            7            1            7 1.0840559e-16 
    2335    779.27138       15 1.5025234e-15            7            1            7 1.0835136e-16 
    2340    782.05092       15 1.507339e-15            7            1            7 1.0829715e-16 
    2345    784.87818       15 1.5121717e-15            7            1            7 1.0824297e-16 
    2350    787.78083       15 1.5170215e-15            7            1            7 1.0818882e-16 
    2355    790.64952       15 1.5218885e-15            7            1            7 1.0813469e-16 
    2360     793.4919       15 1.5267727e-15            7            1            7 1.0808059e-16 
    2365    796.30632       15 1.5316742e-15            7            1            7 1.0802652e-16 
    2370    799.19067       15 1.536593e-15            7            1            7 1.0797248e-16 
    2375    802.07819       15 1.5415292e-15            7            1            7 1.0791846e-16 
    2380    805.07554       15 1.5464829e-15            7            1            7 1.0786447e-16 
    2385    808.07728       15 1.5514541e-15            7            1            7 1.0781051e-16 
    2390    810.95294       15 1.5564429e-15            7            1            7 1.0775657e-16 
    2395    813.91311       15 1.5614493e-15            7            1            7 1.0770266e-16 
    2400    816.82471       15 1.5664735e-15            7            1            7 1.0764878e-16 
    2405    819.88816       15 1.5715154e-15            7            1            7 1.0759492e-16 
    2410    822.91135       15 1.5765752e-15            7            1            7 1.075411e-16 
    2415    825.88445       15 1.5816528e-15            7            1            7 1.0748729e-16 
    2420    828.82436       15 1.5867485e-15            7            1            7 1.0743352e-16 
    2425    831.81614       15 1.5918621e-15            7            1            7 1.0737977e-16 
    2430    834.79272       15 1.5969938e-15            7            1            7 1.0732605e-16 
    2435    837.70692       15 1.6021437e-15            7            1            7 1.0727236e-16 
    2440    840.62094       15 1.6073118e-15            7            1            7 1.0721869e-16 
    2445    843.57321       15 1.6124981e-15            7            1            7 1.0716505e-16 
    2450    846.51219       15 1.6177028e-15            7            1            7 1.0711144e-16 
    2455    849.49722       15 1.6229259e-15            7            1            7 1.0705785e-16 
    2460    852.44852       15 1.6281675e-15            7            1            7 1.0700429e-16 
    2465     855.4166       15 1.6334276e-15            7            1            7 1.0695076e-16 
    2470    858.37966       15 1.6387063e-15            7            1            7 1.0689725e-16 
    2475    861.43719       15 1.6440036e-15            7            1            7 1.0684378e-16 
    2480    864.53999       16 1.6493197e-15            8            1            7 1.0679032e-16 
    2485    867.56214       16 1.6546545e-15            8            1            7 1.067369e-16 
    2490    870.61673       16 1.6600083e-15            8            1            7 1.066835e-16 
    2495    873.71687       16 1.6653809e-15            8            1            7 1.0663013e-16 
    2500    876.81636       16 1.6707725e-15            8            1            7 1.0657678e-16 
    2505    879.91955       16 1.6761832e-15            8            1            7 1.0652346e-16 
    2510    883.01194       16 1.681613e-15            8            1            7 1.0647017e-16 
    2515    886.07349       16 1.687062e-15            8            1            7 1.0641691e-16 
    2520    889.14876       16 1.6925303e-15            8            1            7 1.0636367e-16 
    2525    892.30706       16 1.6980178e-15            8            1            7 1.0631046e-16 
    2530    895.50248       16 1.7035248e-15            8            1            7 1.0625727e-16 
    2535     898.6437       16 1.7090512e-15            8            1            7 1.0620411e-16 
    2540    901.93143       16 1.7145971e-15            8            1            7 1.0615098e-16 
    2545    905.07632       16 1.7201627e-15            8            1            7 1.0609788e-16 
    2550    908.23867       16 1.7257479e-15            8            1            7 1.060448e-16 
    2555     911.4018       16 1.7313528e-15            8            1            7 1.0599175e-16 
    2560    914.61493       16 1.7369775e-15            8            1            7 1.0593872e-16 
    2565    917.81782       16 1.7426221e-15            8            1            7 1.0588572e-16 
    2570    921.08709       16 1.7482866e-15            8            1            7 1.0583275e-16 
    2575    924.46156       16 1.7539712e-15            8            1            7 1.057798e-16 
    2580    927.70981       16 1.7596758e-15            8            1            7 1.0572688e-16 
    2585    930.94264       16 1.7654005e-15            8            1            7 1.0567399e-16 
    2590    934.20791       16 1.7711455e-15            8            1            7 1.0562112e-16 
    2595    937.42051       16 1.7769108e-15            8            1            7 1.0556828e-16 
    2600    940.64063       16 1.7826964e-15            8            1            7 1.0551547e-16 
    2605    943.90862       16 1.7885025e-15            8            1            7 1.0546268e-16 
    2610    947.16208       16 1.794329e-15            8            1            7 1.0540992e-16 
    2615    950.40727       16 1.8001761e-15            8            1            7 1.0535719e-16 
    2620    953.71462       16 1.8060439e-15            8            1            7 1.0530448e-16 
    2625     957.0245       16 1.8119324e-15            8            1            7 1.052518e-16 
    2630    960.37131       16 1.8178417e-15            8            1            7 1.0519915e-16 
    2635    963.73875       16 1.8237718e-15            8            1            7 1.0514652e-16 
    2640    967.16298       16 1.8297229e-15            8            1            7 1.0509392e-16 
    2645    970.47464       16 1.8356949e-15            8            1            7 1.0504134e-16 
    2650    973.86303       16 1.8416881e-15            8            1            7 1.0498879e-16 
    2655    977.22718       16 1.8477024e-15            8            1            7 1.0493627e-16 
    2660     980.6099       16 1.853738e-15            8            1            7 1.0488377e-16 
    2665    984.29605       16 1.8597948e-15            8            1            7 1.048313e-16 
    2670    987.71468       16 1.865873e-15            8            1            7 1.0477885e-16 
    2675    991.22702       16 1.8719727e-15            8            1            7 1.0472644e-16 
    2680    994.67534       16 1.8780939e-15            8            1            7 1.0467404e-16 
    2685    998.09458       16 1.8842367e-15            8            1            7 1.0462168e-16 
    2690    1001.5882       16 1.8904011e-15            8            1            7 1.0456934e-16 
    2695    1005.0996       16 1.8965874e-15            8            1            7 1.0451703e-16 
    2700     1008.538       16 1.9027954e-15            8            1            7 1.0446474e-16 
    2705    1011.9941       16 1.9090254e-15            8            1            7 1.0441248e-16 
    2710    1015.4666       16 1.9152773e-15            8            1            7 1.0436024e-16 
    2715    1018.8968       16 1.9215513e-15            8            1            7 1.0430804e-16 
    2720    1022.3354       16 1.9278474e-15            8            1            7 1.0425585e-16 
    2725    1025.7602       17 1.9341658e-15            8            1            8 1.042037e-16 
    2730    1029.2215       17 1.9405064e-15            8            1            8 1.0415157e-16 
    2735    1032.6746       17 1.9468694e-15            8            1            8 1.0409946e-16 
    2740    1036.1465       17 1.9532548e-15            8            1            8 1.0404739e-16 
    2745    1039.7263       17 1.9596628e-15            8            1            8 1.0399534e-16 
    2750    1043.4116       17 1.9660934e-15            8            1            8 1.0394331e-16 
    2755    1047.1364       17 1.9725466e-15            8            1            8 1.0389131e-16 
    2760    1050.9098       17 1.9790226e-15            8            1            8 1.0383934e-16 
    2765    1054.5658       17 1.9855214e-15            8            1            8 1.0378739e-16 
    2770    1058.3321       17 1.9920432e-15            8            1            8 1.0373547e-16 
    2775    1061.9747       17 1.998588e-15            8            1            8 1.0368357e-16 
    2780     1065.609       17 2.0051558e-15            8            1            8 1.036317e-16 
    2785    1069.2305       17 2.0117468e-15            8            1            8 1.0357986e-16 
    2790    1072.8067       17 2.0183611e-15            8            1            8 1.0352804e-16 
    2795    1076.4115       17 2.0249986e-15            8            1            8 1.0347625e-16 
    2800    1079.9846       17 2.0316596e-15            8            1            8 1.0342449e-16 
    2805     1083.576       17 2.0383441e-15            8            1            8 1.0337275e-16 
    2810     1087.244       17 2.0450521e-15            8            1            8 1.0332103e-16 
    2815    1090.9049       17 2.0517838e-15            8            1            8 1.0326935e-16 
    2820    1094.5547       18 2.0585392e-15            9            1            8 1.0321768e-16 
    2825    1102.3313       19 2.0653184e-15            9            1            9 1.0316605e-16 
    2830    1105.7967       19 2.0721216e-15            9            1            9 1.0311444e-16 
    2835    1109.3927       19 2.0789487e-15            9            1            9 1.0306285e-16 
    2840    1113.1407       19 2.0857999e-15            9            1            9 1.0301129e-16 
    2845     1116.987       19 2.0926752e-15            9            1            9 1.0295976e-16 
    2850    1120.7539       19 2.0995748e-15            9            1            9 1.0290826e-16 
    2855    1124.4969       19 2.1064987e-15            9            1            9 1.0285677e-16 
    2860    1128.1421       19 2.113447e-15            9            1            9 1.0280532e-16 
    2865    1131.7986       19 2.1204198e-15            9            1            9 1.0275389e-16 
    2870    1135.4924       19 2.1274171e-15            9            1            9 1.0270249e-16 
    2875    1139.2343       19 2.1344391e-15            9            1            9 1.0265111e-16 
    2880    1142.9523       20 2.1414859e-15            9            1           10 1.0259976e-16 
    2885     1146.721       20 2.1485575e-15            9            1           10 1.0254843e-16 
    2890    1150.4456       20 2.155654e-15            9            1           10 1.0249713e-16 
    2895    1154.2075       20 2.1627755e-15            9            1           10 1.0244586e-16 
    2900    1158.0486       20 2.1699222e-15            9            1           10 1.0239461e-16 
    2905    1161.9068       20 2.177094e-15            9            1           10 1.0234338e-16 
    2910    1165.8685       20 2.184291e-15            9            1           10 1.0229219e-16 
    2915    1169.9333       20 2.1915135e-15            9            1           10 1.0224101e-16 
    2920    1174.2221       21 2.1987613e-15           10            1           10 1.0218987e-16 
    2925    1178.2428       21 2.2060347e-15           10            1           10 1.0213875e-16 
    2930    1182.2474       21 2.2133338e-15           10            1           10 1.0208765e-16 
    2935    1189.8048       22 2.2206585e-15           11            1           10 1.0203658e-16 
    2940    1192.9038       22 2.2280091e-15           11            1           10 1.0198554e-16 
    2945    1196.3703       22 2.2353856e-15           11            1           10 1.0193452e-16 
    2950    1200.0974       22 2.242788e-15           11            1           10 1.0188353e-16 
    2955    1203.8509       22 2.2502165e-15           11            1           10 1.0183256e-16 
    2960    1207.6269       22 2.2576712e-15           11            1           10 1.0178162e-16 
    2965    1211.5526       22 2.2651522e-15           11            1           10 1.017307e-16 
    2970    1215.4623       22 2.2726595e-15           11            1           10 1.0167981e-16 
    2975    1219.3839       22 2.2801932e-15           11            1           10 1.0162895e-16 
    2980    1223.3249       22 2.2877535e-15           11            1           10 1.0157811e-16 
    2985     1227.417       22 2.2953404e-15           11            1           10 1.0152729e-16 
    2990    1231.4716       22 2.302954e-15           11            1           10 1.014765e-16 
    2995    1235.6154       23 2.3105944e-15           11            1           11 1.0142574e-16 
    3000    1239.9098       24 2.3182618e-15           12            1           11  1.01375e-16 
    3005    1243.8575       24 2.3259561e-15           12            1           11 1.0132429e-16 
    3010    1247.7481       24 2.3336775e-15           12            1           11 1.012736e-16 
    3015    1251.6948       24 2.3414262e-15           12            1           11 1.0122294e-16 
    3020    1255.6206       24 2.3492021e-15           12            1           11 1.0117231e-16 
    3025    1259.5488       24 2.3570053e-15           12            1           11 1.011217e-16 
    3030     1263.516       24 2.3648361e-15           12            1           11 1.0107111e-16 
    3035    1267.4927       24 2.3726944e-15           12            1           11 1.0102055e-16 
    3040    1271.4945       24 2.3805804e-15           12            1           11 1.0097002e-16 
    3045    1275.4758       24 2.3884942e-15           12            1           11 1.0091951e-16 
    3050    1279.4467       25 2.3964358e-15           13            1           11 1.0086902e-16 
    3055    1283.5051       25 2.4044054e-15           13            1           11 1.0081856e-16 
    3060    1287.5572       25 2.412403e-15           13            1           11 1.0076813e-16 
    3065    1291.6268       25 2.4204288e-15           13            1           11 1.0071772e-16 
    3070    1295.6863       25 2.4284828e-15           13            1           11 1.0066734e-16 
    3075    1299.7354       26 2.4365652e-15           14            1           11 1.0061698e-16 
    3080    1303.7707       26 2.444676e-15           14            1           11 1.0056665e-16 
    3085    1307.8326       26 2.4528154e-15           14            1           11 1.0051634e-16 
    3090    1311.8862       26 2.4609834e-15           14            1           11 1.0046606e-16 
    3095    1315.9604       26 2.4691802e-15           14            1           11 1.0041581e-16 
    3100      1320.05       26 2.4774058e-15           14            1           11 1.0036557e-16 
    3105    1324.1419       26 2.4856604e-15           14            1           11 1.0031537e-16 
    3110    1328.3144       26 2.493944e-15           14            1           11 1.0026519e-16 
    3115    1332.5092       26 2.5022568e-15           14            1           11 1.0021503e-16 
    3120    1336.7034       26 2.5105989e-15           14            1           11 1.001649e-16 
    3125    1340.9069       26 2.5189702e-15           14            1           11 1.001148e-16 
    3130    1345.1149       26 2.5273711e-15           14            1           11 1.0006472e-16 
    3135    1349.2928       26 2.5358015e-15           14            1           11 1.0001466e-16 
    3140    1353.6806       26 2.5442616e-15           14            1           11 9.996463e-17 
    3145    1357.8665       26 2.5527514e-15           14            1           11 9.9914625e-17 
    3150    1362.1237       27 2.5612711e-15           14            1           12 9.9864645e-17 
    3155    1366.4635       27 2.5698208e-15           14            1           12 9.981469e-17 
    3160    1370.7097       27 2.5784006e-15           14            1           12 9.9764761e-17 
    3165     1374.952       27 2.5870106e-15           14            1           12 9.9714856e-17 
    3170    1379.2537       27 2.5956508e-15           14            1           12 9.9664976e-17 
    3175    1383.6131       27 2.6043215e-15           14            1           12 9.9615122e-17 
    3180    1388.2502       27 2.6130226e-15           14            1           12 9.9565292e-17 
    3185    1393.0911       27 2.6217544e-15           14            1           12 9.9515488e-17 
    3190    1397.7174       27 2.6305168e-15           14            1           12 9.9465708e-17 
    3195    1402.2073       27 2.6393101e-15           14            1           12 9.9415953e-17 
    3200    1406.5974       27 2.6481344e-15           14            1           12 9.9366224e-17 
    3205    1411.0594       27 2.6569897e-15           14            1           12 9.9316519e-17 
    3210     1415.443       27 2.6658761e-15           14            1           12 9.9266839e-17 
    3215    1419.8731       27 2.6747938e-15           14            1           12 9.9217184e-17 
    3220     1424.269       27 2.6837428e-15           14            1           12 9.9167555e-17 
    3225    1428.8163       27 2.6927233e-15           14            1           12 9.911795e-17 
    3230     1433.318       28 2.7017355e-15           15            1           12 9.9068369e-17 
    3235    1437.7783       28 2.7107793e-15           15            1           12 9.9018814e-17 
    3240    1442.2715       28 2.7198549e-15           15            1           12 9.8969284e-17 
    3245    1446.8667       28 2.7289624e-15           15            1           12 9.8919778e-17 
    3250    1451.4302       28 2.738102e-15           15            1           12 9.8870298e-17 
    3255    1455.9547       28 2.7472737e-15           15            1           12 9.8820842e-17 
    3260    1460.4632       28 2.7564776e-15           15            1           12 9.8771411e-17 
    3265    1465.0218       28 2.765714e-15           15            1           12 9.8722005e-17 
    3270    1469.5633       28 2.7749828e-15           15            1           12 9.8672623e-17 
    3275    1474.1643       28 2.7842842e-15           15            1           12 9.8623267e-17 
    3280    1478.7305       28 2.7936183e-15           15            1           12 9.8573935e-17 
    3285    1483.3152       28 2.8029852e-15           15            1           12 9.8524628e-17 
    3290    1487.9167       28 2.812385e-15           15            1           12 9.8475346e-17 
    3295    1492.5441       28 2.821818e-15           15            1           12 9.8426088e-17 
    3300     1497.148       28 2.831284e-15           15            1           12 9.8376855e-17 
    3305    1501.7447       28 2.8407834e-15           15            1           12 9.8327647e-17 
    3310    1510.9506       30 2.8503161e-15           15            1           14 9.8278464e-17 
    3315    1514.6626       30 2.8598824e-15           15            1           14 9.8229305e-17 
    3320    1519.2224       30 2.8694824e-15           15            1           14 9.8180171e-17 
    3325    1523.8884       30 2.8791161e-15           15            1           14 9.8131062e-17 
    3330    1528.5093       30 2.8887836e-15           15            1           14 9.8081977e-17 
    3335    1533.2511       30 2.8984851e-15           15            1           14 9.8032917e-17 
    3340    1537.9289       30 2.9082208e-15           15            1           14 9.7983882e-17 
    3345    1542.6235       30 2.9179906e-15           15            1           14 9.7934871e-17 
    3350    1547.4041       30 2.9277949e-15           15            1           14 9.7885885e-17 
    3355    1552.1024       30 2.9376335e-15           15            1           14 9.7836923e-17 
    3360    1556.9114       30 2.9475068e-15           15            1           14 9.7787986e-17 
    3365    1561.7891       30 2.9574147e-15           15            1           14 9.7739074e-17 
    3370    1566.6893       30 2.9673575e-15           15            1           14 9.7690186e-17 
    3375      1571.56       30 2.9773352e-15           15            1           14 9.7641323e-17 
    3380    1576.4601       30 2.9873481e-15           15            1           14 9.7592484e-17 
    3385    1581.3502       30 2.997396e-15           15            1           14 9.754367e-17 
    3390    1586.3516       30 3.0074794e-15           15            1           14 9.749488e-17 
    3395    1591.2188       30 3.0175981e-15           15            1           14 9.7446115e-17 
    3400     1596.163       30 3.0277524e-15           15            1           14 9.7397374e-17 
    3405    1601.0658       30 3.0379424e-15           15            1           14 9.7348658e-17 
    3410    1606.0611       30 3.0481682e-15           15            1           14 9.7299967e-17 
    3415    1611.1126       30 3.0584299e-15           15            1           14 9.7251299e-17 
    3420     1616.096       30 3.0687278e-15           15            1           14 9.7202657e-17 
    3425    1621.0705       30 3.0790617e-15           15            1           14 9.7154038e-17 
    3430     1626.148       30 3.089432e-15           15            1           14 9.7105444e-17 
    3435     1631.172       30 3.0998388e-15           15            1           14 9.7056875e-17 
    3440    1636.1676       30 3.1102821e-15           15            1           14 9.700833e-17 
    3445     1641.204       30 3.1207621e-15           15            1           14 9.6959809e-17 
    3450    1646.2898       30 3.131279e-15           15            1           14 9.6911313e-17 
    3455    1651.5504       30 3.1418327e-15           15            1           14 9.6862841e-17 
    3460    1656.7639       30 3.1524236e-15           15            1           14 9.6814393e-17 
    3465    1662.1343       30 3.1630517e-15           15            1           14 9.676597e-17 
    3470     1667.312       30 3.1737171e-15           15            1           14 9.6717571e-17 
    3475    1672.4315       30  3.18442e-15           15            1           14 9.6669196e-17 
    3480    1677.6356       30 3.1951605e-15           15            1           14 9.6620846e-17 
    3485    1682.9318       30 3.2059387e-15           15            1           14 9.657252e-17 
    3490    1688.2418       30 3.2167548e-15           15            1           14 9.6524218e-17 
    3495    1693.5047       30 3.2276089e-15           15            1           14 9.6475941e-17 
    3500    1698.6807       30 3.2385012e-15           15            1           14 9.6427688e-17 
    3505     1703.947       30 3.2494316e-15           15            1           14 9.6379459e-17 
    3510    1709.1923       30 3.2604005e-15           15            1           14 9.6331254e-17 
    3515    1714.4609       30 3.2714079e-15           15            1           14 9.6283074e-17 
    3520    1719.7111       30 3.282454e-15           15            1           14 9.6234918e-17 
    3525    1724.9855       31 3.2935389e-15           15            1           15 9.6186786e-17 
    3530    1730.2623       31 3.3046627e-15           15            1           15 9.6138678e-17 
    3535    1735.5083       31 3.3158256e-15           15            1           15 9.6090594e-17 
    3540    1740.7824       31 3.3270278e-15           15            1           15 9.6042535e-17 
    3545    1746.0361       31 3.3382692e-15           15            1           15  9.59945e-17 
    3550    1751.3839       31 3.3495501e-15           15            1           15 9.5946489e-17 
    3555    1756.8812       31 3.3608707e-15           15            1           15 9.5898502e-17 
    3560    1762.3804       31 3.372231e-15           15            1           15 9.5850539e-17 
    3565    1767.7419       31 3.3836313e-15           15            1           15  9.58026e-17 
    3570    1773.1195       31 3.3950715e-15           15            1           15 9.5754685e-17 
    3575    1778.5623       31 3.406552e-15           15            1           15 9.5706795e-17 
    3580    1783.9586       31 3.4180727e-15           15            1           15 9.5658929e-17 
    3585    1789.3515       31 3.4296339e-15           15            1           15 9.5611086e-17 
    3590     1794.749       31 3.4412357e-15           15            1           15 9.5563268e-17 
    3595    1800.1375       31 3.4528783e-15           15            1           15 9.5515474e-17 
    3600    1805.7345       32 3.4645618e-15           15            1           16 9.5467704e-17 
    3605    1811.2385       32 3.4762862e-15           15            1           16 9.5419957e-17 
    3610    1816.6368       32 3.4880519e-15           15            1           16 9.5372235e-17 
    3615    1822.0362       32 3.4998588e-15           15            1           16 9.5324537e-17 
    3620    1827.5479       32 3.5117073e-15           15            1           16 9.5276863e-17 
    3625     1832.978       32 3.5235973e-15           15            1           16 9.5229213e-17 
    3630    1838.3969       33 3.5355291e-15           15            1           17 9.5181587e-17 
    3635    1843.8322       33 3.5475027e-15           15            1           17 9.5133985e-17 
    3640    1849.3127       33 3.5595185e-15           15            1           17 9.5086406e-17 
    3645    1854.8011       33 3.5715764e-15           15            1           17 9.5038852e-17 
    3650    1860.3209       33 3.5836766e-15           15            1           17 9.4991322e-17 
    3655    1865.8612       34 3.5958193e-15           16            1           17 9.4943815e-17 
    3660    1871.6525       34 3.6080047e-15           16            1           17 9.4896333e-17 
    3665    1877.3747       34 3.6202328e-15           16            1           17 9.4848874e-17 
    3670    1882.9624       34 3.6325039e-15           16            1           17 9.4801439e-17 
    3675     1888.696       34 3.6448181e-15           16            1           17 9.4754029e-17 
    3680    1894.4115       34 3.6571754e-15           16            1           17 9.4706642e-17 
    3685    1900.0687       34 3.6695762e-15           16            1           17 9.4659278e-17 
    3690    1905.8055       34 3.6820205e-15           16            1           17 9.4611939e-17 
    3695    1911.6485       34 3.6945085e-15           16            1           17 9.4564624e-17 
    3700    1917.4843       34 3.7070403e-15           16            1           17 9.4517332e-17 
    3705    1923.3539       34 3.7196162e-15           16            1           17 9.4470064e-17 
    3710    1929.2755       34 3.7322361e-15           16            1           17 9.442282e-17 
    3715    1935.3245       34 3.7449004e-15           16            1           17  9.43756e-17 
    3720     1941.548       34 3.7576091e-15           16            1           17 9.4328403e-17 
    3725    1947.6862       35 3.7703625e-15           17            1           17 9.4281231e-17 
    3730    1953.9244       35 3.7831605e-15           17            1           17 9.4234082e-17 
    3735    1960.0317       35 3.7960036e-15           17            1           17 9.4186956e-17 
    3740    1966.0481       35 3.8088917e-15           17            1           17 9.4139855e-17 
    3745    1972.1716       36 3.821825e-15           18            1           17 9.4092777e-17 
    3750    1978.3145       37 3.8348037e-15           19            1           17 9.4045723e-17 
    3755    1984.4602       37 3.847828e-15           19            1           17 9.3998693e-17 
    3760    1990.5732       37 3.860898e-15           19            1           17 9.3951686e-17 
    3765    1996.7637       37 3.8740139e-15           19            1           17 9.3904703e-17 
    3770     2003.167       37 3.8871758e-15           19            1           17 9.3857744e-17 
    3775    2009.5506       37 3.9003839e-15           19            1           17 9.3810808e-17 
    3780    2015.7638       37 3.9136384e-15           19            1           17 9.3763896e-17 
    3785    2022.0142       37 3.9269393e-15           19            1           17 9.3717008e-17 
    3790    2040.0339       37 3.940287e-15           19            1           17 9.3670143e-17 
    3795    2045.6661       37 3.9536815e-15           19            1           17 9.3623302e-17 
    3800    2051.7286       37 3.9671231e-15           19            1           17 9.3576484e-17 
    3805    2058.0447       37 3.9806118e-15           19            1           17 9.352969e-17 
    3810    2068.7731       37 3.9941478e-15           19            1           17 9.348292e-17 
    3815    2073.7028       38 4.0077314e-15           20            1           17 9.3436173e-17 
    3820    2079.3073       38 4.0213627e-15           20            1           17 9.338945e-17 
    3825    2085.1528       39 4.0350418e-15           21            1           17 9.334275e-17 
    3830    2091.1713       39 4.0487689e-15           21            1           17 9.3296074e-17 
    3835    2097.1487       39 4.0625442e-15           21            1           17 9.3249421e-17 
    3840    2103.2136       39 4.0763678e-15           21            1           17 9.3202792e-17 
    3845    2109.3247       39 4.0902399e-15           21            1           17 9.3156187e-17 
    3850    2115.5083       40 4.1041607e-15           22            1           17 9.3109605e-17 
    3855    2121.6092       40 4.1181304e-15           22            1           17 9.3063046e-17 
    3860    2128.0424       40 4.132149e-15           22            1           17 9.3016511e-17 
    3865    2134.3396       40 4.1462169e-15           22            1           17 9.2969999e-17 
    3870    2140.5465       40 4.1603341e-15           22            1           17 9.2923511e-17 
    3875    2146.8026       40 4.1745008e-15           22            1           17 9.2877046e-17 
    3880    2153.1231       40 4.1887173e-15           22            1           17 9.2830605e-17 
    3885    2159.2982       40 4.2029836e-15           22            1           17 9.2784187e-17 
    3890    2165.7101       40   4.2173e-15           22            1           17 9.2737793e-17 
    3895    2172.2605       41 4.2316666e-15           22            1           18 9.2691421e-17 
    3900    2178.7618       41 4.2460836e-15           22            1           18 9.2645074e-17 
[...]
    4045    2591.8943       44 4.6869141e-15           23            1           20 9.1311118e-17 
    4050    2597.9407       44 4.702928e-15           23            1           20 9.1265467e-17 
    4055    2604.0296       44 4.718998e-15           23            1           20 9.1219839e-17 
    4060    2610.1409       44 4.7351244e-15           23            1           20 9.1174234e-17 
    4065    2616.3371       44 4.7513074e-15           23            1           20 9.1128653e-17 
    4070    2622.6008       44 4.7675471e-15           23            1           20 9.1083094e-17 
    4075    2628.8668       44 4.7838438e-15           23            1           20 9.1037558e-17 
    4080    2635.1996       44 4.8001976e-15           23            1           20 9.0992046e-17 
    4085    2641.6299       45 4.8166088e-15           24            1           20 9.0946556e-17 
    4090    2647.9923       45 4.8330775e-15           24            1           20 9.0901089e-17 
    4095    2654.3831       45 4.849604e-15           24            1           20 9.0855646e-17 
    4100    2660.8675       45 4.8661884e-15           24            1           20 9.0810225e-17 
    4105    2667.6279       45 4.882831e-15           24            1           20 9.0764828e-17 
    4110    2674.1916       46 4.8995319e-15           24            1           21 9.0719453e-17 
    4115    2680.7379       46 4.9162914e-15           24            1           21 9.0674101e-17 
    4120    2687.3981       46 4.9331097e-15           24            1           21 9.0628772e-17 
    4125    2694.1807       46 4.9499869e-15           24            1           21 9.0583466e-17 
    4130    2700.7197       47 4.9669233e-15           24            1           22 9.0538183e-17 
    4135    2707.5687       49 4.9839191e-15           24            1           24 9.0492923e-17 
    4140    2718.4993       50 5.0009745e-15           25            1           24 9.0447686e-17 
    4145    2725.0345       50 5.0180896e-15           25            1           24 9.0402472e-17 
    4150    2731.7199       51 5.0352648e-15           26            1           24 9.035728e-17 
    4155    2738.3218       51 5.0525001e-15           26            1           24 9.0312112e-17 
    4160    2744.9412       51 5.0697959e-15           26            1           24 9.0266966e-17 
    4165    2751.5814       51 5.0871523e-15           26            1           24 9.0221843e-17 
    4170    2758.2895       51 5.1045696e-15           26            1           24 9.0176743e-17 
    4175    2765.0163       51 5.122048e-15           26            1           24 9.0131666e-17 
    4180    2771.7086       53 5.1395876e-15           28            1           24 9.0086612e-17 
    4185    2778.5023       53 5.1571887e-15           28            1           24 9.004158e-17 
    4190    2785.3218       53 5.1748516e-15           28            1           24 8.9996571e-17 
    4195    2792.1327       53 5.1925763e-15           28            1           24 8.9951585e-17 
    4200    2799.2088       53 5.2103632e-15           28            1           24 8.9906622e-17 
    4205     2806.066       53 5.2282124e-15           28            1           24 8.9861682e-17 
    4210     2812.995       53 5.2461242e-15           28            1           24 8.9816764e-17 
    4215    2819.8415       53 5.2640988e-15           28            1           24 8.9771869e-17 
    4220    2826.7022       54 5.2821365e-15           28            1           25 8.9726997e-17 
    4225    2833.5907       55 5.3002373e-15           29            1           25 8.9682147e-17 
    4230    2840.4923       55 5.3184016e-15           29            1           25 8.9637321e-17 
    4235    2847.4446       55 5.3366296e-15           29            1           25 8.9592517e-17 
    4240    2854.3992       55 5.3549215e-15           29            1           25 8.9547735e-17 
    4245    2861.4308       55 5.3732775e-15           29            1           25 8.9502977e-17 
    4250    2868.4398       55 5.3916978e-15           29            1           25 8.9458241e-17 
    4255    2875.4904       55 5.4101827e-15           29            1           25 8.9413527e-17 
    4260    2882.5909       55 5.4287324e-15           29            1           25 8.9368837e-17 
    4265    2889.7089       55 5.4473471e-15           29            1           25 8.9324169e-17 
    4270    2896.7934       55 5.4660271e-15           29            1           25 8.9279523e-17 
    4275    2903.9577       55 5.4847726e-15           29            1           25 8.9234901e-17 
    4280    2911.1947       55 5.5035837e-15           29            1           25  8.91903e-17 
    4285     2918.534       55 5.5224608e-15           29            1           25 8.9145723e-17 
    4290    2925.8658       55 5.5414041e-15           29            1           25 8.9101168e-17 
    4295    2933.1337       55 5.5604137e-15           29            1           25 8.9056636e-17 
    4300    2940.3806       55  5.57949e-15           29            1           25 8.9012126e-17 
    4305    2947.6841       55 5.5986331e-15           29            1           25 8.8967639e-17 
    4310    2954.9983       55 5.6178434e-15           29            1           25 8.8923174e-17 
    4315    2962.3123       56 5.6371209e-15           29            1           26 8.8878732e-17 
    4320    2969.6277       56 5.6564661e-15           29            1           26 8.8834313e-17 
    4325    2976.9935       56 5.675879e-15           29            1           26 8.8789916e-17 
    4330    2984.5459       56  5.69536e-15           29            1           26 8.8745541e-17 
    4335    2991.9879       57 5.7149092e-15           30            1           26 8.8701189e-17 
    4340    2999.4708       57 5.734527e-15           30            1           26 8.865686e-17 
    4345    3006.9396       57 5.7542135e-15           30            1           26 8.8612553e-17 
    4350    3014.6047       57 5.773969e-15           30            1           26 8.8568269e-17 
    4355    3022.0901       57 5.7937937e-15           30            1           26 8.8524007e-17 
    4360    3029.6532       57 5.8136879e-15           30            1           26 8.8479767e-17 
    4365    3037.1788       57 5.8336519e-15           30            1           26 8.843555e-17 
    4370     3044.728       57 5.8536858e-15           30            1           26 8.8391355e-17 
    4375    3052.3289       57 5.8737899e-15           30            1           26 8.8347183e-17 
    4380    3060.0086       57 5.8939644e-15           30            1           26 8.8303034e-17 
    4385    3067.7118       57 5.9142097e-15           30            1           26 8.8258906e-17 
    4390    3075.3424       57 5.9345259e-15           30            1           26 8.8214801e-17 
    4395    3083.0882       57 5.9549133e-15           30            1           26 8.8170719e-17 
    4400    3090.8903       57 5.9753721e-15           30            1           26 8.8126659e-17 
    4405    3098.6858       57 5.9959027e-15           30            1           26 8.8082621e-17 
    4410    3106.4778       57 6.0165051e-15           30            1           26 8.8038606e-17 
    4415    3114.3525       57 6.0371798e-15           30            1           26 8.7994613e-17 
    4420    3122.1721       59 6.0579269e-15           31            1           27 8.7950642e-17 
    4425    3130.0877       59 6.0787467e-15           31            1           27 8.7906694e-17 
    4430    3137.9089       59 6.0996395e-15           31            1           27 8.7862768e-17 
    4435    3145.9737       59 6.1206055e-15           31            1           27 8.7818864e-17 
    4440    3153.8788       59 6.1416449e-15           31            1           27 8.7774983e-17 
    4445    3161.7718       59 6.1627581e-15           31            1           27 8.7731124e-17 
    4450    3169.9324       59 6.1839452e-15           31            1           27 8.7687287e-17 
    4455    3177.8695       59 6.2052066e-15           31            1           27 8.7643473e-17 
    4460    3186.0434       59 6.2265425e-15           31            1           27 8.7599681e-17 
    4465    3194.0764       61 6.2479531e-15           32            1           28 8.7555911e-17 
    4470    3202.1021       61 6.2694388e-15           32            1           28 8.7512163e-17 
    4475    3210.1964       61 6.2909997e-15           32            1           28 8.7468438e-17 
    4480    3218.2938       61 6.3126362e-15           32            1           28 8.7424735e-17 
    4485    3226.4339       61 6.3343484e-15           32            1           28 8.7381054e-17 
    4490    3234.5572       61 6.3561368e-15           32            1           28 8.7337395e-17 
    4495    3242.6969       61 6.3780015e-15           32            1           28 8.7293759e-17 
    4500    3250.8562       61 6.3999428e-15           32            1           28 8.7250144e-17 
    4505     3259.028       61 6.421961e-15           32            1           28 8.7206552e-17 
    4510     3267.355       61 6.4440563e-15           32            1           28 8.7162982e-17 
    4515    3275.5691       61 6.466229e-15           32            1           28 8.7119435e-17 
    4520    3283.8766       61 6.4884794e-15           32            1           28 8.7075909e-17 
    4525    3292.2361       61 6.5108078e-15           32            1           28 8.7032406e-17 
    4530    3300.5343       61 6.5332143e-15           32            1           28 8.6988925e-17 
    4535    3309.1113       61 6.5556994e-15           32            1           28 8.6945466e-17 
    4540    3317.6209       61 6.5782633e-15           32            1           28 8.6902029e-17 
    4545    3326.0964       61 6.6009062e-15           32            1           28 8.6858614e-17 
    4550    3334.6494       62 6.6236284e-15           32            1           29 8.6815221e-17 
    4555    3346.5364       63 6.6464302e-15           32            1           30 8.6771851e-17 
    4560    3354.3843       64 6.6693119e-15           33            1           30 8.6728502e-17 
    4565    3362.8184       65 6.6922737e-15           34            1           30 8.6685176e-17 
    4570    3371.3474       65 6.7153159e-15           34            1           30 8.6641871e-17 
    4575    3379.8492       66 6.7384389e-15           34            1           31 8.6598589e-17 
    4580    3388.4451       66 6.7616429e-15           34            1           31 8.6555329e-17 
    4585    3396.9146       66 6.7849282e-15           34            1           31 8.6512091e-17 
    4590    3405.5627       66 6.808295e-15           34            1           31 8.6468875e-17 
    4595     3414.117       66 6.8317437e-15           34            1           31 8.6425681e-17 
    4600    3422.7116       66 6.8552745e-15           34            1           31 8.6382509e-17 
    4605    3431.3642       66 6.8788878e-15           34            1           31 8.6339358e-17 
    4610    3440.0577       66 6.9025838e-15           34            1           31 8.629623e-17 
    4615    3448.7751       67 6.9263627e-15           35            1           31 8.6253124e-17 
    4620    3457.5155       67 6.950225e-15           35            1           31 8.621004e-17 
    4625    3466.2493       67 6.9741708e-15           35            1           31 8.6166978e-17 
    4630    3475.0967       67 6.9982006e-15           35            1           31 8.6123938e-17 
    4635    3483.9122       67 7.0223145e-15           35            1           31 8.608092e-17 
    4640    3492.7467       67 7.0465128e-15           35            1           31 8.6037924e-17 
    4645     3501.594       67 7.0707959e-15           35            1           31 8.599495e-17 
    4650    3510.5247       67 7.0951641e-15           35            1           31 8.5951997e-17 
    4655    3519.4169       67 7.1196177e-15           35            1           31 8.5909067e-17 
    4660    3528.3708       67 7.1441568e-15           35            1           31 8.5866159e-17 
    4665     3537.317       67 7.168782e-15           35            1           31 8.5823272e-17 
    4670    3546.2954       67 7.1934933e-15           35            1           31 8.5780407e-17 
    4675    3555.3164       68 7.2182913e-15           35            1           32 8.5737565e-17 
    4680    3564.3828       69 7.2431761e-15           35            1           33 8.5694744e-17 
    4685    3573.3849       69 7.268148e-15           35            1           33 8.5651945e-17 
    4690    3582.4089       69 7.2932074e-15           35            1           33 8.5609168e-17 
    4695    3591.4522       69 7.3183546e-15           35            1           33 8.5566413e-17 
    4700    3600.5072       69 7.3435898e-15           35            1           33 8.5523679e-17 
    4705     3609.683       69 7.3689135e-15           35            1           33 8.5480968e-17 
    4710    3618.8745       69 7.3943258e-15           35            1           33 8.5438278e-17 
    4715    3628.0557       69 7.4198271e-15           35            1           33 8.539561e-17 
    4720    3637.1954       70 7.4454177e-15           36            1           33 8.5352964e-17 
    4725    3646.3856       70 7.471098e-15           36            1           33 8.531034e-17 
    4730    3655.7537       70 7.4968682e-15           36            1           33 8.5267737e-17 
    4735     3665.002       70 7.5227286e-15           36            1           33 8.5225156e-17 
    4740    3674.3756       71 7.5486796e-15           36            1           34 8.5182597e-17 
    4745    3683.7538       71 7.5747215e-15           36            1           34 8.514006e-17 
    4750    3693.0942       71 7.6008546e-15           36            1           34 8.5097545e-17 
    4755    3702.4448       71 7.6270792e-15           36            1           34 8.5055051e-17 
    4760     3711.869       71 7.6533957e-15           36            1           34 8.5012579e-17 
    4765     3721.276       71 7.6798043e-15           36            1           34 8.4970129e-17 
    4770    3730.7184       72 7.7063054e-15           37            1           34 8.4927701e-17 
    4775    3740.1583       72 7.7328993e-15           37            1           34 8.4885294e-17 
    4780    3749.6795       72 7.7595863e-15           37            1           34 8.4842909e-17 
    4785    3759.2152       73 7.7863668e-15           37            1           35 8.4800546e-17 
    4790    3768.8928       74 7.8132411e-15           38            1           35 8.4758204e-17 
    4795    3778.4647       74 7.8402095e-15           38            1           35 8.4715884e-17 
    4800    3788.0414       74 7.8672723e-15           38            1           35 8.4673586e-17 
    4805    3797.6443       74 7.8944299e-15           38            1           35 8.463131e-17 
    4810    3807.5374       74 7.9216825e-15           38            1           35 8.4589055e-17 
    4815    3817.3239       74 7.9490307e-15           38            1           35 8.4546821e-17 
    4820    3827.1142       74 7.9764745e-15           38            1           35 8.450461e-17 
    4825    3836.9482       74 8.0040145e-15           38            1           35 8.446242e-17 
    4830    3846.7636       74 8.0316509e-15           38            1           35 8.4420252e-17 
    4835    3856.6072       75 8.0593841e-15           39            1           35 8.4378105e-17 
    4840    3866.4632       75 8.0872144e-15           39            1           35 8.433598e-17 
    4845    3876.3496       75 8.1151421e-15           39            1           35 8.4293876e-17 
    4850    3886.2118       75 8.1431677e-15           39            1           35 8.4251794e-17 
    4855    3896.1869       75 8.1712913e-15           39            1           35 8.4209734e-17 
    4860    3906.2152       75 8.1995135e-15           39            1           35 8.4167695e-17 
    4865    3916.1719       75 8.2278344e-15           39            1           35 8.4125678e-17 
    4870    3926.2625       75 8.2562546e-15           39            1           35 8.4083683e-17 
    4875    3936.2463       75 8.2847742e-15           39            1           35 8.4041709e-17 
    4880    3946.2226       76 8.3133937e-15           40            1           35 8.3999756e-17 
    4885     3965.327       78 8.3421134e-15           42            1           35 8.3957825e-17 
    4890    3977.0268       78 8.3709338e-15           42            1           35 8.3915916e-17 
    4895    3986.3704       78 8.3998551e-15           42            1           35 8.3874028e-17 
    4900    3996.1141       79 8.4288776e-15           43            1           35 8.3832161e-17 
    4905    4006.0456       79 8.4580018e-15           43            1           35 8.3790317e-17 
    4910    4016.1445       81 8.487228e-15           44            1           36 8.3748493e-17 
    4915    4026.4962       82 8.5165565e-15           44            1           37 8.3706691e-17 
    4920    4036.9303       82 8.5459876e-15           44            1           37 8.3664911e-17 
    4925    4047.2115       83 8.5755218e-15           44            1           38 8.3623152e-17 
    4930    4057.5801       83 8.6051594e-15           44            1           38 8.3581414e-17 
    4935    4067.9543       83 8.6349008e-15           44            1           38 8.3539698e-17 
    4940    4078.2539       84 8.6647463e-15           44            1           39 8.3498004e-17 
    4945    4088.4968       84 8.6946963e-15           44            1           39 8.3456331e-17 
    4950    4098.7669       84 8.7247512e-15           44            1           39 8.3414679e-17 
    4955    4109.1442       84 8.7549113e-15           44            1           39 8.3373049e-17 
    4960     4119.541       84 8.7851769e-15           44            1           39 8.333144e-17 
    4965    4141.6039       84 8.8155486e-15           44            1           39 8.3289853e-17 
    4970    4169.5485       84 8.8460266e-15           44            1           39 8.3248287e-17 
    4975    4197.2153       86 8.8766112e-15           45            1           40 8.3206742e-17 
    4980    4224.8041       87 8.907303e-15           46            1           40 8.3165219e-17 
    4985    4236.6463       87 8.9381022e-15           46            1           40 8.3123717e-17 
    4990    4246.3472       87 8.9690092e-15           46            1           40 8.3082236e-17 
    4995    4256.5811       87 9.0000245e-15           46            1           40 8.3040777e-17 
    5000    4266.8271       87 9.0311483e-15           46            1           40 8.2999339e-17 
Loop time of 4266.83 on 1 procs for 5000 steps with 87 atoms

Performance: 3644862.940 tau/day, 1.172 timesteps/s
99.9% CPU use with 1 MPI tasks x no OpenMP threads

MPI task timing breakdown:
Section |  min time  |  avg time  |  max time  |%varavg| %total
---------------------------------------------------------------
Pair    | 0.031542   | 0.031542   | 0.031542   |   0.0 |  0.00
Neigh   | 7.0869     | 7.0869     | 7.0869     |   0.0 |  0.17
Comm    | 0.056476   | 0.056476   | 0.056476   |   0.0 |  0.00
Output  | 0.026145   | 0.026145   | 0.026145   |   0.0 |  0.00
Modify  | 4259.6     | 4259.6     | 4259.6     |   0.0 | 99.83
Other   |            | 0.02022    |            |       |  0.00

Nlocal:    87 ave 87 max 87 min
Histogram: 1 0 0 0 0 0 0 0 0 0
Nghost:    0 ave 0 max 0 min
Histogram: 1 0 0 0 0 0 0 0 0 0
Neighs:    379 ave 379 max 379 min
Histogram: 1 0 0 0 0 0 0 0 0 0

Total # of neighbors = 379
Ave neighs/atom = 4.35632
Neighbor list builds = 5000
Dangerous builds = 0


Total wall time: 1:11:12
