  Granular Flow Simulation 

       120 atoms 
       2 atom types 
       3 nutrients

   0.0   2.0e-04  xlo xhi 
   0.0   2.0e-05  ylo yhi 
   0.0   1.0e-04  zlo zhi 

 Atoms

1	1	4.00E-06	290	6.00E-06	2.00E-06	1.00E-06	4.00E-06
2	2	4.00E-06	290	1.40E-05	2.00E-06	1.00E-06	4.00E-06
3	1	4.00E-06	290	2.20E-05	2.00E-06	1.00E-06	4.00E-06
4	2	4.00E-06	290	3.00E-05	2.00E-06	1.00E-06	4.00E-06
5	1	4.00E-06	290	3.80E-05	2.00E-06	1.00E-06	4.00E-06
6	2	4.00E-06	290	4.60E-05	2.00E-06	1.00E-06	4.00E-06
7	1	4.00E-06	290	5.40E-05	2.00E-06	1.00E-06	4.00E-06
8	2	4.00E-06	290	6.20E-05	2.00E-06	1.00E-06	4.00E-06
9	1	4.00E-06	290	7.00E-05	2.00E-06	1.00E-06	4.00E-06
10	2	4.00E-06	290	7.80E-05	2.00E-06	1.00E-06	4.00E-06
11	1	4.00E-06	290	8.60E-05	2.00E-06	1.00E-06	4.00E-06
12	2	4.00E-06	290	9.40E-05	2.00E-06	1.00E-06	4.00E-06
13	1	4.00E-06	290	1.02E-04	2.00E-06	1.00E-06	4.00E-06
14	2	4.00E-06	290	1.10E-04	2.00E-06	1.00E-06	4.00E-06
15	1	4.00E-06	290	1.18E-04	2.00E-06	1.00E-06	4.00E-06
16	2	4.00E-06	290	1.26E-04	2.00E-06	1.00E-06	4.00E-06
17	1	4.00E-06	290	1.34E-04	2.00E-06	1.00E-06	4.00E-06
18	2	4.00E-06	290	1.42E-04	2.00E-06	1.00E-06	4.00E-06
19	1	4.00E-06	290	1.50E-04	2.00E-06	1.00E-06	4.00E-06
20	2	4.00E-06	290	1.58E-04	2.00E-06	1.00E-06	4.00E-06
21	1	4.00E-06	290	1.66E-04	2.00E-06	1.00E-06	4.00E-06
22	2	4.00E-06	290	1.74E-04	2.00E-06	1.00E-06	4.00E-06
23	1	4.00E-06	290	1.82E-04	2.00E-06	1.00E-06	4.00E-06
24	2	4.00E-06	290	1.90E-04	2.00E-06	1.00E-06	4.00E-06
25	1	4.00E-06	290	6.00E-06	6.00E-06	1.00E-06	4.00E-06
26	2	4.00E-06	290	1.40E-05	6.00E-06	1.00E-06	4.00E-06
27	1	4.00E-06	290	2.20E-05	6.00E-06	1.00E-06	4.00E-06
28	2	4.00E-06	290	3.00E-05	6.00E-06	1.00E-06	4.00E-06
29	1	4.00E-06	290	3.80E-05	6.00E-06	1.00E-06	4.00E-06
30	2	4.00E-06	290	4.60E-05	6.00E-06	1.00E-06	4.00E-06
31	1	4.00E-06	290	5.40E-05	6.00E-06	1.00E-06	4.00E-06
32	2	4.00E-06	290	6.20E-05	6.00E-06	1.00E-06	4.00E-06
33	1	4.00E-06	290	7.00E-05	6.00E-06	1.00E-06	4.00E-06
34	2	4.00E-06	290	7.80E-05	6.00E-06	1.00E-06	4.00E-06
35	1	4.00E-06	290	8.60E-05	6.00E-06	1.00E-06	4.00E-06
36	2	4.00E-06	290	9.40E-05	6.00E-06	1.00E-06	4.00E-06
37	1	4.00E-06	290	1.02E-04	6.00E-06	1.00E-06	4.00E-06
38	2	4.00E-06	290	1.10E-04	6.00E-06	1.00E-06	4.00E-06
39	1	4.00E-06	290	1.18E-04	6.00E-06	1.00E-06	4.00E-06
40	2	4.00E-06	290	1.26E-04	6.00E-06	1.00E-06	4.00E-06
41	1	4.00E-06	290	1.34E-04	6.00E-06	1.00E-06	4.00E-06
42	2	4.00E-06	290	1.42E-04	6.00E-06	1.00E-06	4.00E-06
43	1	4.00E-06	290	1.50E-04	6.00E-06	1.00E-06	4.00E-06
44	2	4.00E-06	290	1.58E-04	6.00E-06	1.00E-06	4.00E-06
45	1	4.00E-06	290	1.66E-04	6.00E-06	1.00E-06	4.00E-06
46	2	4.00E-06	290	1.74E-04	6.00E-06	1.00E-06	4.00E-06
47	1	4.00E-06	290	1.82E-04	6.00E-06	1.00E-06	4.00E-06
48	2	4.00E-06	290	1.90E-04	6.00E-06	1.00E-06	4.00E-06
49	1	4.00E-06	290	6.00E-06	1.00E-05	1.00E-06	4.00E-06
50	2	4.00E-06	290	1.40E-05	1.00E-05	1.00E-06	4.00E-06
51	1	4.00E-06	290	2.20E-05	1.00E-05	1.00E-06	4.00E-06
52	2	4.00E-06	290	3.00E-05	1.00E-05	1.00E-06	4.00E-06
53	1	4.00E-06	290	3.80E-05	1.00E-05	1.00E-06	4.00E-06
54	2	4.00E-06	290	4.60E-05	1.00E-05	1.00E-06	4.00E-06
55	1	4.00E-06	290	5.40E-05	1.00E-05	1.00E-06	4.00E-06
56	2	4.00E-06	290	6.20E-05	1.00E-05	1.00E-06	4.00E-06
57	1	4.00E-06	290	7.00E-05	1.00E-05	1.00E-06	4.00E-06
58	2	4.00E-06	290	7.80E-05	1.00E-05	1.00E-06	4.00E-06
59	1	4.00E-06	290	8.60E-05	1.00E-05	1.00E-06	4.00E-06
60	2	4.00E-06	290	9.40E-05	1.00E-05	1.00E-06	4.00E-06
61	1	4.00E-06	290	1.02E-04	1.00E-05	1.00E-06	4.00E-06
62	2	4.00E-06	290	1.10E-04	1.00E-05	1.00E-06	4.00E-06
63	1	4.00E-06	290	1.18E-04	1.00E-05	1.00E-06	4.00E-06
64	2	4.00E-06	290	1.26E-04	1.00E-05	1.00E-06	4.00E-06
65	1	4.00E-06	290	1.34E-04	1.00E-05	1.00E-06	4.00E-06
66	2	4.00E-06	290	1.42E-04	1.00E-05	1.00E-06	4.00E-06
67	1	4.00E-06	290	1.50E-04	1.00E-05	1.00E-06	4.00E-06
68	2	4.00E-06	290	1.58E-04	1.00E-05	1.00E-06	4.00E-06
69	1	4.00E-06	290	1.66E-04	1.00E-05	1.00E-06	4.00E-06
70	2	4.00E-06	290	1.74E-04	1.00E-05	1.00E-06	4.00E-06
71	1	4.00E-06	290	1.82E-04	1.00E-05	1.00E-06	4.00E-06
72	2	4.00E-06	290	1.90E-04	1.00E-05	1.00E-06	4.00E-06
73	1	4.00E-06	290	6.00E-06	1.40E-05	1.00E-06	4.00E-06
74	2	4.00E-06	290	1.40E-05	1.40E-05	1.00E-06	4.00E-06
75	1	4.00E-06	290	2.20E-05	1.40E-05	1.00E-06	4.00E-06
76	2	4.00E-06	290	3.00E-05	1.40E-05	1.00E-06	4.00E-06
77	1	4.00E-06	290	3.80E-05	1.40E-05	1.00E-06	4.00E-06
78	2	4.00E-06	290	4.60E-05	1.40E-05	1.00E-06	4.00E-06
79	1	4.00E-06	290	5.40E-05	1.40E-05	1.00E-06	4.00E-06
80	2	4.00E-06	290	6.20E-05	1.40E-05	1.00E-06	4.00E-06
81	1	4.00E-06	290	7.00E-05	1.40E-05	1.00E-06	4.00E-06
82	2	4.00E-06	290	7.80E-05	1.40E-05	1.00E-06	4.00E-06
83	1	4.00E-06	290	8.60E-05	1.40E-05	1.00E-06	4.00E-06
84	2	4.00E-06	290	9.40E-05	1.40E-05	1.00E-06	4.00E-06
85	1	4.00E-06	290	1.02E-04	1.40E-05	1.00E-06	4.00E-06
86	2	4.00E-06	290	1.10E-04	1.40E-05	1.00E-06	4.00E-06
87	1	4.00E-06	290	1.18E-04	1.40E-05	1.00E-06	4.00E-06
88	2	4.00E-06	290	1.26E-04	1.40E-05	1.00E-06	4.00E-06
89	1	4.00E-06	290	1.34E-04	1.40E-05	1.00E-06	4.00E-06
90	2	4.00E-06	290	1.42E-04	1.40E-05	1.00E-06	4.00E-06
91	1	4.00E-06	290	1.50E-04	1.40E-05	1.00E-06	4.00E-06
92	2	4.00E-06	290	1.58E-04	1.40E-05	1.00E-06	4.00E-06
93	1	4.00E-06	290	1.66E-04	1.40E-05	1.00E-06	4.00E-06
94	2	4.00E-06	290	1.74E-04	1.40E-05	1.00E-06	4.00E-06
95	1	4.00E-06	290	1.82E-04	1.40E-05	1.00E-06	4.00E-06
96	2	4.00E-06	290	1.90E-04	1.40E-05	1.00E-06	4.00E-06
97	1	4.00E-06	290	6.00E-06	1.80E-05	1.00E-06	4.00E-06
98	2	4.00E-06	290	1.40E-05	1.80E-05	1.00E-06	4.00E-06
99	1	4.00E-06	290	2.20E-05	1.80E-05	1.00E-06	4.00E-06
100	2	4.00E-06	290	3.00E-05	1.80E-05	1.00E-06	4.00E-06
101	1	4.00E-06	290	3.80E-05	1.80E-05	1.00E-06	4.00E-06
102	2	4.00E-06	290	4.60E-05	1.80E-05	1.00E-06	4.00E-06
103	1	4.00E-06	290	5.40E-05	1.80E-05	1.00E-06	4.00E-06
104	2	4.00E-06	290	6.20E-05	1.80E-05	1.00E-06	4.00E-06
105	1	4.00E-06	290	7.00E-05	1.80E-05	1.00E-06	4.00E-06
106	2	4.00E-06	290	7.80E-05	1.80E-05	1.00E-06	4.00E-06
107	1	4.00E-06	290	8.60E-05	1.80E-05	1.00E-06	4.00E-06
108	2	4.00E-06	290	9.40E-05	1.80E-05	1.00E-06	4.00E-06
109	1	4.00E-06	290	1.02E-04	1.80E-05	1.00E-06	4.00E-06
110	2	4.00E-06	290	1.10E-04	1.80E-05	1.00E-06	4.00E-06
111	1	4.00E-06	290	1.18E-04	1.80E-05	1.00E-06	4.00E-06
112	2	4.00E-06	290	1.26E-04	1.80E-05	1.00E-06	4.00E-06
113	1	4.00E-06	290	1.34E-04	1.80E-05	1.00E-06	4.00E-06
114	2	4.00E-06	290	1.42E-04	1.80E-05	1.00E-06	4.00E-06
115	1	4.00E-06	290	1.50E-04	1.80E-05	1.00E-06	4.00E-06
116	2	4.00E-06	290	1.58E-04	1.80E-05	1.00E-06	4.00E-06
117	1	4.00E-06	290	1.66E-04	1.80E-05	1.00E-06	4.00E-06
118	2	4.00E-06	290	1.74E-04	1.80E-05	1.00E-06	4.00E-06
119	1	4.00E-06	290	1.82E-04	1.80E-05	1.00E-06	4.00E-06
120	2	4.00E-06	290	1.90E-04	1.80E-05	1.00E-06	4.00E-06



 Nutrients

     1 o2 l 3.13e-5 3.13e-5 3.13e-5 3.13e-5 3.13e-5 3.13e-5 3.13e-5
     2 h2o l 1 1 1 1 1 1 1
     3 h l 0 0 0 0 0 0 0

 Type Name

     1 hetr
     2 hety

 Diffusion Coeffs
     
     o2 2e-9
     h2o 0
     h 0 

 Ks
     
     hety 9.38e-6 0 0
     hetr 1.88e-5 0 0

 Consumption Rate

     hety 0.000381111
     hetr 0.001524167

 Yield
    
     hety 0.0598373984	
     hetr 0.0299186992

 Maintenance
 
     hety 0.000000528
     hetr 0.00000075

 Electron Donor
    
     hety 0
     hetr 0

 Decay

     hety 0
     hetr 0

 Catabolism Coeffs
         
     hety -1 0 0
     hetr -1 0 0

 Anabolism Coeffs
          
     hety 0 0 0
     hetr 0 0 0
 
 Decay Coeffs
           
     hety 0 0 0
     hetr 0 0 0
 
 Nutrient Energy

    o2 inf 16.4 inf inf inf 2
    h2o inf -237.18 -157.3 inf inf 2
    h inf 0 inf inf inf 2

 Type Energy

     hety inf -68 inf inf inf 2 
     hetr inf -67 inf inf inf 2

 Dissipation

     hety 0
     hetr 0


