ITEM: TIMESTEP
0
ITEM: NUMBER OF ATOMS
120
ITEM: BOX BOUNDS pp pp ff
0.0000000000000000e+00 2.0000000000000001e-04
0.0000000000000000e+00 2.0000000000000002e-05
0.0000000000000000e+00 1.0000000000000000e-04
ITEM: ATOMS id type diameter x y z 
1 1 4e-06 6e-06 2e-06 1e-06 
2 2 4e-06 1.4e-05 2e-06 1e-06 
3 1 4e-06 2.2e-05 2e-06 1e-06 
4 2 4e-06 3e-05 2e-06 1e-06 
5 1 4e-06 3.8e-05 2e-06 1e-06 
6 2 4e-06 4.6e-05 2e-06 1e-06 
7 1 4e-06 5.4e-05 2e-06 1e-06 
8 2 4e-06 6.2e-05 2e-06 1e-06 
9 1 4e-06 7e-05 2e-06 1e-06 
10 2 4e-06 7.8e-05 2e-06 1e-06 
11 1 4e-06 8.6e-05 2e-06 1e-06 
12 2 4e-06 9.4e-05 2e-06 1e-06 
25 1 4e-06 6e-06 6e-06 1e-06 
26 2 4e-06 1.4e-05 6e-06 1e-06 
27 1 4e-06 2.2e-05 6e-06 1e-06 
28 2 4e-06 3e-05 6e-06 1e-06 
29 1 4e-06 3.8e-05 6e-06 1e-06 
30 2 4e-06 4.6e-05 6e-06 1e-06 
31 1 4e-06 5.4e-05 6e-06 1e-06 
32 2 4e-06 6.2e-05 6e-06 1e-06 
33 1 4e-06 7e-05 6e-06 1e-06 
34 2 4e-06 7.8e-05 6e-06 1e-06 
35 1 4e-06 8.6e-05 6e-06 1e-06 
36 2 4e-06 9.4e-05 6e-06 1e-06 
49 1 4e-06 6e-06 1e-05 1e-06 
50 2 4e-06 1.4e-05 1e-05 1e-06 
51 1 4e-06 2.2e-05 1e-05 1e-06 
52 2 4e-06 3e-05 1e-05 1e-06 
53 1 4e-06 3.8e-05 1e-05 1e-06 
54 2 4e-06 4.6e-05 1e-05 1e-06 
55 1 4e-06 5.4e-05 1e-05 1e-06 
56 2 4e-06 6.2e-05 1e-05 1e-06 
57 1 4e-06 7e-05 1e-05 1e-06 
58 2 4e-06 7.8e-05 1e-05 1e-06 
59 1 4e-06 8.6e-05 1e-05 1e-06 
60 2 4e-06 9.4e-05 1e-05 1e-06 
73 1 4e-06 6e-06 1.4e-05 1e-06 
74 2 4e-06 1.4e-05 1.4e-05 1e-06 
75 1 4e-06 2.2e-05 1.4e-05 1e-06 
76 2 4e-06 3e-05 1.4e-05 1e-06 
77 1 4e-06 3.8e-05 1.4e-05 1e-06 
78 2 4e-06 4.6e-05 1.4e-05 1e-06 
79 1 4e-06 5.4e-05 1.4e-05 1e-06 
80 2 4e-06 6.2e-05 1.4e-05 1e-06 
81 1 4e-06 7e-05 1.4e-05 1e-06 
82 2 4e-06 7.8e-05 1.4e-05 1e-06 
83 1 4e-06 8.6e-05 1.4e-05 1e-06 
84 2 4e-06 9.4e-05 1.4e-05 1e-06 
97 1 4e-06 6e-06 1.8e-05 1e-06 
98 2 4e-06 1.4e-05 1.8e-05 1e-06 
99 1 4e-06 2.2e-05 1.8e-05 1e-06 
100 2 4e-06 3e-05 1.8e-05 1e-06 
101 1 4e-06 3.8e-05 1.8e-05 1e-06 
102 2 4e-06 4.6e-05 1.8e-05 1e-06 
103 1 4e-06 5.4e-05 1.8e-05 1e-06 
104 2 4e-06 6.2e-05 1.8e-05 1e-06 
105 1 4e-06 7e-05 1.8e-05 1e-06 
106 2 4e-06 7.8e-05 1.8e-05 1e-06 
107 1 4e-06 8.6e-05 1.8e-05 1e-06 
108 2 4e-06 9.4e-05 1.8e-05 1e-06 
13 1 4e-06 0.000102 2e-06 1e-06 
14 2 4e-06 0.00011 2e-06 1e-06 
15 1 4e-06 0.000118 2e-06 1e-06 
16 2 4e-06 0.000126 2e-06 1e-06 
17 1 4e-06 0.000134 2e-06 1e-06 
18 2 4e-06 0.000142 2e-06 1e-06 
19 1 4e-06 0.00015 2e-06 1e-06 
20 2 4e-06 0.000158 2e-06 1e-06 
21 1 4e-06 0.000166 2e-06 1e-06 
22 2 4e-06 0.000174 2e-06 1e-06 
23 1 4e-06 0.000182 2e-06 1e-06 
24 2 4e-06 0.00019 2e-06 1e-06 
37 1 4e-06 0.000102 6e-06 1e-06 
38 2 4e-06 0.00011 6e-06 1e-06 
39 1 4e-06 0.000118 6e-06 1e-06 
40 2 4e-06 0.000126 6e-06 1e-06 
41 1 4e-06 0.000134 6e-06 1e-06 
42 2 4e-06 0.000142 6e-06 1e-06 
43 1 4e-06 0.00015 6e-06 1e-06 
44 2 4e-06 0.000158 6e-06 1e-06 
45 1 4e-06 0.000166 6e-06 1e-06 
46 2 4e-06 0.000174 6e-06 1e-06 
47 1 4e-06 0.000182 6e-06 1e-06 
48 2 4e-06 0.00019 6e-06 1e-06 
61 1 4e-06 0.000102 1e-05 1e-06 
62 2 4e-06 0.00011 1e-05 1e-06 
63 1 4e-06 0.000118 1e-05 1e-06 
64 2 4e-06 0.000126 1e-05 1e-06 
65 1 4e-06 0.000134 1e-05 1e-06 
66 2 4e-06 0.000142 1e-05 1e-06 
67 1 4e-06 0.00015 1e-05 1e-06 
68 2 4e-06 0.000158 1e-05 1e-06 
69 1 4e-06 0.000166 1e-05 1e-06 
70 2 4e-06 0.000174 1e-05 1e-06 
71 1 4e-06 0.000182 1e-05 1e-06 
72 2 4e-06 0.00019 1e-05 1e-06 
85 1 4e-06 0.000102 1.4e-05 1e-06 
86 2 4e-06 0.00011 1.4e-05 1e-06 
87 1 4e-06 0.000118 1.4e-05 1e-06 
88 2 4e-06 0.000126 1.4e-05 1e-06 
89 1 4e-06 0.000134 1.4e-05 1e-06 
90 2 4e-06 0.000142 1.4e-05 1e-06 
91 1 4e-06 0.00015 1.4e-05 1e-06 
92 2 4e-06 0.000158 1.4e-05 1e-06 
93 1 4e-06 0.000166 1.4e-05 1e-06 
94 2 4e-06 0.000174 1.4e-05 1e-06 
95 1 4e-06 0.000182 1.4e-05 1e-06 
96 2 4e-06 0.00019 1.4e-05 1e-06 
109 1 4e-06 0.000102 1.8e-05 1e-06 
110 2 4e-06 0.00011 1.8e-05 1e-06 
111 1 4e-06 0.000118 1.8e-05 1e-06 
112 2 4e-06 0.000126 1.8e-05 1e-06 
113 1 4e-06 0.000134 1.8e-05 1e-06 
114 2 4e-06 0.000142 1.8e-05 1e-06 
115 1 4e-06 0.00015 1.8e-05 1e-06 
116 2 4e-06 0.000158 1.8e-05 1e-06 
117 1 4e-06 0.000166 1.8e-05 1e-06 
118 2 4e-06 0.000174 1.8e-05 1e-06 
119 1 4e-06 0.000182 1.8e-05 1e-06 
120 2 4e-06 0.00019 1.8e-05 1e-06 
ITEM: TIMESTEP
3600
ITEM: NUMBER OF ATOMS
240
ITEM: BOX BOUNDS pp pp ff
0.0000000000000000e+00 2.0000000000000001e-04
0.0000000000000000e+00 2.0000000000000002e-05
0.0000000000000000e+00 1.0000000000000000e-04
ITEM: ATOMS id type diameter x y z 
4 2 3.1456e-06 3.0653e-05 3.44414e-06 3.44414e-06 
6 2 2.99524e-06 4.43968e-05 3.27953e-06 3.43324e-06 
7 1 3.16996e-06 5.06804e-05 3.47285e-06 3.47285e-06 
128 2 3.14878e-06 6.36487e-05 3.44778e-06 3.44778e-06 
129 1 3.12605e-06 7.16121e-05 3.42873e-06 3.42873e-06 
29 1 2.96216e-06 3.51538e-05 4.78712e-06 3.24653e-06 
30 2 2.98141e-06 4.8803e-05 4.76263e-06 3.26573e-06 
11 1 3.06882e-06 8.67778e-05 4.86484e-06 3.36363e-06 
133 1 2.99479e-06 6.87066e-06 5.76281e-06 3.27855e-06 
134 2 3.0119e-06 1.40391e-05 5.7218e-06 3.3012e-06 
140 2 3.10167e-06 6.53779e-05 5.5454e-06 3.39682e-06 
147 1 3.03022e-06 2.21687e-05 6.70717e-06 3.322e-06 
27 1 3.14873e-06 2.51608e-05 7.17281e-06 3.45043e-06 
145 1 3.17274e-06 9.15686e-06 8.55345e-06 3.47478e-06 
142 2 3.09586e-06 7.66454e-05 8.89859e-06 3.38976e-06 
143 1 2.9761e-06 8.73071e-05 8.74534e-06 3.28776e-06 
31 1 3.05548e-06 5.52739e-05 9.0255e-06 3.35087e-06 
153 1 3.10058e-06 6.99005e-05 9.47725e-06 3.40122e-06 
58 2 3.05261e-06 7.47602e-05 9.13624e-06 3.34308e-06 
54 2 3.1221e-06 4.60117e-05 9.98352e-06 3.41916e-06 
56 2 2.98724e-06 6.33563e-05 1.05987e-05 3.27118e-06 
79 1 3.17372e-06 5.20571e-05 1.11091e-05 3.48055e-06 
162 2 3.06089e-06 4.81811e-05 1.17184e-05 3.35215e-06 
80 2 2.99973e-06 5.9435e-05 1.19436e-05 3.28509e-06 
151 1 3.00505e-06 5.42634e-05 1.32228e-05 3.29218e-06 
84 2 3.13393e-06 9.48432e-05 1.39431e-05 3.43415e-06 
73 1 3.14925e-06 7.3291e-06 1.42189e-05 3.44853e-06 
174 2 3.07185e-06 4.7884e-05 1.53685e-05 3.36233e-06 
82 2 2.98659e-06 7.53467e-05 1.55759e-05 3.27065e-06 
169 1 3.14732e-06 5.36709e-06 1.64268e-05 3.44638e-06 
98 2 3.12483e-06 1.50956e-05 1.65767e-05 3.42333e-06 
175 1 3.11106e-06 5.44551e-05 1.65872e-05 3.41284e-06 
104 2 3.0401e-06 6.50917e-05 1.66693e-05 3.33072e-06 
177 1 2.97877e-06 7.14756e-05 1.67345e-05 3.26552e-06 
178 2 3.11e-06 7.9446e-05 1.65937e-05 3.40626e-06 
83 1 3.15319e-06 8.73531e-05 1.65344e-05 3.45923e-06 
33 1 3.06251e-06 7.00801e-05 3.35904e-06 3.88844e-06 
121 1 3.30024e-06 3.60955e-06 3.60955e-06 3.60955e-06 
123 1 3.28954e-06 2.28437e-05 3.60694e-06 3.60694e-06 
5 1 3.342e-06 3.74275e-05 3.66254e-06 3.66254e-06 
139 1 3.30761e-06 5.26212e-05 3.62687e-06 3.62687e-06 
127 1 3.2082e-06 5.73604e-05 3.51554e-06 3.51554e-06 
10 2 3.20759e-06 7.91233e-05 3.51429e-06 3.51429e-06 
34 2 3.27941e-06 7.94358e-05 3.59298e-06 3.59298e-06 
35 1 3.37074e-06 8.45206e-05 3.69632e-06 3.69632e-06 
132 2 3.24634e-06 9.48265e-05 3.55647e-06 3.55647e-06 
181 1 3.29378e-06 9.91889e-05 3.60955e-06 3.60955e-06 
122 2 3.34892e-06 1.21344e-05 4.50748e-06 3.67059e-06 
135 1 3.2276e-06 1.87598e-05 4.819e-06 3.53714e-06 
126 2 3.36435e-06 4.78017e-05 5.16709e-06 3.68553e-06 
8 2 3.23219e-06 6.03074e-05 5.15824e-06 3.53966e-06 
55 1 3.35256e-06 5.37059e-05 6.35569e-06 3.67544e-06 
32 2 3.27403e-06 5.84333e-05 6.50162e-06 3.58667e-06 
144 2 3.28987e-06 9.53663e-05 6.79868e-06 3.60389e-06 
136 2 3.36746e-06 3.25232e-05 7.47889e-06 3.69135e-06 
137 1 3.38454e-06 4.12536e-05 7.40901e-06 3.71122e-06 
138 2 3.3707e-06 4.28273e-05 7.42295e-06 3.69638e-06 
141 1 3.2999e-06 6.99137e-05 9.04563e-06 3.61987e-06 
149 1 3.29685e-06 3.80407e-05 9.66353e-06 3.61751e-06 
158 2 2.99532e-06 1.32053e-05 1.09894e-05 3.80232e-06 
148 2 3.27946e-06 3.1484e-05 1.06112e-05 3.59129e-06 
154 2 3.31668e-06 8.15213e-05 1.08931e-05 3.63349e-06 
49 1 3.21283e-06 3.51365e-06 1.14187e-05 3.51365e-06 
75 1 3.2582e-06 2.18018e-05 1.10428e-05 3.571e-06 
77 1 3.27507e-06 3.64075e-05 1.13461e-05 3.5936e-06 
59 1 3.35718e-06 8.48598e-05 1.14962e-05 3.68398e-06 
156 2 3.2516e-06 9.13438e-05 1.11622e-05 3.56223e-06 
61 1 3.20625e-06 9.88078e-05 1.14187e-05 3.51365e-06 
146 2 3.34749e-06 1.40606e-05 1.18826e-05 3.66835e-06 
160 2 3.21432e-06 2.74462e-05 1.19099e-05 3.52088e-06 
165 1 3.34476e-06 6.75599e-05 1.15451e-05 3.66552e-06 
166 2 3.37116e-06 8.09956e-05 1.20989e-05 3.74847e-06 
51 1 3.33158e-06 2.18146e-05 1.35731e-05 3.65114e-06 
106 2 3.26724e-06 7.6481e-05 1.51408e-05 3.57815e-06 
76 2 3.16657e-06 3.25149e-05 1.59447e-05 3.9115e-06 
173 1 3.25177e-06 3.88731e-05 1.57086e-05 3.56401e-06 
108 2 3.23108e-06 9.24127e-05 1.57178e-05 3.54061e-06 
74 2 3.36207e-06 1.48917e-05 1.63168e-05 3.68323e-06 
171 1 3.33358e-06 2.12417e-05 1.63443e-05 3.65568e-06 
100 2 3.23977e-06 2.71588e-05 1.6452e-05 3.54805e-06 
78 2 3.30936e-06 4.36408e-05 1.63487e-05 3.953e-06 
102 2 3.30137e-06 4.39733e-05 1.6383e-05 3.61703e-06 
163 1 3.19779e-06 5.59582e-05 1.6492e-05 3.50799e-06 
176 2 3.3268e-06 5.86176e-05 1.63561e-05 3.64389e-06 
164 2 3.35991e-06 6.48742e-05 1.61829e-05 3.68111e-06 
81 1 3.0162e-06 7.21998e-05 1.61042e-05 3.79811e-06 
179 1 3.23279e-06 8.40345e-05 1.64534e-05 3.54656e-06 
2 2 3.01717e-06 1.56763e-05 3.29822e-06 4.45971e-06 
131 1 3.30613e-06 8.51639e-05 3.6159e-06 4.47858e-06 
28 2 2.99398e-06 2.77633e-05 4.70889e-06 4.05811e-06 
125 1 3.02645e-06 3.85171e-05 4.92343e-06 4.23882e-06 
60 2 3.13135e-06 9.65529e-05 8.84006e-06 4.04889e-06 
167 1 3.22408e-06 8.46198e-05 1.12991e-05 4.48501e-06 
161 1 3.09736e-06 3.95019e-05 1.63916e-05 4.39587e-06 
172 2 3.14626e-06 3.27538e-05 1.65611e-05 4.08617e-06 
101 1 3.12723e-06 3.71618e-05 1.65783e-05 4.42515e-06 
180 2 3.15279e-06 9.55453e-05 1.65532e-05 4.06267e-06 
1 1 3.0853e-06 8.62525e-06 3.37094e-06 4.54002e-06 
50 2 3.02054e-06 1.39455e-05 8.26432e-06 4.88227e-06 
155 1 2.99818e-06 8.70156e-05 8.62581e-06 4.87349e-06 
170 2 3.25928e-06 1.28599e-05 1.63136e-05 4.89341e-06 
159 1 3.11968e-06 2.21895e-05 1.65859e-05 4.57841e-06 
107 1 3.14627e-06 8.79067e-05 1.65595e-05 4.57176e-06 
36 2 3.08949e-06 9.27196e-05 5.27187e-06 5.0845e-06 
52 2 3.10394e-06 2.85985e-05 9.38019e-06 5.09135e-06 
152 2 3.3791e-06 6.04691e-05 9.27765e-06 5.34894e-06 
53 1 3.07499e-06 3.79622e-05 1.02704e-05 5.40795e-06 
97 1 3.24055e-06 6.65028e-06 1.6459e-05 5.05512e-06 
103 1 3.26882e-06 5.35236e-05 1.61898e-05 5.00963e-06 
105 1 3.38046e-06 6.83297e-05 1.63035e-05 5.32611e-06 
99 1 3.03048e-06 2.2688e-05 1.66835e-05 5.26795e-06 
3 1 3.08568e-06 2.12108e-05 3.37394e-06 5.83853e-06 
130 2 3.17913e-06 7.68895e-05 3.47412e-06 5.89425e-06 
12 2 3.13717e-06 9.32029e-05 3.42988e-06 5.96437e-06 
124 2 3.24211e-06 2.93283e-05 3.5431e-06 5.99466e-06 
9 1 3.25372e-06 6.83273e-05 3.55754e-06 5.79129e-06 
25 1 3.37375e-06 5.02105e-06 6.28902e-06 5.59116e-06 
26 2 3.35518e-06 1.39565e-05 6.33131e-06 5.70125e-06 
150 2 3.26408e-06 4.59878e-05 9.97244e-06 5.62644e-06 
57 1 3.27753e-06 7.01048e-05 1.05057e-05 5.60247e-06 
157 1 3.239e-06 4.63605e-06 1.36594e-05 5.83847e-06 
168 2 3.24929e-06 9.31277e-05 1.39425e-05 6.02806e-06 
16 2 3.14541e-06 0.000126653 3.44414e-06 3.44414e-06 
18 2 2.99522e-06 0.000140397 3.27953e-06 3.43324e-06 
19 1 3.16997e-06 0.00014668 3.47285e-06 3.47285e-06 
188 2 3.14891e-06 0.000159649 3.44778e-06 3.44778e-06 
189 1 3.12628e-06 0.000167612 3.42873e-06 3.42873e-06 
41 1 2.96203e-06 0.000131154 4.78712e-06 3.24653e-06 
42 2 2.98142e-06 0.000144803 4.76263e-06 3.26573e-06 
23 1 3.07045e-06 0.000182778 4.86484e-06 3.36363e-06 
193 1 2.99152e-06 0.000102871 5.76281e-06 3.27855e-06 
194 2 3.01101e-06 0.000110039 5.7218e-06 3.3012e-06 
200 2 3.10185e-06 0.000161378 5.5454e-06 3.39682e-06 
207 1 3.02985e-06 0.000118169 6.70717e-06 3.322e-06 
39 1 3.14846e-06 0.000121161 7.17281e-06 3.45043e-06 
205 1 3.17082e-06 0.000105157 8.55345e-06 3.47478e-06 
202 2 3.09645e-06 0.000172645 8.89859e-06 3.38976e-06 
203 1 2.97734e-06 0.000183307 8.74534e-06 3.28776e-06 
43 1 3.05551e-06 0.000151274 9.0255e-06 3.35087e-06 
213 1 3.1008e-06 0.0001659 9.47725e-06 3.40122e-06 
70 2 3.05301e-06 0.00017076 9.13624e-06 3.34308e-06 
66 2 3.12209e-06 0.000142012 9.98352e-06 3.41916e-06 
68 2 2.98735e-06 0.000159356 1.05987e-05 3.27118e-06 
91 1 3.17376e-06 0.000148057 1.11091e-05 3.48055e-06 
222 2 3.0609e-06 0.000144181 1.17184e-05 3.35215e-06 
92 2 2.99981e-06 0.000155435 1.19436e-05 3.28509e-06 
211 1 3.0051e-06 0.000150263 1.32228e-05 3.29218e-06 
96 2 3.13883e-06 0.000190843 1.39431e-05 3.43415e-06 
85 1 3.1459e-06 0.000103329 1.42189e-05 3.44853e-06 
234 2 3.07183e-06 0.000143884 1.53685e-05 3.36233e-06 
94 2 2.98697e-06 0.000171347 1.55759e-05 3.27065e-06 
229 1 3.1441e-06 0.000101367 1.64268e-05 3.44638e-06 
110 2 3.12385e-06 0.000111096 1.65767e-05 3.42333e-06 
235 1 3.1111e-06 0.000150455 1.65872e-05 3.41284e-06 
116 2 3.04025e-06 0.000161092 1.66693e-05 3.33072e-06 
237 1 2.97901e-06 0.000167476 1.67345e-05 3.26552e-06 
238 2 3.11059e-06 0.000175446 1.65937e-05 3.40626e-06 
95 1 3.15458e-06 0.000183353 1.65344e-05 3.45923e-06 
45 1 3.06273e-06 0.00016608 3.35904e-06 3.88844e-06 
183 1 3.28914e-06 0.000118844 3.60694e-06 3.60694e-06 
17 1 3.34191e-06 0.000133427 3.66254e-06 3.66254e-06 
199 1 3.30765e-06 0.000148621 3.62687e-06 3.62687e-06 
187 1 3.20829e-06 0.00015336 3.51554e-06 3.51554e-06 
22 2 3.20817e-06 0.000175123 3.51429e-06 3.51429e-06 
46 2 3.28e-06 0.000175436 3.59298e-06 3.59298e-06 
47 1 3.37242e-06 0.000180521 3.69632e-06 3.69632e-06 
192 2 3.25218e-06 0.000190826 3.55647e-06 3.55647e-06 
182 2 3.34793e-06 0.000108134 4.50748e-06 3.67059e-06 
195 1 3.22693e-06 0.00011476 4.819e-06 3.53714e-06 
186 2 3.36434e-06 0.000143802 5.16709e-06 3.68553e-06 
20 2 3.23232e-06 0.000156307 5.15824e-06 3.53966e-06 
67 1 3.35261e-06 0.000149706 6.35569e-06 3.67544e-06 
44 2 3.27411e-06 0.000154433 6.50162e-06 3.58667e-06 
204 2 3.29544e-06 0.000191366 6.79868e-06 3.60389e-06 
196 2 3.36734e-06 0.000128523 7.47889e-06 3.69135e-06 
197 1 3.3845e-06 0.000137254 7.40901e-06 3.71122e-06 
198 2 3.37067e-06 0.000138827 7.42295e-06 3.69638e-06 
201 1 3.30014e-06 0.000165914 9.04563e-06 3.61987e-06 
209 1 3.29679e-06 0.000134041 9.66353e-06 3.61751e-06 
218 2 2.99445e-06 0.000109205 1.09894e-05 3.80232e-06 
208 2 3.27926e-06 0.000127484 1.06112e-05 3.59129e-06 
214 2 3.31756e-06 0.000177521 1.08931e-05 3.63349e-06 
87 1 3.25778e-06 0.000117802 1.10428e-05 3.571e-06 
89 1 3.275e-06 0.000132407 1.13461e-05 3.5936e-06 
71 1 3.35858e-06 0.00018086 1.14962e-05 3.68398e-06 
216 2 3.25473e-06 0.000187344 1.11622e-05 3.56223e-06 
206 2 3.34652e-06 0.000110061 1.18826e-05 3.66835e-06 
220 2 3.21406e-06 0.000123446 1.19099e-05 3.52088e-06 
225 1 3.34495e-06 0.00016356 1.15451e-05 3.66552e-06 
226 2 3.37214e-06 0.000176996 1.20989e-05 3.74847e-06 
63 1 3.33113e-06 0.000117815 1.35731e-05 3.65114e-06 
118 2 3.26786e-06 0.000172481 1.51408e-05 3.57815e-06 
88 2 3.16644e-06 0.000128515 1.59447e-05 3.9115e-06 
233 1 3.25169e-06 0.000134873 1.57086e-05 3.56401e-06 
120 2 3.23614e-06 0.000188413 1.57178e-05 3.54061e-06 
86 2 3.36101e-06 0.000110892 1.63168e-05 3.68323e-06 
231 1 3.33318e-06 0.000117242 1.63443e-05 3.65568e-06 
112 2 3.23951e-06 0.000123159 1.6452e-05 3.54805e-06 
90 2 3.30932e-06 0.000139641 1.63487e-05 3.953e-06 
114 2 3.30133e-06 0.000139973 1.6383e-05 3.61703e-06 
223 1 3.19783e-06 0.000151958 1.6492e-05 3.50799e-06 
236 2 3.32689e-06 0.000154618 1.63561e-05 3.64389e-06 
224 2 3.36009e-06 0.000160874 1.61829e-05 3.68111e-06 
93 1 3.01663e-06 0.0001682 1.61042e-05 3.79811e-06 
239 1 3.23422e-06 0.000180035 1.64534e-05 3.54656e-06 
14 2 3.01622e-06 0.000111676 3.29822e-06 4.45971e-06 
191 1 3.30794e-06 0.000181164 3.6159e-06 4.47858e-06 
40 2 2.9937e-06 0.000123763 4.70889e-06 4.05811e-06 
185 1 3.02634e-06 0.000134517 4.92343e-06 4.23882e-06 
72 2 3.13758e-06 0.000192553 8.84006e-06 4.04889e-06 
227 1 3.22566e-06 0.00018062 1.12991e-05 4.48501e-06 
221 1 3.09726e-06 0.000135502 1.63916e-05 4.39587e-06 
232 2 3.14611e-06 0.000128754 1.65611e-05 4.08617e-06 
113 1 3.12713e-06 0.000133162 1.65783e-05 4.42515e-06 
240 2 3.15686e-06 0.000191545 1.65532e-05 4.06267e-06 
13 1 3.08334e-06 0.000104625 3.37094e-06 4.54002e-06 
62 2 3.01955e-06 0.000109945 8.26432e-06 4.88227e-06 
215 1 2.99965e-06 0.000183016 8.62581e-06 4.87349e-06 
230 2 3.25823e-06 0.00010886 1.63136e-05 4.89341e-06 
219 1 3.11922e-06 0.00011819 1.65859e-05 4.57841e-06 
119 1 3.14801e-06 0.000183907 1.65595e-05 4.57176e-06 
48 2 3.09347e-06 0.00018872 5.27187e-06 5.0845e-06 
64 2 3.10372e-06 0.000124599 9.38019e-06 5.09135e-06 
212 2 3.37926e-06 0.000156469 9.27765e-06 5.34894e-06 
65 1 3.07488e-06 0.000133962 1.02704e-05 5.40795e-06 
109 1 3.2373e-06 0.00010265 1.6459e-05 5.05512e-06 
115 1 3.26889e-06 0.000149524 1.61898e-05 5.00963e-06 
117 1 3.38083e-06 0.00016433 1.63035e-05 5.32611e-06 
111 1 3.03004e-06 0.000118688 1.66835e-05 5.26795e-06 
15 1 3.08518e-06 0.000117211 3.37394e-06 5.83853e-06 
190 2 3.17977e-06 0.00017289 3.47412e-06 5.89425e-06 
24 2 3.14124e-06 0.000189203 3.42988e-06 5.96437e-06 
184 2 3.24189e-06 0.000125328 3.5431e-06 5.99466e-06 
21 1 3.25408e-06 0.000164327 3.55754e-06 5.79129e-06 
37 1 3.37023e-06 0.000101021 6.28902e-06 5.59116e-06 
38 2 3.35412e-06 0.000109957 6.33131e-06 5.70125e-06 
210 2 3.26406e-06 0.000141988 9.97244e-06 5.62644e-06 
69 1 3.2779e-06 0.000166105 1.05057e-05 5.60247e-06 
217 1 3.23561e-06 0.000100636 1.36594e-05 5.83847e-06 
228 2 3.25338e-06 0.000189128 1.39425e-05 6.02806e-06 
ITEM: TIMESTEP
7200
ITEM: NUMBER OF ATOMS
240
ITEM: BOX BOUNDS pp pp ff
0.0000000000000000e+00 2.0000000000000001e-04
0.0000000000000000e+00 2.0000000000000002e-05
0.0000000000000000e+00 1.0000000000000000e-04
ITEM: ATOMS id type diameter x y z 
30 2 2.99419e-06 4.95076e-05 5.03227e-06 2.38655e-06 
83 1 3.16323e-06 8.69877e-05 1.65162e-05 2.44871e-06 
35 1 3.38325e-06 8.37911e-05 3.79064e-06 2.60703e-06 
143 1 2.98414e-06 8.74153e-05 8.78858e-06 2.69918e-06 
149 1 3.30832e-06 3.79398e-05 9.46216e-06 2.92222e-06 
153 1 3.11202e-06 7.00241e-05 1.07093e-05 2.55368e-06 
59 1 3.36625e-06 8.51842e-05 1.17697e-05 2.56151e-06 
173 1 3.26486e-06 3.86744e-05 1.50764e-05 2.82661e-06 
169 1 3.16191e-06 4.98746e-06 1.6428e-05 2.98299e-06 
102 2 3.31745e-06 4.49524e-05 1.64844e-05 2.62151e-06 
82 2 2.99943e-06 7.47827e-05 1.60172e-05 2.73059e-06 
175 1 3.12224e-06 5.37858e-05 1.68101e-05 2.71988e-06 
177 1 2.99002e-06 7.08419e-05 1.73164e-05 2.75751e-06 
98 2 3.14049e-06 1.56259e-05 1.75494e-05 2.57829e-06 
104 2 3.05383e-06 6.55015e-05 1.75839e-05 2.67079e-06 
5 1 3.35566e-06 3.70742e-05 2.80718e-06 3.35369e-06 
4 2 3.16112e-06 3.07437e-05 3.43501e-06 3.26618e-06 
6 2 3.00917e-06 4.43968e-05 3.27953e-06 3.43324e-06 
128 2 3.1627e-06 6.35228e-05 3.29244e-06 3.4519e-06 
129 1 3.13854e-06 7.23893e-05 3.47432e-06 3.2491e-06 
10 2 3.2211e-06 7.76894e-05 3.13351e-06 3.0515e-06 
132 2 3.2602e-06 9.49088e-05 3.30504e-06 3.38947e-06 
123 1 3.30123e-06 2.29616e-05 3.62148e-06 3.44609e-06 
29 1 2.97321e-06 3.48105e-05 4.98298e-06 3.18952e-06 
11 1 3.08072e-06 8.72105e-05 5.18093e-06 3.10307e-06 
133 1 3.0091e-06 6.87066e-06 5.76281e-06 3.27855e-06 
134 2 3.0256e-06 1.42871e-05 5.82049e-06 3.00166e-06 
140 2 3.11479e-06 6.55064e-05 5.69857e-06 3.39299e-06 
147 1 3.04161e-06 2.21687e-05 6.70717e-06 3.322e-06 
144 2 3.3042e-06 9.50717e-05 6.56388e-06 3.06909e-06 
27 1 3.16085e-06 2.51608e-05 7.17281e-06 3.45043e-06 
137 1 3.39794e-06 4.04644e-05 7.50136e-06 3.41646e-06 
145 1 3.18696e-06 9.15686e-06 8.55345e-06 3.47478e-06 
142 2 3.11026e-06 7.72403e-05 8.82235e-06 3.40447e-06 
31 1 3.06513e-06 5.54847e-05 9.36217e-06 3.30463e-06 
58 2 3.06644e-06 7.41652e-05 9.21248e-06 3.32836e-06 
54 2 3.13627e-06 4.59624e-05 9.9436e-06 3.02663e-06 
56 2 3.00045e-06 6.33563e-05 1.05987e-05 3.27118e-06 
79 1 3.18375e-06 5.20571e-05 1.11091e-05 3.48055e-06 
162 2 3.07469e-06 4.83358e-05 1.18451e-05 3.35128e-06 
80 2 3.01296e-06 5.9435e-05 1.19436e-05 3.28509e-06 
146 2 3.36326e-06 1.49636e-05 1.2107e-05 3.40208e-06 
151 1 3.01755e-06 5.42634e-05 1.32228e-05 3.29218e-06 
84 2 3.14645e-06 9.49011e-05 1.36394e-05 3.30309e-06 
73 1 3.16378e-06 7.40389e-06 1.40559e-05 3.36092e-06 
174 2 3.08723e-06 4.7884e-05 1.53685e-05 3.36233e-06 
171 1 3.34341e-06 2.00331e-05 1.61199e-05 3.06058e-06 
178 2 3.12387e-06 7.97604e-05 1.66943e-05 3.37788e-06 
7 1 3.18291e-06 5.05158e-05 2.36428e-06 3.75997e-06 
139 1 3.31869e-06 5.36501e-05 3.48039e-06 3.67267e-06 
33 1 3.07406e-06 6.93332e-05 3.23476e-06 3.67003e-06 
121 1 3.31938e-06 3.60955e-06 3.60955e-06 3.60955e-06 
127 1 3.22001e-06 5.73604e-05 3.51554e-06 3.51554e-06 
181 1 3.30674e-06 9.91889e-05 3.60955e-06 3.60955e-06 
122 2 3.36396e-06 1.18026e-05 4.2969e-06 3.74274e-06 
135 1 3.24129e-06 1.87598e-05 4.819e-06 3.53714e-06 
28 2 3.00518e-06 2.76501e-05 4.79104e-06 3.91519e-06 
8 2 3.24615e-06 6.06315e-05 4.92392e-06 3.53168e-06 
55 1 3.36411e-06 5.3548e-05 6.99114e-06 3.80395e-06 
32 2 3.28743e-06 5.81124e-05 6.74005e-06 3.59493e-06 
136 2 3.37973e-06 3.25232e-05 7.47889e-06 3.69135e-06 
138 2 3.38471e-06 4.40267e-05 7.41242e-06 3.70499e-06 
154 2 3.33045e-06 8.18808e-05 9.96617e-06 3.5282e-06 
158 2 3.00919e-06 1.21249e-05 1.03865e-05 3.82585e-06 
75 1 3.27124e-06 2.17258e-05 1.02489e-05 3.536e-06 
148 2 3.29437e-06 3.1484e-05 1.06112e-05 3.59129e-06 
49 1 3.23175e-06 3.51365e-06 1.14187e-05 3.51365e-06 
156 2 3.2655e-06 9.13438e-05 1.11622e-05 3.56223e-06 
61 1 3.21886e-06 9.88078e-05 1.14187e-05 3.51364e-06 
160 2 3.22878e-06 2.74462e-05 1.19099e-05 3.52088e-06 
77 1 3.28719e-06 3.58598e-05 1.19096e-05 3.56602e-06 
165 1 3.35718e-06 6.72504e-05 1.17839e-05 3.73665e-06 
166 2 3.38586e-06 8.06051e-05 1.30151e-05 3.83886e-06 
51 1 3.34486e-06 2.24044e-05 1.36544e-05 3.77061e-06 
76 2 3.18131e-06 3.20953e-05 1.48631e-05 3.60466e-06 
106 2 3.28198e-06 7.73146e-05 1.4605e-05 3.92384e-06 
108 2 3.244e-06 9.23868e-05 1.57261e-05 3.57921e-06 
100 2 3.25507e-06 2.71588e-05 1.6452e-05 3.54805e-06 
176 2 3.34022e-06 5.96152e-05 1.63174e-05 3.65515e-06 
179 1 3.24309e-06 8.40345e-05 1.64534e-05 3.54656e-06 
159 1 3.12888e-06 2.29949e-05 1.71257e-05 3.59933e-06 
2 2 3.0373e-06 1.56763e-05 3.29822e-06 4.45971e-06 
34 2 3.29941e-06 8.08165e-05 3.97055e-06 4.0157e-06 
126 2 3.3863e-06 4.67904e-05 5.45808e-06 4.25007e-06 
141 1 3.31937e-06 6.99215e-05 7.76073e-06 4.15626e-06 
60 2 3.15089e-06 9.6653e-05 9.25242e-06 4.38924e-06 
164 2 3.38123e-06 6.44644e-05 1.52683e-05 4.3411e-06 
81 1 3.03625e-06 7.24811e-05 1.55174e-05 4.46565e-06 
163 1 3.21797e-06 5.64842e-05 1.6297e-05 4.03589e-06 
180 2 3.17201e-06 9.55923e-05 1.67415e-05 4.11089e-06 
172 2 3.16709e-06 3.31734e-05 1.76426e-05 4.39311e-06 
1 1 3.10611e-06 8.62525e-06 3.37094e-06 4.54002e-06 
125 1 3.04596e-06 3.87467e-05 5.28328e-06 4.81827e-06 
36 2 3.10915e-06 9.2542e-05 5.78465e-06 4.85239e-06 
50 2 3.04087e-06 1.44158e-05 8.49291e-06 4.70818e-06 
74 2 3.38444e-06 1.46525e-05 1.52343e-05 4.51318e-06 
78 2 3.33095e-06 4.27259e-05 1.62122e-05 4.99486e-06 
101 1 3.14411e-06 3.64722e-05 1.68263e-05 4.65842e-06 
131 1 3.32575e-06 8.5761e-05 3.40963e-06 5.48931e-06 
155 1 3.01359e-06 8.69074e-05 8.58257e-06 5.46206e-06 
52 2 3.12543e-06 2.85985e-05 9.38019e-06 5.09135e-06 
152 2 3.40106e-06 6.04691e-05 9.27765e-06 5.34894e-06 
105 1 3.40014e-06 6.83297e-05 1.63035e-05 5.32611e-06 
170 2 3.28029e-06 1.18074e-05 1.65081e-05 5.41218e-06 
107 1 3.16597e-06 8.83474e-05 1.65785e-05 5.46912e-06 
161 1 3.11408e-06 3.96995e-05 1.72117e-05 5.26458e-06 
3 1 3.10584e-06 2.10934e-05 3.35492e-06 5.99932e-06 
25 1 3.39653e-06 5.02105e-06 6.28902e-06 5.59116e-06 
53 1 3.09442e-06 3.7987e-05 1.0415e-05 5.98453e-06 
167 1 3.24066e-06 8.43199e-05 1.10327e-05 5.6158e-06 
157 1 3.26083e-06 4.63605e-06 1.36594e-05 5.83847e-06 
103 1 3.28914e-06 5.32091e-05 1.60088e-05 5.71682e-06 
97 1 3.26191e-06 6.99512e-06 1.65145e-05 5.53944e-06 
12 2 3.15663e-06 9.33133e-05 2.91579e-06 6.24779e-06 
124 2 3.26437e-06 2.93543e-05 3.4885e-06 6.18525e-06 
130 2 3.19962e-06 7.67764e-05 3.47578e-06 6.0588e-06 
9 1 3.2739e-06 6.7876e-05 3.63969e-06 6.44477e-06 
26 2 3.37693e-06 1.3911e-05 5.76244e-06 6.24211e-06 
150 2 3.28585e-06 4.59881e-05 9.97515e-06 6.02641e-06 
57 1 3.2965e-06 7.01528e-05 1.08111e-05 6.1166e-06 
168 2 3.26939e-06 9.31277e-05 1.39425e-05 6.02806e-06 
99 1 3.05049e-06 2.31179e-05 1.66119e-05 6.56472e-06 
42 2 2.9942e-06 0.000145508 5.03242e-06 2.38647e-06 
95 1 3.16596e-06 0.000182989 1.65162e-05 2.44777e-06 
47 1 3.38585e-06 0.000179793 3.79061e-06 2.60333e-06 
203 1 2.98649e-06 0.000183415 8.78858e-06 2.69918e-06 
209 1 3.30818e-06 0.00013394 9.46223e-06 2.92232e-06 
213 1 3.11248e-06 0.000166025 1.07101e-05 2.55255e-06 
71 1 3.3689e-06 0.000181184 1.17696e-05 2.56145e-06 
233 1 3.26469e-06 0.000134674 1.50766e-05 2.82676e-06 
229 1 3.15565e-06 0.000100988 1.64276e-05 2.98282e-06 
114 2 3.31738e-06 0.000140952 1.64844e-05 2.62151e-06 
94 2 3.00014e-06 0.000170783 1.6017e-05 2.73046e-06 
235 1 3.1223e-06 0.000149786 1.68101e-05 2.71986e-06 
237 1 2.99049e-06 0.000166842 1.73164e-05 2.7575e-06 
110 2 3.13852e-06 0.000111626 1.75493e-05 2.5783e-06 
116 2 3.05414e-06 0.000161502 1.75839e-05 2.67079e-06 
17 1 3.35549e-06 0.000133074 2.80722e-06 3.35368e-06 
16 2 3.16074e-06 0.000126744 3.43501e-06 3.26618e-06 
18 2 3.00914e-06 0.000140397 3.27953e-06 3.43324e-06 
188 2 3.16294e-06 0.000159523 3.29243e-06 3.4519e-06 
189 1 3.13913e-06 0.000168389 3.47436e-06 3.24926e-06 
22 2 3.2222e-06 0.000173687 3.13301e-06 3.052e-06 
192 2 3.2716e-06 0.000190911 3.30309e-06 3.38666e-06 
183 1 3.30046e-06 0.000118962 3.62148e-06 3.44609e-06 
41 1 2.97297e-06 0.00013081 4.98287e-06 3.18948e-06 
23 1 3.08391e-06 0.000183211 5.1809e-06 3.10329e-06 
193 1 3.0028e-06 0.000102871 5.76281e-06 3.27855e-06 
194 2 3.02381e-06 0.00011029 5.82331e-06 3.00663e-06 
200 2 3.11512e-06 0.000161506 5.69856e-06 3.39299e-06 
204 2 3.31509e-06 0.000191198 6.47509e-06 3.38665e-06 
207 1 3.04089e-06 0.000118169 6.70717e-06 3.322e-06 
39 1 3.16034e-06 0.000121161 7.17281e-06 3.45043e-06 
197 1 3.39785e-06 0.000136464 7.50206e-06 3.41728e-06 
205 1 3.18329e-06 0.000105157 8.55345e-06 3.47478e-06 
202 2 3.11138e-06 0.00017324 8.82235e-06 3.40447e-06 
43 1 3.0652e-06 0.000151485 9.36217e-06 3.30463e-06 
70 2 3.06719e-06 0.000170165 9.21248e-06 3.32836e-06 
66 2 3.13624e-06 0.000141962 9.9436e-06 3.02663e-06 
68 2 3.00066e-06 0.000159356 1.05987e-05 3.27118e-06 
91 1 3.18382e-06 0.000148057 1.11091e-05 3.48055e-06 
222 2 3.07471e-06 0.000144336 1.18451e-05 3.35128e-06 
92 2 3.0131e-06 0.000155435 1.19436e-05 3.28509e-06 
206 2 3.36126e-06 0.000110962 1.211e-05 3.4034e-06 
211 1 3.01763e-06 0.000150263 1.32228e-05 3.29218e-06 
96 2 3.15599e-06 0.00019088 1.36829e-05 3.27577e-06 
85 1 3.15727e-06 0.000103403 1.4056e-05 3.36041e-06 
234 2 3.0872e-06 0.000143884 1.53685e-05 3.36233e-06 
231 1 3.3427e-06 0.000116033 1.612e-05 3.06065e-06 
238 2 3.12498e-06 0.000175764 1.66993e-05 3.37723e-06 
19 1 3.18293e-06 0.000146516 2.36438e-06 3.75993e-06 
199 1 3.31876e-06 0.00014965 3.48042e-06 3.67267e-06 
45 1 3.07451e-06 0.000165333 3.2348e-06 3.67032e-06 
187 1 3.22016e-06 0.00015336 3.51554e-06 3.51554e-06 
182 2 3.36135e-06 0.000107803 4.29691e-06 3.74281e-06 
195 1 3.23997e-06 0.00011476 4.819e-06 3.53714e-06 
40 2 3.0047e-06 0.00012365 4.79104e-06 3.91519e-06 
20 2 3.24638e-06 0.000156631 4.92391e-06 3.53168e-06 
67 1 3.36419e-06 0.000149548 6.99121e-06 3.804e-06 
44 2 3.28758e-06 0.000154112 6.74007e-06 3.59493e-06 
196 2 3.3795e-06 0.000128523 7.47889e-06 3.69135e-06 
198 2 3.38466e-06 0.000140027 7.4124e-06 3.70496e-06 
214 2 3.33212e-06 0.00017788 9.96598e-06 3.52794e-06 
218 2 3.00743e-06 0.000108126 1.03844e-05 3.82665e-06 
87 1 3.27042e-06 0.000117726 1.02489e-05 3.53597e-06 
208 2 3.29398e-06 0.000127484 1.06112e-05 3.59129e-06 
216 2 3.27157e-06 0.000187344 1.11622e-05 3.56223e-06 
220 2 3.22827e-06 0.000123446 1.19099e-05 3.52088e-06 
89 1 3.287e-06 0.00013186 1.19096e-05 3.56603e-06 
225 1 3.35753e-06 0.00016325 1.17839e-05 3.73665e-06 
226 2 3.38774e-06 0.000176605 1.30151e-05 3.83891e-06 
63 1 3.34401e-06 0.000118404 1.36542e-05 3.7708e-06 
88 2 3.18105e-06 0.000128095 1.48631e-05 3.60466e-06 
118 2 3.28315e-06 0.000173318 1.46078e-05 3.92313e-06 
120 2 3.25383e-06 0.000188301 1.57863e-05 3.59925e-06 
112 2 3.25456e-06 0.000123159 1.6452e-05 3.54805e-06 
236 2 3.34038e-06 0.000155615 1.63174e-05 3.65515e-06 
239 1 3.24589e-06 0.000180035 1.64534e-05 3.54656e-06 
219 1 3.12813e-06 0.000118995 1.71249e-05 3.59917e-06 
14 2 3.03542e-06 0.000111676 3.29822e-06 4.45971e-06 
46 2 3.30087e-06 0.000176818 3.97098e-06 4.01625e-06 
186 2 3.38627e-06 0.00014279 5.45808e-06 4.25007e-06 
201 1 3.31992e-06 0.000165921 7.76072e-06 4.15622e-06 
72 2 3.16324e-06 0.000192846 9.34872e-06 4.17139e-06 
224 2 3.3816e-06 0.000160464 1.52683e-05 4.3411e-06 
93 1 3.03714e-06 0.000168481 1.55174e-05 4.46571e-06 
223 1 3.2181e-06 0.000152484 1.6297e-05 4.03589e-06 
240 2 3.18e-06 0.000191593 1.6741e-05 4.11197e-06 
232 2 3.16679e-06 0.000129173 1.76426e-05 4.39311e-06 
13 1 3.10233e-06 0.000104625 3.37094e-06 4.54002e-06 
185 1 3.04575e-06 0.000134747 5.28345e-06 4.81803e-06 
48 2 3.11697e-06 0.000188538 5.78465e-06 4.85407e-06 
62 2 3.03894e-06 0.000110416 8.49254e-06 4.70828e-06 
86 2 3.38235e-06 0.000110652 1.52341e-05 4.51284e-06 
90 2 3.33086e-06 0.000138726 1.62122e-05 4.99485e-06 
113 1 3.14392e-06 0.000132472 1.68263e-05 4.65839e-06 
191 1 3.32927e-06 0.00018176 3.40927e-06 5.48961e-06 
215 1 3.0164e-06 0.000182907 8.58257e-06 5.46206e-06 
64 2 3.125e-06 0.000124599 9.38019e-06 5.09135e-06 
212 2 3.40135e-06 0.000156469 9.27765e-06 5.34894e-06 
117 1 3.40082e-06 0.00016433 1.63035e-05 5.32611e-06 
230 2 3.27771e-06 0.000107807 1.65081e-05 5.41218e-06 
119 1 3.17054e-06 0.000184347 1.65785e-05 5.46915e-06 
221 1 3.11388e-06 0.000135699 1.72123e-05 5.26494e-06 
15 1 3.10485e-06 0.000117093 3.35492e-06 5.99932e-06 
37 1 3.38967e-06 0.000101021 6.28902e-06 5.59116e-06 
65 1 3.09421e-06 0.000133987 1.0415e-05 5.98451e-06 