NUFEB Simulation 

       0 atoms 
       2 atom types 
       0 bacilli

   0.000000e-04   6.6e-5  xlo xhi 
   0.000000e-04   6.6e-5  ylo yhi 
   0.000000e-04   2e-6  zlo zhi 



