LAMMPS (5 Nov 2016)
# NUFEB simulation

atom_style	bio
atom_modify	map array sort 1000 5.0e-7
boundary	ff ff ff
newton		off
#processors  2 1 1

comm_modify	vel yes
read_data_bio atom.in
  orthogonal box = (0 0 0) to (0.0001 0.0001 0.0001)
  1 by 1 by 1 MPI processor grid
  reading atoms ...
  3 atoms
  10 nutrients

group AOB type 1
1 atoms in group AOB
group NOB type 2
1 atoms in group NOB
group COMM type 3
1 atoms in group COMM

neighbor	5.0e-7 bin
neigh_modify	delay 0 one 5000

#pair_style none
pair_style  gran/hooke/history 0.000200 NULL 0.000050 NULL 0.0 1

pair_coeff  * *
timestep 36

fix 1 all nve/limit 1e-8

#fix	 2 all gravity 1.47 vector 0 0 -1 # spherical 90.0 -180.0
#fix     3 all fdrag
fix 10 all viscous 0.1


fix xw all wall/gran hooke/history 2000 NULL 500.0 NULL 1.5 0 xplane  0.0   1.0e-04
fix yw all wall/gran hooke/history 2000 NULL 500.0 NULL 1.5 0 yplane  0.0   1.0e-04
fix zw all wall/gran hooke/history 2000 NULL 500.0 NULL 1.5 0 zplane  0.0   1.0e-04

variable kanc equal 50

fix xwa all walladh v_kanc xplane  0.0   1.0e-04
fix ywa all walladh v_kanc yplane  0.0   1.0e-04
fix zwa all walladh v_kanc zplane  0.0   1.0e-04

##############Ibm Variable Definitions##############

#Defining EPS density and ratio variables
variable EPSdens equal 30
variable EPSratio equal 1.25

variable ke equal 5e+10

#Defining kinetics variables
variable temp equal 298.15
variable gasTran equal 0.08205746
variable gvol equal 8e-14
variable rth equal 0.0083144
variable pressure equal 1
variable ph equal 7.0

#Defining diffusion variables
variable diffT equal 1e-7
variable tol equal 1e-10

##############Ibm functions##############

fix k1 all kinetics 25 25 25 v_temp v_rth v_gvol v_gasTran v_ph
fix g1 all diffusion exp v_diffT v_tol pp pp nd
#fix ki3 all kinetics/ph 1
fix ki2 all kinetics/thermo 1 fix open v_pressure
fix ki1 all kinetics/monod 1 v_EPSdens
fix d1 all divide 1 v_EPSdens 1 31231

#fix j1 all epsadh 1 v_ke 1
#fix e1 HET eps_extract 16 v_EPSratio v_EPSdens 1242242

##############Ibm compute##############

compute myMass all biomass
compute myNtypes all ntypes

##############Simulation outputs##############

#dump		id all custom 250 snapshot.bubblemd id type diameter x y z
dump            d0 all bio 500 biomass
thermo_style    custom step cpu atoms biomass c_myNtypes[*] c_myMass[2]
thermo		5
thermo_modify	lost ignore

run  5000
Neighbor list info ...
  2 neighbor list requests
  update every 1 steps, delay 0 steps, check yes
  max neighbors/atom: 5000, page size: 100000
  master list distance cutoff = 1.466e-06
  ghost atom cutoff = 1.466e-06
  binsize = 7.33e-07 -> bins = 137 137 137
Memory usage per processor = 18.9946 Mbytes
Step CPU Atoms biomass c_myNtypes[1] c_myNtypes[2] c_myNtypes[3] c_myMass[2] 
       0            0        3 4.1062866e-16            1            1            1 1.3687622e-16 
       5   0.10044289        3 4.1151574e-16            1            1            1 1.3680774e-16 
      10   0.20100498        3 4.1240619e-16            1            1            1 1.3673929e-16 
      15   0.30852985        3 4.1330002e-16            1            1            1 1.3667088e-16 
      20   0.42391491        3 4.1419725e-16            1            1            1 1.3660251e-16 
      25   0.53671384        3 4.1509788e-16            1            1            1 1.3653417e-16 
      30    0.6406908        3 4.1600193e-16            1            1            1 1.3646586e-16 
      35   0.75546789        3 4.1690941e-16            1            1            1 1.3639758e-16 
      40   0.86156893        3 4.1782034e-16            1            1            1 1.3632934e-16 
      45   0.96842885        3 4.1873472e-16            1            1            1 1.3626114e-16 
      50    1.0717609        3 4.1965256e-16            1            1            1 1.3619297e-16 
      55    1.1752319        3 4.2057388e-16            1            1            1 1.3612483e-16 
      60    1.2862649        3 4.2149869e-16            1            1            1 1.3605673e-16 
      65    1.3914108        3  4.22427e-16            1            1            1 1.3598866e-16 
      70    1.5008619        3 4.2335883e-16            1            1            1 1.3592062e-16 
      75    1.6078198        3 4.2429418e-16            1            1            1 1.3585262e-16 
      80    1.7213118        3 4.2523307e-16            1            1            1 1.3578465e-16 
      85    1.8301258        3 4.2617551e-16            1            1            1 1.3571672e-16 
      90     1.936497        3 4.2712151e-16            1            1            1 1.3564882e-16 
      95    2.0526278        3 4.2807108e-16            1            1            1 1.3558096e-16 
     100     2.160722        3 4.2902425e-16            1            1            1 1.3551313e-16 
     105    2.2783978        3 4.2998101e-16            1            1            1 1.3544533e-16 
     110     2.394985        3 4.3094139e-16            1            1            1 1.3537757e-16 
     115    2.4961748        3 4.3190539e-16            1            1            1 1.3530984e-16 
     120     2.602129        3 4.3287302e-16            1            1            1 1.3524214e-16 
     125    2.7059269        3 4.3384431e-16            1            1            1 1.3517448e-16 
     130     2.813509        3 4.3481926e-16            1            1            1 1.3510685e-16 
     135    2.9371259        3 4.3579788e-16            1            1            1 1.3503926e-16 
     140     3.056284        3 4.3678019e-16            1            1            1 1.349717e-16 
     145    3.1654019        3 4.3776621e-16            1            1            1 1.3490417e-16 
     150    3.2767839        4 4.3875593e-16            2            1            1 1.3483668e-16 
     155     3.382921        5 4.3974938e-16            2            1            2 1.3476922e-16 
     160    3.4959898        5 4.4074657e-16            2            1            2 1.3470179e-16 
     165     3.603513        5 4.4174751e-16            2            1            2 1.346344e-16 
     170     3.702744        5 4.4275222e-16            2            1            2 1.3456705e-16 
     175    3.8076019        5 4.437607e-16            2            1            2 1.3449972e-16 
     180     3.914619        5 4.4477298e-16            2            1            2 1.3443243e-16 
     185     4.019671        5 4.4578905e-16            2            1            2 1.3436517e-16 
     190     4.126488        5 4.4680895e-16            2            1            2 1.3429795e-16 
     195    4.2343478        5 4.4783268e-16            2            1            2 1.3423076e-16 
     200    4.3355749        5 4.4886024e-16            2            1            2 1.3416361e-16 
     205    4.4375279        5 4.4989167e-16            2            1            2 1.3409649e-16 
     210    4.5376239        5 4.5092697e-16            2            1            2 1.340294e-16 
     215     4.644913        5 4.5196615e-16            2            1            2 1.3396234e-16 
     220     4.747844        5 4.5300922e-16            2            1            2 1.3389532e-16 
     225    4.8526959        5 4.5405621e-16            2            1            2 1.3382833e-16 
     230    4.9592419        5 4.5510712e-16            2            1            2 1.3376138e-16 
     235    5.0663538        5 4.5616197e-16            2            1            2 1.3369446e-16 
     240    5.1770568        5 4.5722077e-16            2            1            2 1.3362757e-16 
     245    5.2907848        5 4.5828354e-16            2            1            2 1.3356072e-16 
     250    5.3956718        5 4.5935028e-16            2            1            2 1.334939e-16 
     255    5.5015578        5 4.6042102e-16            2            1            2 1.3342711e-16 
     260    5.6062589        5 4.6149576e-16            2            1            2 1.3336036e-16 
     265     5.709327        5 4.6257452e-16            2            1            2 1.3329364e-16 
     270     5.814523        5 4.6365732e-16            2            1            2 1.3322695e-16 
     275     5.921906        5 4.6474416e-16            2            1            2 1.3316029e-16 
     280    6.0280738        5 4.6583507e-16            2            1            2 1.3309367e-16 
     285    6.1286199        5 4.6693005e-16            2            1            2 1.3302709e-16 
     290    6.2323329        5 4.6802913e-16            2            1            2 1.3296053e-16 
     295    6.3370459        5 4.691323e-16            2            1            2 1.3289401e-16 
     300    6.4472668        5 4.702396e-16            2            1            2 1.3282753e-16 
     305    6.5515988        5 4.7135103e-16            2            1            2 1.3276107e-16 
     310    6.6549058        5 4.724666e-16            2            1            2 1.3269465e-16 
     315    6.7687669        5 4.7358634e-16            2            1            2 1.3262827e-16 
     320    6.8746538        5 4.7471025e-16            2            1            2 1.3256191e-16 
     325    6.9886408        5 4.7583835e-16            2            1            2 1.3249559e-16 
     330     7.090245        5 4.7697066e-16            2            1            2 1.324293e-16 
     335     7.200675        5 4.7810719e-16            2            1            2 1.3236305e-16 
     340    7.3033319        5 4.7924795e-16            2            1            2 1.3229683e-16 
     345     7.408273        5 4.8039295e-16            2            1            2 1.3223064e-16 
     350    7.5150509        5 4.8154223e-16            2            1            2 1.3216449e-16 
     355    7.6176858        5 4.8269578e-16            2            1            2 1.3209836e-16 
     360    7.7206919        5 4.8385362e-16            2            1            2 1.3203228e-16 
     365    7.8209758        5 4.8501577e-16            2            1            2 1.3196622e-16 
     370    7.9235418        5 4.8618225e-16            2            1            2 1.319002e-16 
     375    8.0274169        5 4.8735306e-16            2            1            2 1.3183421e-16 
     380     8.133724        5 4.8852822e-16            2            1            2 1.3176825e-16 
     385      8.24245        5 4.8970776e-16            2            1            2 1.3170233e-16 
     390    8.3518069        5 4.9089167e-16            2            1            2 1.3163644e-16 
     395    8.4537199        5 4.9207998e-16            2            1            2 1.3157058e-16 
     400    8.5539038        5 4.9327271e-16            2            1            2 1.3150475e-16 
     405    8.6590588        5 4.9446986e-16            2            1            2 1.3143896e-16 
     410    8.7663758        5 4.9567146e-16            2            1            2 1.313732e-16 
     415    8.8733399        5 4.9687752e-16            2            1            2 1.3130748e-16 
     420    8.9784749        5 4.9808806e-16            2            1            2 1.3124178e-16 
     425    9.0838439        5 4.9930308e-16            2            1            2 1.3117612e-16 
     430     9.187907        5 5.0052261e-16            2            1            2 1.311105e-16 
     435    9.2919478        5 5.0174666e-16            2            1            2 1.310449e-16 
     440    9.3996799        5 5.0297525e-16            2            1            2 1.3097934e-16 
     445     9.505728        5 5.0420839e-16            2            1            2 1.3091381e-16 
     450       9.6069        5 5.054461e-16            2            1            2 1.3084831e-16 
     455    9.7076108        5 5.0668839e-16            2            1            2 1.3078285e-16 
     460     9.811548        5 5.0793528e-16            2            1            2 1.3071742e-16 
     465    9.9172878        5 5.091868e-16            2            1            2 1.3065202e-16 
     470     10.01867        5 5.1044294e-16            2            1            2 1.3058666e-16 
     475    10.126185        5 5.1170373e-16            2            1            2 1.3052133e-16 
     480    10.232814        5 5.1296919e-16            2            1            2 1.3045603e-16 
     485    10.338139        5 5.1423932e-16            2            1            2 1.3039076e-16 
     490    10.443324        5 5.1551416e-16            2            1            2 1.3032552e-16 
     495     10.54559        5 5.167937e-16            2            1            2 1.3026032e-16 
     500    10.651371        5 5.1807798e-16            2            1            2 1.3019515e-16 
     505    10.760151        5  5.19367e-16            2            1            2 1.3013002e-16 
     510    10.864581        5 5.2066078e-16            2            1            2 1.3006491e-16 
     515    10.974869        5 5.2195935e-16            2            1            2 1.2999984e-16 
     520    11.098199        5 5.232627e-16            2            1            2 1.299348e-16 
     525    11.207904        5 5.2457088e-16            2            1            2 1.298698e-16 
     530    11.313422        5 5.2588387e-16            2            1            2 1.2980482e-16 
     535    11.427544        5 5.2720172e-16            2            1            2 1.2973988e-16 
     540    11.548858        5 5.2852443e-16            2            1            2 1.2967497e-16 
     545    11.660815        5 5.2985201e-16            2            1            2 1.296101e-16 
     550    11.770745        5 5.3118449e-16            2            1            2 1.2954525e-16 
     555    11.880221        5 5.3252189e-16            2            1            2 1.2948044e-16 
     560    11.986402        5 5.3386422e-16            2            1            2 1.2941566e-16 
     565    12.095993        5 5.3521149e-16            2            1            2 1.2935091e-16 
     570    12.200248        5 5.3656372e-16            2            1            2 1.292862e-16 
     575    12.307968        5 5.3792094e-16            2            1            2 1.2922152e-16 
     580    12.414321        5 5.3928316e-16            2            1            2 1.2915687e-16 
     585    12.517018        5 5.4065039e-16            2            1            2 1.2909225e-16 
     590    12.624118        5 5.4202266e-16            2            1            2 1.2902767e-16 
     595    12.737816        5 5.4339998e-16            2            1            2 1.2896311e-16 
     600    12.845115        5 5.4478237e-16            2            1            2 1.2889859e-16 
     605    12.959955        5 5.4616984e-16            2            1            2 1.2883411e-16 
     610    13.063896        5 5.4756241e-16            2            1            2 1.2876965e-16 
     615    13.171648        5 5.4896011e-16            2            1            2 1.2870523e-16 
     620    13.281871        5 5.5036295e-16            2            1            2 1.2864084e-16 
     625    13.385877        5 5.5177094e-16            2            1            2 1.2857648e-16 
     630    13.496991        5 5.5318411e-16            2            1            2 1.2851215e-16 
     635    13.607351        5 5.5460248e-16            2            1            2 1.2844786e-16 
     640    13.774188        5 5.5602605e-16            2            1            2 1.2838359e-16 
     645    13.941157        5 5.5745485e-16            2            1            2 1.2831936e-16 
     650    14.103752        5 5.588889e-16            2            1            2 1.2825516e-16 
     655    14.276341        5 5.6032822e-16            2            1            2  1.28191e-16 
     660    14.446374        5 5.6177281e-16            2            1            2 1.2812686e-16 
     665    14.613461        5 5.6322271e-16            2            1            2 1.2806276e-16 
     670    14.783408        5 5.6467793e-16            2            1            2 1.2799869e-16 
     675    14.955103        5 5.6613849e-16            2            1            2 1.2793465e-16 
     680    15.128519        5 5.6760441e-16            2            1            2 1.2787065e-16 
     685    15.300853        5 5.690757e-16            2            1            2 1.2780668e-16 
     690    15.476489        5 5.7055239e-16            2            1            2 1.2774273e-16 
     695     15.64977        5 5.7203449e-16            2            1            2 1.2767882e-16 
     700    15.811964        5 5.7352202e-16            2            1            2 1.2761495e-16 
     705     15.97547        5 5.7501501e-16            2            1            2 1.275511e-16 
     710    16.140267        5 5.7651346e-16            2            1            2 1.2748729e-16 
     715    16.306234        5 5.780174e-16            2            1            2 1.2742351e-16 
     720    16.476981        5 5.7952685e-16            2            1            2 1.2735976e-16 
     725     16.64847        5 5.8104183e-16            2            1            2 1.2729604e-16 
     730    16.819071        5 5.8256236e-16            2            1            2 1.2723235e-16 
     735    16.990333        5 5.8408844e-16            2            1            2 1.271687e-16 
     740    17.165184        5 5.8562012e-16            2            1            2 1.2710507e-16 
     745    17.342453        5 5.871574e-16            2            1            2 1.2704148e-16 
     750    17.522909        5 5.887003e-16            2            1            2 1.2697792e-16 
     755    17.699047        5 5.9024884e-16            2            1            2 1.269144e-16 
     760    17.871251        5 5.9180305e-16            2            1            2 1.268509e-16 
     765    18.042281        5 5.9336294e-16            2            1            2 1.2678744e-16 
     770    18.216937        5 5.9492853e-16            2            1            2 1.2672401e-16 
     775     18.39595        5 5.9649985e-16            2            1            2 1.2666061e-16 
     780    18.576458        5 5.980769e-16            2            1            2 1.2659724e-16 
     785    18.751437        5 5.9965972e-16            2            1            2 1.265339e-16 
     790    18.922542        5 6.0124832e-16            2            1            2 1.264706e-16 
     795    19.090348        5 6.0284272e-16            2            1            2 1.2640732e-16 
     800    19.270929        5 6.0444295e-16            2            1            2 1.2634408e-16 
     805    19.451942        5 6.0604901e-16            2            1            2 1.2628087e-16 
     810    19.625414        5 6.0766094e-16            2            1            2 1.2621769e-16 
     815    19.799747        5 6.0927875e-16            2            1            2 1.2615455e-16 
     820    19.970186        5 6.1090247e-16            2            1            2 1.2609143e-16 
     825    20.142713        5 6.125321e-16            2            1            2 1.2602835e-16 
     830    20.315812        5 6.1416769e-16            2            1            2 1.259653e-16 
     835    20.488624        5 6.1580923e-16            2            1            2 1.2590228e-16 
     840    20.658523        5 6.1745677e-16            2            1            2 1.2583929e-16 
     845     20.83114        5 6.1911031e-16            2            1            2 1.2577633e-16 
     850    21.005339        5 6.2076988e-16            2            1            2 1.257134e-16 
     855    21.184842        5 6.2243549e-16            2            1            2 1.2565051e-16 
     860    21.359873        5 6.2410718e-16            2            1            2 1.2558765e-16 
     865    21.536939        5 6.2578495e-16            2            1            2 1.2552482e-16 
     870    21.722961        5 6.2746884e-16            2            1            2 1.2546202e-16 
     875    21.900381        5 6.2915886e-16            2            1            2 1.2539925e-16 
     880    22.080664        5 6.3085503e-16            2            1            2 1.2533651e-16 
     885    22.273839        5 6.3255738e-16            2            1            2 1.252738e-16 
     890    22.471003        5 6.3426593e-16            2            1            2 1.2521113e-16 
     895    22.677498        5 6.3598069e-16            2            1            2 1.2514849e-16 
     900    22.873027        5 6.377017e-16            2            1            2 1.2508587e-16 
     905    23.064083        5 6.3942897e-16            2            1            2 1.2502329e-16 
     910    23.262819        5 6.4116252e-16            2            1            2 1.2496074e-16 
     915    23.472204        5 6.4290237e-16            2            1            2 1.2489823e-16 
     920    23.667817        5 6.4464856e-16            2            1            2 1.2483574e-16 
     925    23.847049        5 6.4640109e-16            2            1            2 1.2477329e-16 
     930      24.0383        5 6.4815999e-16            2            1            2 1.2471086e-16 
     935    24.225018        5 6.4992529e-16            2            1            2 1.2464847e-16 
     940    24.417127        5  6.51697e-16            2            1            2 1.2458611e-16 
     945    24.622385        5 6.5347515e-16            2            1            2 1.2452378e-16 
     950    24.834129        5 6.5525977e-16            2            1            2 1.2446148e-16 
     955    25.031949        6 6.5705086e-16            2            1            3 1.2439921e-16 
     960    25.240739        6 6.5884846e-16            2            1            3 1.2433697e-16 
     965     25.43652        6 6.6065259e-16            2            1            3 1.2427477e-16 
     970    25.642896        6 6.6246327e-16            2            1            3 1.2421259e-16 
     975    25.862052        6 6.6428052e-16            2            1            3 1.2415045e-16 
     980    26.070361        6 6.6610437e-16            2            1            3 1.2408834e-16 
     985    26.279944        6 6.6793483e-16            2            1            3 1.2402625e-16 
     990    26.508711        7 6.6977194e-16            3            1            3 1.239642e-16 
     995    26.719885        7 6.7161572e-16            3            1            3 1.2390218e-16 
    1000    26.951064        7 6.7346618e-16            3            1            3 1.238402e-16 
    1005    27.168312        7 6.7532336e-16            3            1            3 1.2377824e-16 
    1010    27.391785        7 6.7718727e-16            3            1            3 1.2371631e-16 
    1015    27.603206        7 6.7905793e-16            3            1            3 1.2365442e-16 
    1020     27.81801        7 6.8093538e-16            3            1            3 1.2359255e-16 
    1025     28.01808        7 6.8281964e-16            3            1            3 1.2353072e-16 
    1030    28.229518        7 6.8471073e-16            3            1            3 1.2346892e-16 
    1035    28.438392        7 6.8660866e-16            3            1            3 1.2340715e-16 
    1040    28.658015        7 6.8851348e-16            3            1            3 1.2334541e-16 
    1045    28.874973        7 6.9042519e-16            3            1            3 1.232837e-16 
    1050    29.078793        7 6.9234384e-16            3            1            3 1.2322202e-16 
    1055    29.284569        7 6.9426942e-16            3            1            3 1.2316037e-16 
    1060    29.496524        7 6.9620199e-16            3            1            3 1.2309875e-16 
    1065     29.71405        7 6.9814155e-16            3            1            3 1.2303717e-16 
    1070    29.922587        7 7.0008813e-16            3            1            3 1.2297561e-16 
    1075    30.137402        7 7.0204175e-16            3            1            3 1.2291409e-16 
    1080    30.346209        7 7.0400245e-16            3            1            3 1.2285259e-16 
    1085    30.569077        7 7.0597024e-16            3            1            3 1.2279113e-16 
    1090    30.776327        7 7.0794515e-16            3            1            3 1.227297e-16 
    1095    30.985999        7 7.0992721e-16            3            1            3 1.2266829e-16 
    1100    31.200926        7 7.1191644e-16            3            1            3 1.2260692e-16 
    1105    31.438698        7 7.1391286e-16            3            1            3 1.2254558e-16 
    1110    31.671481        7 7.1591649e-16            3            1            3 1.2248427e-16 
    1115    31.912446        7 7.1792738e-16            3            1            3  1.22423e-16 
    1120    32.131566        7 7.1994553e-16            3            1            3 1.2236175e-16 
    1125    32.354438        7 7.2197098e-16            3            1            3 1.2230053e-16 
    1130    32.570798        7 7.2400375e-16            3            1            3 1.2223934e-16 
    1135    32.782795        7 7.2604386e-16            3            1            3 1.2217819e-16 
    1140    32.995881        7 7.2809134e-16            3            1            3 1.2211706e-16 
    1145    33.210525        7 7.3014622e-16            3            1            3 1.2205597e-16 
    1150    33.441375        7 7.3220853e-16            3            1            3 1.219949e-16 
    1155    33.659423        7 7.3427828e-16            3            1            3 1.2193387e-16 
    1160    33.873151        7 7.3635551e-16            3            1            3 1.2187286e-16 
    1165    34.091666        7 7.3844024e-16            3            1            3 1.2181189e-16 
    1170    34.307655        7 7.4053249e-16            3            1            3 1.2175095e-16 
    1175    34.518678        7 7.4263229e-16            3            1            3 1.2169004e-16 
    1180    34.753546        7 7.4473968e-16            3            1            3 1.2162915e-16 
    1185    34.974414        7 7.4685467e-16            3            1            3 1.215683e-16 
    1190    35.216516        7 7.4897729e-16            3            1            3 1.2150748e-16 
    1195    35.445534        7 7.5110757e-16            3            1            3 1.2144669e-16 
    1200    35.659799        7 7.5324554e-16            3            1            3 1.2138593e-16 
    1205    35.891874        7 7.5539121e-16            3            1            3 1.213252e-16 
    1210    36.105951        7 7.5754463e-16            3            1            3 1.212645e-16 
    1215    36.322809        7 7.5970581e-16            3            1            3 1.2120384e-16 
    1220    36.540928        7 7.6187478e-16            3            1            3 1.211432e-16 
    1225      36.7771        7 7.6405157e-16            3            1            3 1.2108259e-16 
    1230    37.001136        7 7.6623621e-16            3            1            3 1.2102201e-16 
    1235    37.226131        7 7.6842872e-16            3            1            3 1.2096146e-16 
    1240    37.445606        7 7.7062914e-16            3            1            3 1.2090095e-16 
    1245    37.669774        7 7.7283748e-16            3            1            3 1.2084046e-16 
    1250    37.890442        7 7.7505378e-16            3            1            3   1.2078e-16 
    1255    38.106543        7 7.7727807e-16            3            1            3 1.2071958e-16 
    1260    38.340152        7 7.7951036e-16            3            1            3 1.2065918e-16 
    1265    38.585711        7 7.817507e-16            3            1            3 1.2059882e-16 
    1270    38.811007        7 7.839991e-16            3            1            3 1.2053848e-16 
    1275    39.034424        8 7.862556e-16            4            1            3 1.2047818e-16 
    1280    39.264927        8 7.8852022e-16            4            1            3 1.204179e-16 
    1285    39.494663        8  7.90793e-16            4            1            3 1.2035766e-16 
    1290    39.713738        8 7.9307396e-16            4            1            3 1.2029744e-16 
    1295    39.943129        8 7.9536312e-16            4            1            3 1.2023726e-16 
    1300    40.169737        8 7.9766053e-16            4            1            3 1.201771e-16 
    1305    40.404346        8 7.999662e-16            4            1            3 1.2011698e-16 
    1310    40.635489        8 8.0228016e-16            4            1            3 1.2005688e-16 
    1315    40.877712        8 8.0460245e-16            4            1            3 1.1999682e-16 
    1320    41.101314        8 8.0693309e-16            4            1            3 1.1993678e-16 
    1325    41.328431        8 8.0927212e-16            4            1            3 1.1987678e-16 
    1330    41.563804        8 8.1161955e-16            4            1            3 1.198168e-16 
    1335    41.789269        8 8.1397543e-16            4            1            3 1.1975686e-16 
    1340    42.019271        8 8.1633977e-16            4            1            3 1.1969695e-16 
    1345    42.246427        8 8.1871262e-16            4            1            3 1.1963706e-16 
    1350     42.47608        8 8.2109399e-16            4            1            3 1.1957721e-16 
    1355    42.714599        8 8.2348393e-16            4            1            3 1.1951738e-16 
    1360    42.953193        8 8.2588245e-16            4            1            3 1.1945759e-16 
    1365    43.203253        8 8.2828959e-16            4            1            3 1.1939782e-16 
    1370     43.43848        8 8.3070538e-16            4            1            3 1.1933809e-16 
    1375     43.65605        8 8.3312985e-16            4            1            3 1.1927838e-16 
    1380    43.893454        8 8.3556302e-16            4            1            3 1.1921871e-16 
    1385    44.124957        8 8.3800494e-16            4            1            3 1.1915906e-16 
    1390    44.357426        8 8.4045562e-16            4            1            3 1.1909945e-16 
    1395    44.587147        8 8.4291511e-16            4            1            3 1.1903986e-16 
    1400    44.843719        8 8.4538342e-16            4            1            3 1.1898031e-16 
    1405    45.069452        8 8.478606e-16            4            1            3 1.1892078e-16 
    1410    45.298004        8 8.5034667e-16            4            1            3 1.1886129e-16 
    1415    45.532439        8 8.5284166e-16            4            1            3 1.1880182e-16 
    1420    45.767432        8 8.5534561e-16            4            1            3 1.1874238e-16 
    1425    46.005182        8 8.5785854e-16            4            1            3 1.1868298e-16 
    1430    46.237643        9 8.6038049e-16            4            1            4 1.186236e-16 
    1435    46.479312        9 8.6291148e-16            4            1            4 1.1856425e-16 
    1440    46.735147        9 8.6545156e-16            4            1            4 1.1850493e-16 
    1445    46.986801        9 8.6800075e-16            4            1            4 1.1844565e-16 
    1450    47.219903        9 8.7055908e-16            4            1            4 1.1838639e-16 
    1455    47.462679        9 8.7312658e-16            4            1            4 1.1832716e-16 
    1460     47.70842        9 8.757033e-16            4            1            4 1.1826796e-16 
    1465    47.958555        9 8.7828925e-16            4            1            4 1.1820879e-16 
    1470    48.206716        9 8.8088447e-16            4            1            4 1.1814965e-16 
    1475    48.448289        9  8.83489e-16            4            1            4 1.1809054e-16 
    1480    48.695031        9 8.8610286e-16            4            1            4 1.1803146e-16 
    1485    48.939575        9 8.8872609e-16            4            1            4 1.1797241e-16 
    1490    49.194545        9 8.9135872e-16            4            1            4 1.1791339e-16 
    1495    49.443211        9 8.9400078e-16            4            1            4 1.178544e-16 
    1500    49.686409        9 8.9665231e-16            4            1            4 1.1779543e-16 
    1505    49.934976        9 8.9931334e-16            4            1            4 1.177365e-16 
    1510     50.17876        9 9.019839e-16            4            1            4 1.176776e-16 
    1515    50.420917        9 9.0466403e-16            4            1            4 1.1761872e-16 
    1520    50.665795        9 9.0735376e-16            4            1            4 1.1755988e-16 
    1525     50.91473        9 9.1005312e-16            4            1            4 1.1750106e-16 
    1530    51.178529        9 9.1276214e-16            4            1            4 1.1744228e-16 
    1535    51.438711        9 9.1548087e-16            4            1            4 1.1738352e-16 
    1540    51.708507        9 9.1820933e-16            4            1            4 1.173248e-16 
    1545    51.956854        9 9.2094755e-16            4            1            4 1.172661e-16 
    1550    52.198833        9 9.2369558e-16            4            1            4 1.1720743e-16 
    1555     52.45699        9 9.2645344e-16            4            1            4 1.1714879e-16 
    1560     52.70168        9 9.2922117e-16            4            1            4 1.1709018e-16 
    1565    52.948711        9 9.3199881e-16            4            1            4 1.170316e-16 
    1570    53.205072        9 9.3478639e-16            4            1            4 1.1697305e-16 
    1575    53.461298        9 9.3758393e-16            4            1            4 1.1691453e-16 
    1580    53.718125        9 9.4039149e-16            4            1            4 1.1685604e-16 
    1585    53.964028        9 9.4320909e-16            4            1            4 1.1679757e-16 
    1590     54.21217        9 9.4603677e-16            4            1            4 1.1673914e-16 
    1595    54.466557        9 9.4887456e-16            4            1            4 1.1668074e-16 
    1600    54.713938        9 9.517225e-16            4            1            4 1.1662236e-16 
    1605    54.972792        9 9.5458062e-16            4            1            4 1.1656402e-16 
    1610    55.226326        9 9.5744896e-16            4            1            4 1.165057e-16 
    1615    55.482366        9 9.6032756e-16            4            1            4 1.1644741e-16 
    1620    55.731433        9 9.6321644e-16            4            1            4 1.1638915e-16 
    1625    56.006542        9 9.6611565e-16            4            1            4 1.1633092e-16 
    1630    56.269172        9 9.6902523e-16            4            1            4 1.1627272e-16 
    1635    56.553675        9 9.719452e-16            4            1            4 1.1621455e-16 
    1640    56.863464        9 9.7487561e-16            4            1            4 1.1615641e-16 
    1645    57.211808        9 9.7781649e-16            4            1            4 1.160983e-16 
    1650    57.514044        9 9.8076787e-16            4            1            4 1.1604021e-16 
    1655    57.832309        9 9.837298e-16            4            1            4 1.1598216e-16 
    1660    58.164474        9 9.8670232e-16            4            1            4 1.1592413e-16 
    1665    58.486601        9 9.8968544e-16            4            1            4 1.1586614e-16 
    1670    58.800402        9 9.9267923e-16            4            1            4 1.1580817e-16 
    1675    59.133708        9 9.956837e-16            4            1            4 1.1575023e-16 
    1680    59.463818        9 9.986989e-16            4            1            4 1.1569232e-16 
    1685    59.755546        9 1.0017249e-15            4            1            4 1.1563444e-16 
    1690    60.049972        9 1.0047616e-15            4            1            4 1.1557659e-16 
    1695    60.333147        9 1.0078093e-15            4            1            4 1.1551877e-16 
    1700    60.633649        9 1.0108678e-15            4            1            4 1.1546098e-16 
    1705     60.91604        9 1.0139372e-15            4            1            4 1.1540321e-16 
    1710     61.21945        9 1.0170175e-15            4            1            4 1.1534548e-16 
    1715    61.528324        9 1.0201089e-15            4            1            4 1.1528777e-16 
    1720     61.82193        9 1.0232113e-15            4            1            4 1.1523009e-16 
    1725    62.120968        9 1.0263248e-15            4            1            4 1.1517244e-16 
    1730    62.415331        9 1.0294493e-15            4            1            4 1.1511482e-16 
    1735    62.721767        9 1.032585e-15            4            1            4 1.1505723e-16 
    1740    63.069053        9 1.035732e-15            4            1            4 1.1499967e-16 
    1745    63.398618        9 1.0388901e-15            4            1            4 1.1494213e-16 
    1750    63.702259        9 1.0420595e-15            4            1            4 1.1488463e-16 
    1755    63.992443        9 1.0452402e-15            4            1            4 1.1482715e-16 
    1760    64.295351        9 1.0484322e-15            4            1            4 1.1476971e-16 
    1765     64.61274        9 1.0516356e-15            4            1            4 1.1471229e-16 
    1770    64.911329        9 1.0548505e-15            4            1            4 1.146549e-16 
    1775    65.231838        9 1.0580768e-15            4            1            4 1.1459754e-16 
    1780    65.534564        9 1.0613146e-15            4            1            4 1.1454021e-16 
    1785     65.84503        9 1.064564e-15            4            1            4 1.144829e-16 
    1790    66.148834        9 1.0678249e-15            4            1            4 1.1442563e-16 
    1795    66.458699        9 1.0710975e-15            4            1            4 1.1436838e-16 
    1800     66.77031        9 1.0743817e-15            4            1            4 1.1431116e-16 
    1805    67.082634        9 1.0776776e-15            4            1            4 1.1425398e-16 
    1810    67.388514        9 1.0809853e-15            4            1            4 1.1419682e-16 
    1815    67.699312        9 1.0843047e-15            4            1            4 1.1413968e-16 
    1820    68.013886        9 1.087636e-15            4            1            4 1.1408258e-16 
    1825    68.327694        9 1.0909792e-15            4            1            4 1.1402551e-16 
    1830    68.636439        9 1.0943342e-15            4            1            4 1.1396846e-16 
    1835    68.956844       10 1.0977012e-15            4            1            5 1.1391144e-16 
    1840    69.273562       10 1.1010802e-15            4            1            5 1.1385446e-16 
    1845    69.581753       10 1.1044713e-15            4            1            5 1.137975e-16 
    1850    69.890646       10 1.1078744e-15            4            1            5 1.1374056e-16 
    1855    70.249075       10 1.1112896e-15            4            1            5 1.1368366e-16 
    1860    70.581886       10 1.114717e-15            4            1            5 1.1362679e-16 
    1865    70.902392       10 1.1181566e-15            4            1            5 1.1356994e-16 
    1870    71.228209       10 1.1216085e-15            4            1            5 1.1351312e-16 
    1875    71.557411       10 1.1250726e-15            4            1            5 1.1345634e-16 
    1880    71.881804       10 1.1285491e-15            4            1            5 1.1339958e-16 
    1885    72.207538       10 1.1320379e-15            4            1            5 1.1334284e-16 
    1890    72.543258       10 1.1355392e-15            4            1            5 1.1328614e-16 
    1895    72.866703       10 1.1390529e-15            4            1            5 1.1322947e-16 
    1900    73.186796       10 1.1425791e-15            4            1            5 1.1317282e-16 
    1905    73.533694       11 1.1461179e-15            5            1            5 1.131162e-16 
    1910    73.858984       11 1.1496692e-15            5            1            5 1.1305961e-16 
    1915    74.226592       11 1.1532332e-15            5            1            5 1.1300305e-16 
    1920    74.560205       11 1.1568099e-15            5            1            5 1.1294652e-16 
    1925    74.883445       11 1.1603993e-15            5            1            5 1.1289001e-16 
    1930    75.209044       11 1.1640014e-15            5            1            5 1.1283354e-16 
    1935     75.53306       11 1.1676164e-15            5            1            5 1.1277709e-16 
    1940    75.858324       11 1.1712443e-15            5            1            5 1.1272067e-16 
    1945     76.19178       11 1.174885e-15            5            1            5 1.1266428e-16 
    1950    76.564048       11 1.1785387e-15            5            1            5 1.1260792e-16 
    1955    76.928841       11 1.1822053e-15            5            1            5 1.1255158e-16 
    1960    77.323081       11 1.1858851e-15            5            1            5 1.1249528e-16 
    1965    77.854278       11 1.1895779e-15            5            1            5  1.12439e-16 
    1970    78.417197       11 1.1932838e-15            5            1            5 1.1238275e-16 
    1975    78.954158       11 1.1970029e-15            5            1            5 1.1232653e-16 
    1980     79.52043       11 1.2007352e-15            5            1            5 1.1227033e-16 
    1985    80.097064       11 1.2044808e-15            5            1            5 1.1221417e-16 
    1990    80.690976       11 1.2082397e-15            5            1            5 1.1215803e-16 
    1995    81.291153       11 1.2120119e-15            5            1            5 1.1210192e-16 
    2000    81.841263       11 1.2157976e-15            5            1            5 1.1204584e-16 
    2005    82.346787       11 1.2195967e-15            5            1            5 1.1198979e-16 
    2010    82.863058       11 1.2234093e-15            5            1            5 1.1193377e-16 
    2015    83.371598       11 1.2272355e-15            5            1            5 1.1187777e-16 
    2020    83.889691       12 1.2310752e-15            6            1            5 1.1182181e-16 
    2025    84.400579       12 1.2349286e-15            6            1            5 1.1176587e-16 
    2030    84.902341       12 1.2387957e-15            6            1            5 1.1170996e-16 
    2035    85.414498       12 1.2426765e-15            6            1            5 1.1165407e-16 
    2040    85.949489       12 1.2465711e-15            6            1            5 1.1159822e-16 
    2045    86.463888       12 1.2504796e-15            6            1            5 1.1154239e-16 
    2050    86.980641       13 1.2544019e-15            7            1            5 1.1148659e-16 
    2055    87.503125       13 1.2583381e-15            7            1            5 1.1143082e-16 
    2060    88.020034       13 1.2622884e-15            7            1            5 1.1137508e-16 
    2065    88.543112       13 1.2662526e-15            7            1            5 1.1131937e-16 
    2070    89.070024       13 1.2702309e-15            7            1            5 1.1126368e-16 
    2075    89.596966       13 1.2742234e-15            7            1            5 1.1120802e-16 
    2080    90.137577       13  1.27823e-15            7            1            5 1.1115239e-16 
    2085    90.692903       13 1.2822509e-15            7            1            5 1.1109679e-16 
    2090    91.216711       13 1.286286e-15            7            1            5 1.1104122e-16 
    2095     91.80533       13 1.2903354e-15            7            1            5 1.1098567e-16 
    2100    92.344477       13 1.2943992e-15            7            1            5 1.1093015e-16 
    2105    92.877234       13 1.2984775e-15            7            1            5 1.1087466e-16 
    2110    93.362299       13 1.3025702e-15            7            1            5 1.108192e-16 
    2115    93.828372       13 1.3066774e-15            7            1            5 1.1076377e-16 
    2120    94.282709       13 1.3107992e-15            7            1            5 1.1070836e-16 
    2125    94.757597       13 1.3149356e-15            7            1            5 1.1065299e-16 
    2130    95.336638       14 1.3190867e-15            7            1            6 1.1059764e-16 
    2135    95.907278       14 1.3232526e-15            7            1            6 1.1054231e-16 
    2140    96.393642       14 1.3274332e-15            7            1            6 1.1048702e-16 
    2145    96.841243       14 1.3316286e-15            7            1            6 1.1043176e-16 
    2150    97.325429       14 1.335839e-15            7            1            6 1.1037652e-16 
    2155    97.836723       14 1.3400642e-15            7            1            6 1.1032131e-16 
    2160     98.38466       14 1.3443045e-15            7            1            6 1.1026613e-16 
    2165    98.927234       14 1.3485598e-15            7            1            6 1.1021097e-16 
    2170    99.487999       14 1.3528301e-15            7            1            6 1.1015585e-16 
    2175    100.05313       14 1.3571156e-15            7            1            6 1.1010075e-16 
    2180    100.62233       14 1.3614164e-15            7            1            6 1.1004568e-16 
    2185    101.15881       14 1.3657323e-15            7            1            6 1.0999064e-16 
    2190    101.76717       14 1.3700636e-15            7            1            6 1.0993562e-16 
    2195     102.3009       14 1.3744102e-15            7            1            6 1.0988064e-16 
    2200    102.85633       14 1.3787722e-15            7            1            6 1.0982568e-16 
    2205    103.38682       14 1.3831497e-15            7            1            6 1.0977075e-16 
    2210    103.88992       15 1.3875427e-15            7            1            7 1.0971585e-16 
    2215     104.3458       15 1.3919513e-15            7            1            7 1.0966098e-16 
    2220    104.80625       15 1.3963755e-15            7            1            7 1.0960613e-16 
    2225    105.28652       15 1.4008154e-15            7            1            7 1.0955131e-16 
    2230     105.7261       15 1.405271e-15            7            1            7 1.0949652e-16 
    2235    106.22727       15 1.4097424e-15            7            1            7 1.0944176e-16 
    2240    106.77378       15 1.4142297e-15            7            1            7 1.0938702e-16 
    2245    107.24613       15 1.4187328e-15            7            1            7 1.0933232e-16 
    2250    107.72201       15 1.423252e-15            7            1            7 1.0927764e-16 
    2255    108.22918       15 1.4277871e-15            7            1            7 1.0922299e-16 
    2260    108.77008       15 1.4323383e-15            7            1            7 1.0916837e-16 
    2265    109.24342       15 1.4369056e-15            7            1            7 1.0911377e-16 
    2270    109.77925       15 1.4414891e-15            7            1            7 1.0905921e-16 
    2275    110.34378       15 1.4460888e-15            7            1            7 1.0900467e-16 
    2280    110.83623       15 1.4507048e-15            7            1            7 1.0895016e-16 
    2285    111.34051       15 1.4553372e-15            7            1            7 1.0889568e-16 
    2290    111.89339       15 1.459986e-15            7            1            7 1.0884122e-16 
    2295    112.43497       15 1.4646512e-15            7            1            7 1.0878679e-16 
    2300    112.99726       15 1.469333e-15            7            1            7 1.087324e-16 
    2305    113.57145       15 1.4740313e-15            7            1            7 1.0867803e-16 
    2310    114.12944       15 1.4787463e-15            7            1            7 1.0862368e-16 
    2315    114.72717       15 1.483478e-15            7            1            7 1.0856937e-16 
    2320    115.37594       15 1.4882264e-15            7            1            7 1.0851508e-16 
    2325    116.03123       15 1.4929916e-15            7            1            7 1.0846082e-16 
    2330     116.7017       15 1.4977737e-15            7            1            7 1.0840659e-16 
    2335    117.36129       15 1.5025728e-15            7            1            7 1.0835239e-16 
    2340    118.02459       15 1.5073888e-15            7            1            7 1.0829822e-16 
    2345    118.70814       15 1.5122219e-15            7            1            7 1.0824407e-16 
    2350    119.38135       15 1.517072e-15            7            1            7 1.0818995e-16 
    2355    119.99948       15 1.5219394e-15            7            1            7 1.0813586e-16 
    2360    120.63233       15 1.5268239e-15            7            1            7 1.080818e-16 
    2365    121.24178       15 1.5317258e-15            7            1            7 1.0802777e-16 
    2370    121.84053       15 1.536645e-15            7            1            7 1.0797376e-16 
    2375    122.49963       15 1.5415816e-15            7            1            7 1.0791979e-16 
    2380    123.09761       15 1.5465357e-15            7            1            7 1.0786584e-16 
    2385    123.69531       15 1.5515073e-15            7            1            7 1.0781192e-16 
    2390    124.31022       15 1.5564965e-15            7            1            7 1.0775802e-16 
    2395    124.93707       15 1.5615034e-15            7            1            7 1.0770416e-16 
    2400    125.56054       15 1.5665279e-15            7            1            7 1.0765032e-16 
    2405    126.18547       15 1.5715703e-15            7            1            7 1.0759651e-16 
    2410    126.81216       15 1.5766305e-15            7            1            7 1.0754273e-16 
    2415     127.3585       15 1.5817086e-15            7            1            7 1.0748898e-16 
    2420    127.96713       15 1.5868046e-15            7            1            7 1.0743526e-16 
    2425    128.56773       15 1.5919187e-15            7            1            7 1.0738156e-16 
    2430    129.24464       15 1.5970508e-15            7            1            7 1.073279e-16 
    2435    129.87445       15 1.6022011e-15            7            1            7 1.0727426e-16 
    2440    130.48926       15 1.6073697e-15            7            1            7 1.0722065e-16 
    2445    131.12014       15 1.6125565e-15            7            1            7 1.0716707e-16 
    2450     131.7927       15 1.6177616e-15            7            1            7 1.0711351e-16 
    2455    132.46947       15 1.6229852e-15            7            1            7 1.0705999e-16 
    2460     133.0971       15 1.6282272e-15            7            1            7 1.0700649e-16 
    2465    133.72178       15 1.6334877e-15            7            1            7 1.0695303e-16 
    2470     134.3478       15 1.6387669e-15            7            1            7 1.0689959e-16 
    2475    135.01306       15 1.6440647e-15            7            1            7 1.0684618e-16 
    2480    135.67185       16 1.6493812e-15            8            1            7 1.067928e-16 
    2485    136.47931       16 1.6547166e-15            8            1            7 1.0673944e-16 
    2490    137.15006       16 1.6600708e-15            8            1            7 1.0668612e-16 
    2495    137.80288       16 1.6654439e-15            8            1            7 1.0663282e-16 
    2500    138.45001       16 1.6708361e-15            8            1            7 1.0657956e-16 
    2505    139.14171       16 1.6762472e-15            8            1            7 1.0652632e-16 
    2510    139.81015       16 1.6816775e-15            8            1            7 1.0647311e-16 
    2515    140.42647       16 1.6871271e-15            8            1            7 1.0641993e-16 
    2520      141.092       16 1.6925958e-15            8            1            7 1.0636678e-16 
    2525    141.75243       16 1.6980839e-15            8            1            7 1.0631366e-16 
    2530    142.41682       16 1.7035914e-15            8            1            7 1.0626056e-16 
    2535    143.17272       16 1.7091183e-15            8            1            7 1.062075e-16 
    2540     143.9019       16 1.7146648e-15            8            1            7 1.0615447e-16 
    2545    144.78357       16 1.7202309e-15            8            1            7 1.0610146e-16 
    2550     145.6082       16 1.7258166e-15            8            1            7 1.0604848e-16 
    2555    146.42236       16 1.7314221e-15            8            1            7 1.0599553e-16 
    2560    147.19123       16 1.7370474e-15            8            1            7 1.0594262e-16 
    2565    147.94488       16 1.7426925e-15            8            1            7 1.0588973e-16 
    2570    148.70011       16 1.7483576e-15            8            1            7 1.0583687e-16 
    2575    149.44693       16 1.7540427e-15            8            1            7 1.0578404e-16 
    2580    150.15618       16 1.7597479e-15            8            1            7 1.0573124e-16 
    2585    150.84207       16 1.7654733e-15            8            1            7 1.0567847e-16 
    2590    151.54491       16 1.7712188e-15            8            1            7 1.0562573e-16 
    2595    152.24801       16 1.7769847e-15            8            1            7 1.0557301e-16 
    2600    152.95595       16 1.7827709e-15            8            1            7 1.0552033e-16 
    2605    153.64347       16 1.7885776e-15            8            1            7 1.0546768e-16 
    2610    154.30368       16 1.7944048e-15            8            1            7 1.0541506e-16 
    2615    154.97085       16 1.8002525e-15            8            1            7 1.0536247e-16 
    2620    155.65115       16 1.8061209e-15            8            1            7 1.0530991e-16 
    2625    156.33367       16  1.81201e-15            8            1            7 1.0525737e-16 
    2630    157.08168       16 1.8179199e-15            8            1            7 1.0520487e-16 
    2635    157.73855       16 1.8238507e-15            8            1            7 1.051524e-16 
    2640    158.39972       16 1.8298025e-15            8            1            7 1.0509996e-16 
    2645    159.08471       16 1.8357752e-15            8            1            7 1.0504755e-16 
    2650    159.78208       16 1.841769e-15            8            1            7 1.0499517e-16 
    2655    160.49069       16 1.847784e-15            8            1            7 1.0494282e-16 
    2660    161.19167       16 1.8538203e-15            8            1            7 1.048905e-16 
    2665    161.93012       16 1.8598778e-15            8            1            7 1.0483821e-16 
    2670    162.66754       16 1.8659567e-15            8            1            7 1.0478595e-16 
    2675    163.39329       16 1.8720571e-15            8            1            7 1.0473373e-16 
    2680    164.11384       16 1.878179e-15            8            1            7 1.0468153e-16 
    2685     164.9153       16 1.8843225e-15            8            1            7 1.0462937e-16 
    2690    165.75854       16 1.8904877e-15            8            1            7 1.0457723e-16 
    2695    166.59603       16 1.8966747e-15            8            1            7 1.0452513e-16 
    2700    167.36373       16 1.9028835e-15            8            1            7 1.0447306e-16 
    2705    168.17907       16 1.9091142e-15            8            1            7 1.0442102e-16 
    2710    168.98307       16 1.9153669e-15            8            1            7 1.0436902e-16 
    2715     169.7505       16 1.9216417e-15            8            1            7 1.0431704e-16 
    2720    170.54852       16 1.9279386e-15            8            1            7 1.042651e-16 
    2725    171.30504       17 1.9342577e-15            8            1            8 1.0421319e-16 
    2730    172.06582       17 1.9405992e-15            8            1            8 1.0416131e-16 
    2735    172.82316       17 1.946963e-15            8            1            8 1.0410946e-16 
    2740     173.5722       17 1.9533493e-15            8            1            8 1.0405764e-16 
    2745    174.31592       17 1.9597581e-15            8            1            8 1.0400586e-16 
    2750    175.07308       17 1.9661895e-15            8            1            8 1.0395411e-16 
    2755    175.81815       17 1.9726436e-15            8            1            8 1.0390239e-16 
    2760     176.5781       17 1.9791205e-15            8            1            8 1.0385071e-16 
    2765    177.42271       17 1.9856202e-15            8            1            8 1.0379906e-16 
    2770    178.20117       17 1.9921428e-15            8            1            8 1.0374744e-16 
    2775    178.99689       17 1.9986885e-15            8            1            8 1.0369586e-16 
    2780    179.77654       17 2.0052573e-15            8            1            8 1.0364431e-16 
    2785    180.54311       17 2.0118492e-15            8            1            8 1.0359279e-16 
    2790    181.29365       17 2.0184644e-15            8            1            8 1.035413e-16 
    2795    182.15389       17 2.0251029e-15            8            1            8 1.0348985e-16 
    2800    183.06319       17 2.0317648e-15            8            1            8 1.0343844e-16 
    2805    184.05112       17 2.0384502e-15            8            1            8 1.0338706e-16 
    2810    184.83744       17 2.0451592e-15            8            1            8 1.0333571e-16 
    2815    185.64226       17 2.0518919e-15            8            1            8 1.032844e-16 
    2820    186.44424       18 2.0586483e-15            9            1            8 1.0323312e-16 
    2825    187.22454       19 2.0654286e-15            9            1            9 1.0318188e-16 
    2830    187.90915       19 2.0722327e-15            9            1            9 1.0313067e-16 
    2835    188.61928       19 2.0790609e-15            9            1            9 1.030795e-16 
    2840    189.32922       19 2.0859131e-15            9            1            9 1.0302836e-16 
    2845    190.02789       19 2.0927895e-15            9            1            9 1.0297726e-16 
    2850    190.74184       19 2.0996902e-15            9            1            9 1.0292619e-16 
    2855    191.46221       19 2.1066152e-15            9            1            9 1.0287517e-16 
    2860    192.15991       19 2.1135646e-15            9            1            9 1.0282417e-16 
    2865    192.89656       19 2.1205385e-15            9            1            9 1.0277322e-16 
    2870    193.62158       19 2.127537e-15            9            1            9 1.027223e-16 
    2875    194.31598       19 2.1345602e-15            9            1            9 1.0267142e-16 
    2880    195.01702       20 2.1416081e-15            9            1           10 1.0262057e-16 
    2885    195.77899       20 2.1486809e-15            9            1           10 1.0256976e-16 
    2890     196.5046       20 2.1557786e-15            9            1           10 1.0251899e-16 
    2895    197.22177       20 2.1629013e-15            9            1           10 1.0246826e-16 
    2900    197.92323       20 2.1700492e-15            9            1           10 1.0241757e-16 
    2905    198.64053       20 2.1772222e-15            9            1           10 1.0236691e-16 
    2910    199.39101       20 2.1844206e-15            9            1           10 1.023163e-16 
    2915    200.10048       20 2.1916443e-15            9            1           10 1.0226572e-16 
    2920    200.83831       21 2.1988934e-15           10            1           10 1.0221518e-16 
    2925    201.56722       21 2.2061682e-15           10            1           10 1.0216468e-16 
    2930     202.3024       21 2.2134685e-15           10            1           10 1.0211422e-16 
    2935    202.46247       22 2.2207946e-15           11            1           10 1.020638e-16 
    2940    202.62152       22 2.2281466e-15           11            1           10 1.020134e-16 
    2945    202.76611       22 2.2355244e-15           11            1           10 1.0196303e-16 
    2950    202.92572       22 2.2429282e-15           11            1           10 1.0191268e-16 
    2955    203.09811       22 2.2503581e-15           11            1           10 1.0186236e-16 
    2960    203.25203       22 2.2578141e-15           11            1           10 1.0181206e-16 
    2965    203.41422       22 2.2652964e-15           11            1           10 1.0176179e-16 
    2970    203.56986       22 2.2728051e-15           11            1           10 1.0171154e-16 
    2975    203.72654       22 2.2803402e-15           11            1           10 1.0166132e-16 
    2980    203.88528       22 2.2879019e-15           11            1           10 1.0161112e-16 
    2985    204.06516       22 2.2954902e-15           11            1           10 1.0156095e-16 
    2990    204.25306       22 2.3031052e-15           11            1           10 1.0151081e-16 
    2995    204.42443       23 2.3107471e-15           11            1           11 1.0146069e-16 
    3000    204.62008       24 2.3184158e-15           12            1           11 1.0141059e-16 
    3005     204.7687       24 2.3261116e-15           12            1           11 1.0136052e-16 
    3010    204.92902       24 2.3338344e-15           12            1           11 1.0131048e-16 
    3015    205.07788       24 2.3415845e-15           12            1           11 1.0126046e-16 
    3020    205.22857       24 2.3493618e-15           12            1           11 1.0121046e-16 
    3025     205.3893       24 2.3571665e-15           12            1           11 1.011605e-16 
    3030    205.55502       24 2.3649987e-15           12            1           11 1.0111055e-16 
    3035    205.70767       24 2.3728585e-15           12            1           11 1.0106063e-16 
    3040    205.86631       24 2.380746e-15           12            1           11 1.0101074e-16 
    3045    206.10827       24 2.3886612e-15           12            1           11 1.0096087e-16 
    3050    206.88646       25 2.3966043e-15           13            1           11 1.0091104e-16 
    3055    207.67241       25 2.4045754e-15           13            1           11 1.0086125e-16 
    3060    208.48718       25 2.4125745e-15           13            1           11 1.008115e-16 
    3065    209.27966       25 2.4206019e-15           13            1           11 1.0076179e-16 
    3070    210.05408       25 2.4286575e-15           13            1           11 1.0071212e-16 
    3075    210.91926       26 2.4367415e-15           14            1           11 1.006625e-16 
    3080    211.68255       26 2.4448539e-15           14            1           11 1.0061292e-16 
    3085    212.49996       26 2.4529949e-15           14            1           11 1.0056339e-16 
    3090    213.32232       26 2.4611646e-15           14            1           11 1.005139e-16 
    3095     214.2824       26 2.4693631e-15           14            1           11 1.0046445e-16 
    3100    215.24344       26 2.4775904e-15           14            1           11 1.0041505e-16 
    3105     216.2214       26 2.4858468e-15           14            1           11 1.0036569e-16 
    3110    217.17988       26 2.4941321e-15           14            1           11 1.0031638e-16 
    3115    218.19058       26 2.5024467e-15           14            1           11 1.0026712e-16 
    3120    219.17049       26 2.5107906e-15           14            1           11 1.002179e-16 
    3125    220.11683       26 2.5191638e-15           14            1           11 1.0016873e-16 
    3130    220.95816       26 2.5275665e-15           14            1           11 1.001196e-16 
    3135    221.92446       26 2.5359989e-15           14            1           11 1.0007053e-16 
    3140       222.92       26 2.5444609e-15           14            1           11 1.000215e-16 
    3145    223.79912       26 2.5529527e-15           14            1           11 9.9972521e-17 
    3150    224.81941       27 2.5614744e-15           14            1           12 9.9923592e-17 
    3155    225.70213       27 2.5700261e-15           14            1           12 9.9874712e-17 
    3160    226.49094       27 2.5786079e-15           14            1           12 9.9825882e-17 
    3165    227.33175       27  2.58722e-15           14            1           12 9.9777103e-17 
    3170    228.22435       27 2.5958623e-15           14            1           12 9.9728375e-17 
    3175    229.12419       27 2.6045351e-15           14            1           12 9.9679699e-17 
    3180    230.11608       27 2.6132385e-15           14            1           12 9.9631075e-17 
    3185    231.13892       27 2.6219724e-15           14            1           12 9.9582503e-17 
    3190    232.14647       27 2.6307372e-15           14            1           12 9.9533986e-17 
    3195    232.94831       27 2.6395328e-15           14            1           12 9.9485522e-17 
    3200    233.66325       27 2.6483593e-15           14            1           12 9.9437113e-17 
    3205    234.37977       27 2.6572169e-15           14            1           12 9.9388758e-17 
    3210    235.13489       27 2.6661058e-15           14            1           12 9.934046e-17 
    3215    235.90721       27 2.6750259e-15           14            1           12 9.9292217e-17 
    3220    236.63803       27 2.6839774e-15           14            1           12 9.9244032e-17 
    3225    237.41697       27 2.6929604e-15           14            1           12 9.9195904e-17 
    3230    238.23385       28 2.7019751e-15           15            1           12 9.9147835e-17 
    3235    238.99867       28 2.7110215e-15           15            1           12 9.9099824e-17 
    3240     239.7854       28 2.7200997e-15           15            1           12 9.9051872e-17 
    3245    240.60345       28 2.7292099e-15           15            1           12 9.9003981e-17 
    3250    241.40872       28 2.7383522e-15           15            1           12 9.8956151e-17 
    3255    242.18307       28 2.7475267e-15           15            1           12 9.8908382e-17 
    3260    242.98479       28 2.7567334e-15           15            1           12 9.8860676e-17 
    3265    243.81892       28 2.7659726e-15           15            1           12 9.8813033e-17 
    3270    244.62593       28 2.7752443e-15           15            1           12 9.8765453e-17 
    3275    245.39378       28 2.7845487e-15           15            1           12 9.8717938e-17 
    3280    246.21758       28 2.7938857e-15           15            1           12 9.8670488e-17 
    3285    247.02772       28 2.8032557e-15           15            1           12 9.8623105e-17 
    3290     247.8696       28 2.8126587e-15           15            1           12 9.8575788e-17 
    3295    248.68405       28 2.8220947e-15           15            1           12 9.8528539e-17 
    3300     249.4848       28 2.831564e-15           15            1           12 9.8481359e-17 
    3305    250.33275       28 2.8410666e-15           15            1           12 9.8434248e-17 
    3310    251.14014       30 2.8506026e-15           15            1           14 9.8387207e-17 
    3315    251.94521       30 2.8601722e-15           15            1           14 9.8340238e-17 
    3320     252.7775       30 2.8697755e-15           15            1           14 9.829334e-17 
    3325    253.58905       30 2.8794127e-15           15            1           14 9.8246516e-17 
    3330    254.40876       30 2.8890837e-15           15            1           14 9.8199765e-17 
    3335    255.20229       30 2.8987888e-15           15            1           14 9.815309e-17 
    3340    256.05602       30 2.9085281e-15           15            1           14 9.810649e-17 
    3345    256.86899       30 2.9183016e-15           15            1           14 9.8059967e-17 
    3350    257.66613       30 2.9281095e-15           15            1           14 9.8013521e-17 
    3355    258.51962       30 2.937952e-15           15            1           14 9.7967155e-17 
    3360    259.25875       30 2.9478291e-15           15            1           14 9.7920868e-17 
    3365    259.97081       30 2.957741e-15           15            1           14 9.7874663e-17 
    3370    260.65908       30 2.9676877e-15           15            1           14 9.7828539e-17 
    3375    261.41569       30 2.9776695e-15           15            1           14 9.7782499e-17 
    3380    262.12213       30 2.9876865e-15           15            1           14 9.7736542e-17 
    3385    262.83672       30 2.9977386e-15           15            1           14 9.7690671e-17 
    3390    263.61383       30 3.0078262e-15           15            1           14 9.7644887e-17 
    3395    264.37832       30 3.0179493e-15           15            1           14 9.759919e-17 
    3400    265.11176       30 3.028108e-15           15            1           14 9.7553582e-17 
    3405    265.88182       30 3.0383025e-15           15            1           14 9.7508064e-17 
    3410    266.59712       30 3.0485328e-15           15            1           14 9.7462637e-17 
    3415    267.35159       30 3.0587992e-15           15            1           14 9.7417304e-17 
    3420    268.09998       30 3.0691017e-15           15            1           14 9.7372063e-17 
    3425    268.83826       30 3.0794405e-15           15            1           14 9.7326919e-17 
    3430    269.56457       30 3.0898156e-15           15            1           14 9.728187e-17 
    3435    270.30114       30 3.1002273e-15           15            1           14 9.723692e-17 
    3440    271.03134       30 3.1106757e-15           15            1           14 9.7192068e-17 
    3445    271.78456       30 3.1211608e-15           15            1           14 9.7147318e-17 
    3450    272.51637       30 3.1316828e-15           15            1           14 9.7102669e-17 
    3455    273.27382       30 3.1422419e-15           15            1           14 9.7058124e-17 
    3460    274.04069       30 3.1528381e-15           15            1           14 9.7013684e-17 
    3465    274.81032       30 3.1634717e-15           15            1           14 9.6969351e-17 
    3470    275.57107       30 3.1741427e-15           15            1           14 9.6925126e-17 
    3475    276.33536       30 3.1848512e-15           15            1           14 9.688101e-17 
    3480    277.10669       30 3.1955975e-15           15            1           14 9.6837005e-17 
    3485    277.87655       30 3.2063815e-15           15            1           14 9.6793113e-17 
    3490     278.6303       30 3.2172036e-15           15            1           14 9.6749336e-17 
    3495    279.38146       30 3.2280637e-15           15            1           14 9.6705675e-17 
    3500    280.16746       30 3.2389621e-15           15            1           14 9.6662132e-17 
    3505    280.94928       30 3.2498988e-15           15            1           14 9.6618708e-17 
    3510    281.76332       30 3.2608741e-15           15            1           14 9.6575405e-17 
    3515    282.54555       30 3.271888e-15           15            1           14 9.6532226e-17 
    3520    283.34138       30 3.2829406e-15           15            1           14 9.6489171e-17 
    3525    284.16531       31 3.2940322e-15           15            1           15 9.6446244e-17 
    3530     284.9646       31 3.3051628e-15           15            1           15 9.6403445e-17 
    3535    285.76225       31 3.3163326e-15           15            1           15 9.6360776e-17 
    3540    286.54426       31 3.3275418e-15           15            1           15 9.631824e-17 
    3545     287.3283       31 3.3387904e-15           15            1           15 9.6275838e-17 
    3550    288.12511       31 3.3500786e-15           15            1           15 9.6233573e-17 
    3555    288.91943       31 3.3614066e-15           15            1           15 9.6191447e-17 
    3560    289.72062       31 3.3727744e-15           15            1           15 9.6149461e-17 
    3565    290.56836       31 3.3841823e-15           15            1           15 9.6107618e-17 
    3570    291.39806       31 3.3956303e-15           15            1           15 9.606592e-17 
    3575    292.24561       31 3.4071187e-15           15            1           15 9.6024369e-17 
    3580    293.03803       31 3.4186475e-15           15            1           15 9.5982967e-17 
    3585    293.83109       31 3.4302169e-15           15            1           15 9.5941717e-17 
    3590    294.66298       31 3.441827e-15           15            1           15 9.5900621e-17 
    3595    295.49519       31 3.4534781e-15           15            1           15 9.5859681e-17 
    3600    296.31539       32 3.4651701e-15           15            1           16  9.58189e-17 
    3605    297.15577       32 3.4769034e-15           15            1           16 9.577828e-17 
    3610    297.99247       32 3.4886779e-15           15            1           16 9.5737823e-17 
    3615    298.83051       32 3.500494e-15           15            1           16 9.5697533e-17 
    3620    299.70879       32 3.5123516e-15           15            1           16 9.5657411e-17 
    3625    300.53251       32 3.524251e-15           15            1           16 9.561746e-17 
    3630    301.36481       33 3.5361923e-15           15            1           17 9.5577684e-17 
    3635    302.21017       33 3.5481757e-15           15            1           17 9.5538083e-17 
    3640    303.07404       33 3.5602013e-15           15            1           17 9.5498662e-17 
    3645    303.95593       33 3.5722692e-15           15            1           17 9.5459423e-17 
    3650    304.82305       33 3.5843797e-15           15            1           17 9.5420369e-17 
    3655    305.71045       34 3.5965328e-15           16            1           17 9.5381502e-17 
    3660    306.56583       34 3.6087287e-15           16            1           17 9.5342826e-17 
    3665    307.38126       34 3.6209676e-15           16            1           17 9.5304344e-17 
    3670    308.22133       34 3.6332496e-15           16            1           17 9.5266058e-17 
    3675    309.06932       34 3.6455749e-15           16            1           17 9.5227972e-17 
    3680    309.90479       34 3.6579435e-15           16            1           17 9.5190088e-17 
    3685    310.78941       34 3.6703558e-15           16            1           17 9.5152411e-17 
    3690    311.67921       34 3.6828118e-15           16            1           17 9.5114942e-17 
    3695    312.54035       34 3.6953117e-15           16            1           17 9.5077686e-17 
    3700    313.41126       34 3.7078556e-15           16            1           17 9.5040646e-17 
    3705    314.25435       34 3.7204437e-15           16            1           17 9.5003825e-17 
    3710    315.11733       34 3.7330762e-15           16            1           17 9.4967226e-17 
    3715    315.99524       34 3.7457532e-15           16            1           17 9.4930854e-17 
    3720    316.90048       34 3.7584749e-15           16            1           17 9.489471e-17 
    3725    317.80888       35 3.7712414e-15           17            1           17  9.48588e-17 
    3730    318.68735       35 3.7840528e-15           17            1           17 9.4823127e-17 
    3735    319.59516       35 3.7969095e-15           17            1           17 9.4787694e-17 
    3740    320.47132       35 3.8098114e-15           17            1           17 9.4752505e-17 
    3745    321.35052       36 3.8227589e-15           18            1           17 9.4717565e-17 
    3750    322.21112       37 3.8357519e-15           19            1           17 9.4682877e-17 
    3755     323.0937       37 3.8487908e-15           19            1           17 9.4648444e-17 
    3760      323.988       37 3.8618756e-15           19            1           17 9.4614272e-17 
    3765    324.90693       37 3.8750065e-15           19            1           17 9.4580364e-17 
    3770    325.81702       37 3.8881838e-15           19            1           17 9.4546724e-17 
    3775     326.7056       37 3.9014075e-15           19            1           17 9.4513356e-17 
    3780    327.60682       37 3.9146778e-15           19            1           17 9.4480265e-17 
    3785    328.47047       37 3.9279949e-15           19            1           17 9.4447456e-17 
    3790    329.42214       37 3.9413589e-15           19            1           17 9.4414932e-17 
    3795    330.36681       37 3.9547701e-15           19            1           17 9.4382698e-17 
    3800    331.28429       37 3.9682285e-15           19            1           17 9.4350758e-17 
    3805    332.19953       37 3.9817345e-15           19            1           17 9.4319119e-17 
    3810     333.1187       37 3.995288e-15           19            1           17 9.4287782e-17 
    3815    334.06793       38 4.0088894e-15           20            1           17 9.4256755e-17 
    3820    334.96509       38 4.0225387e-15           20            1           17 9.4226042e-17 
    3825    335.92812       39 4.0362361e-15           21            1           17 9.4195647e-17 
    3830    336.88512       39 4.0499819e-15           21            1           17 9.4165576e-17 
    3835    337.80719       39 4.0637762e-15           21            1           17 9.4135834e-17 
    3840    338.79107       39 4.0776191e-15           21            1           17 9.4106425e-17 
    3845    339.72344       39 4.0915109e-15           21            1           17 9.4077356e-17 
    3850    340.66345       40 4.1054516e-15           22            1           17 9.4048632e-17 
    3855    341.59092       40 4.1194416e-15           22            1           17 9.4020258e-17 
    3860    342.51216       40 4.1334809e-15           22            1           17 9.3992239e-17 
    3865    343.48193       40 4.1475697e-15           22            1           17 9.3964582e-17 
    3870    344.42985       40 4.1617083e-15           22            1           17 9.3937291e-17 
    3875    345.37226       40 4.1758968e-15           22            1           17 9.3910373e-17 
    3880     346.3385       40 4.1901353e-15           22            1           17 9.3883834e-17 
    3885    347.31894       40 4.2044241e-15           22            1           17 9.3857679e-17 
    3890     348.2839       40 4.2187633e-15           22            1           17 9.3831915e-17 
    3895    349.23284       41 4.2331532e-15           22            1           18 9.3806547e-17 
    3900    350.22348       41 4.2475938e-15           22            1           18 9.3781583e-17 
[...]
    4045    370.30669       44 4.6891945e-15           23            1           20 9.3144167e-17 
    4050    371.35932       44 4.7052414e-15           23            1           20 9.3128687e-17 
    4055    372.43328       44 4.721345e-15           23            1           20 9.3113789e-17 
    4060    373.54361       44 4.7375055e-15           23            1           20 9.3099483e-17 
    4065    374.61828       44 4.7537232e-15           23            1           20 9.3085777e-17 
    4070    375.72772       44 4.7699982e-15           23            1           20 9.307268e-17 
    4075    376.81484       44 4.7863308e-15           23            1           20 9.3060202e-17 
    4080    377.90562       44 4.8027211e-15           23            1           20 9.3048352e-17 
    4085    378.98989       45 4.8191695e-15           24            1           20 9.3037138e-17 
    4090    380.11999       45 4.835676e-15           24            1           20 9.3026572e-17 
    4095    381.21701       45 4.8522409e-15           24            1           20 9.3016661e-17 
    4100    382.27843       45 4.8688645e-15           24            1           20 9.3007418e-17 
    4105    383.33864       45 4.8855468e-15           24            1           20 9.2998851e-17 
    4110    384.41296       46 4.9022882e-15           24            1           21 9.2990971e-17 
    4115    385.55444       46 4.9190889e-15           24            1           21 9.2983789e-17 
    4120    386.67602       46 4.935949e-15           24            1           21 9.2977314e-17 
    4125    387.75912       46 4.9528688e-15           24            1           21 9.2971558e-17 
    4130    388.92614       47 4.9698485e-15           24            1           22 9.2966532e-17 
    4135    390.03354       49 4.9868884e-15           24            1           24 9.2962246e-17 
    4140    390.77705       50 5.0039885e-15           25            1           24 9.2958682e-17 
    4145    390.90326       50 5.0211487e-15           25            1           24 9.2955308e-17 
    4150    391.04253       51 5.0383689e-15           26            1           24 9.2951947e-17 
    4155    391.18059       51 5.0556493e-15           26            1           24 9.2948598e-17 
    4160    391.30728       51 5.0729901e-15           26            1           24 9.2945262e-17 
    4165    391.44526       51 5.0903917e-15           26            1           24 9.2941937e-17 
    4170    391.57716       51 5.107854e-15           26            1           24 9.2938625e-17 
    4175    391.70508       51 5.1253775e-15           26            1           24 9.2935325e-17 
    4180    391.83748       53 5.1429623e-15           28            1           24 9.2932037e-17 
    4185    391.97286       53 5.1606086e-15           28            1           24 9.2928762e-17 
    4190    392.78481       53 5.1783167e-15           28            1           24 9.2925618e-17 
    4195    393.95803       53 5.1960875e-15           28            1           24 9.2923226e-17 
    4200    395.13175       53 5.2139212e-15           28            1           24 9.2921681e-17 
    4205    396.32196       53 5.2318182e-15           28            1           24 9.2920992e-17 
    4210    397.56646       53 5.2497784e-15           28            1           24 9.2920958e-17 
    4215    398.70603       53 5.2678014e-15           28            1           24 9.2920958e-17 
    4220    399.94538       54 5.2858875e-15           28            1           25 9.2920958e-17 
    4225    401.11806       55 5.3040367e-15           29            1           25 9.2920958e-17 
    4230    402.36222       55 5.3222494e-15           29            1           25 9.2920958e-17 
    4235    403.58078       55 5.3405258e-15           29            1           25 9.2920958e-17 
    4240    404.75191       55 5.3588661e-15           29            1           25 9.2920958e-17 
    4245    405.93148       55 5.3772705e-15           29            1           25 9.2920958e-17 
    4250    407.13416       55 5.3957393e-15           29            1           25 9.2920958e-17 
    4255    408.32486       55 5.4142728e-15           29            1           25 9.2921197e-17 
    4260     409.4821       55 5.4328709e-15           29            1           25 9.2921197e-17 
    4265    410.65105       55 5.4515343e-15           29            1           25 9.2921432e-17 
    4270    411.84907       55 5.4702626e-15           29            1           25 9.2921432e-17 
    4275    413.04189       55 5.4890567e-15           29            1           25 9.2921672e-17 
    4280    414.24402       55 5.5079165e-15           29            1           25 9.2921913e-17 
    4285    415.46752       55 5.526842e-15           29            1           25 9.2921913e-17 
    4290    416.67982       55 5.5458339e-15           29            1           25 9.292215e-17 
    4295    417.80748       55 5.5648922e-15           29            1           25 9.292239e-17 
    4300    418.98729       55 5.5840171e-15           29            1           25 9.2922626e-17 
    4305    420.21053       55 5.6032089e-15           29            1           25 9.2922862e-17 
    4310    421.47377       55 5.6224675e-15           29            1           25 9.2922862e-17 
    4315    422.70284       56 5.6417937e-15           29            1           26  9.29231e-17 
    4320    423.93594       56 5.6611875e-15           29            1           26 9.2923344e-17 
    4325    425.15468       56 5.6806491e-15           29            1           26 9.2923584e-17 
    4330    426.40255       56 5.7001787e-15           29            1           26 9.2923821e-17 
    4335    427.60876       57 5.7197766e-15           30            1           26 9.2924061e-17 
    4340    428.87478       57 5.739443e-15           30            1           26 9.2924303e-17 
    4345    430.09013       57 5.7591781e-15           30            1           26 9.2924536e-17 
    4350    431.26766       57 5.7789825e-15           30            1           26 9.2925016e-17 
    4355    432.54108       57 5.7988559e-15           30            1           26 9.292525e-17 
    4360    433.75433       57 5.8187988e-15           30            1           26 9.2925484e-17 
    4365    434.98441       57 5.8388114e-15           30            1           26 9.292572e-17 
    4370    436.21188       57 5.8588942e-15           30            1           26  9.29262e-17 
    4375     437.5235       57 5.879047e-15           30            1           26 9.2926446e-17 
    4380    438.78321       57 5.8992702e-15           30            1           26 9.2926697e-17 
    4385    439.99954       57 5.9195644e-15           30            1           26 9.292718e-17 
    4390    441.26368       57 5.9399292e-15           30            1           26 9.2927417e-17 
    4395    442.53689       57 5.9603656e-15           30            1           26 9.2927909e-17 
    4400    443.78747       57 5.9808731e-15           30            1           26 9.2928146e-17 
    4405    445.09968       57 6.0014525e-15           30            1           26 9.2928613e-17 
    4410    446.35713       57 6.0221039e-15           30            1           26 9.2929082e-17 
    4415    447.62323       57 6.0428273e-15           30            1           26 9.292932e-17 
    4420    448.89532       59 6.0636233e-15           31            1           27 9.2929803e-17 
    4425    450.10301       59 6.0844921e-15           31            1           27 9.2930299e-17 
    4430    451.34726       59 6.1054336e-15           31            1           27 9.2930552e-17 
    4435    452.62674       59 6.1264485e-15           31            1           27 9.2931041e-17 
    4440    453.93062       59 6.147537e-15           31            1           27 9.2931541e-17 
    4445    455.19889       59 6.1686991e-15           31            1           27 9.2932024e-17 
    4450    456.49424       59 6.1899352e-15           31            1           27 9.2932524e-17 
    4455    457.84737       59 6.2112456e-15           31            1           27 9.293302e-17 
    4460    459.15207       59 6.2326305e-15           31            1           27 9.2933519e-17 
    4465    460.47153       61 6.2540901e-15           32            1           28 9.2934027e-17 
    4470    461.73523       61 6.2756248e-15           32            1           28 9.2934525e-17 
    4475    463.00966       61 6.297235e-15           32            1           28 9.2935245e-17 
    4480    464.27455       61 6.3189205e-15           32            1           28 9.293576e-17 
    4485    465.58398       61 6.3406818e-15           32            1           28 9.2936245e-17 
    4490    466.91037       61 6.3625194e-15           32            1           28 9.2936957e-17 
    4495    468.16239       61 6.3844331e-15           32            1           28 9.2937432e-17 
    4500     469.5034       61 6.4064237e-15           32            1           28 9.2938156e-17 
    4505    470.80674       61 6.4284909e-15           32            1           28 9.2938648e-17 
    4510    472.19014       61 6.4506356e-15           32            1           28 9.2939399e-17 
    4515    473.51204       61 6.4728574e-15           32            1           28 9.293991e-17 
    4520    474.80818       61 6.4951572e-15           32            1           28 9.2940692e-17 
    4525    476.28999       61 6.5175346e-15           32            1           28 9.2941222e-17 
    4530    477.63133       61 6.5399906e-15           32            1           28 9.2942033e-17 
    4535    478.99771       61 6.5625251e-15           32            1           28 9.294279e-17 
    4540    480.35435       61 6.5851381e-15           32            1           28 9.2943322e-17 
    4545    481.76615       61 6.6078304e-15           32            1           28 9.2944088e-17 
    4550     483.1562       62 6.6306021e-15           32            1           29 9.2944872e-17 
    4555    484.51276       63 6.6534533e-15           32            1           30 9.2945641e-17 
    4560    485.90425       64 6.6763844e-15           33            1           30 9.2946416e-17 
    4565    487.22921       65 6.6993958e-15           34            1           30 9.2947203e-17 
    4570    488.64784       65 6.7224877e-15           34            1           30 9.2948204e-17 
    4575    490.09969       66 6.7456602e-15           34            1           31 9.2948969e-17 
    4580    491.53532       66 6.7689136e-15           34            1           31 9.294971e-17 
    4585    492.91312       66 6.7922487e-15           34            1           31 9.2950739e-17 
    4590    494.35392       66 6.8156651e-15           34            1           31 9.2951541e-17 
    4595    495.81441       66 6.8391633e-15           34            1           31 9.295232e-17 
    4600    497.35159       66 6.862744e-15           34            1           31 9.2953402e-17 
    4605    498.79758       66 6.8864068e-15           34            1           31 9.2954187e-17 
    4610    500.12961       66 6.9101527e-15           34            1           31 9.2955274e-17 
    4615    501.50723       67 6.9339815e-15           35            1           31 9.2956292e-17 
    4620    503.00623       67 6.9578933e-15           35            1           31 9.2957077e-17 
    4625    504.47179       67 6.9818891e-15           35            1           31 9.2958167e-17 
    4630    505.99658       67 7.0059688e-15           35            1           31 9.2959243e-17 
    4635    507.42724       67 7.0301326e-15           35            1           31 9.296029e-17 
    4640    508.98926       67 7.0543809e-15           35            1           31 9.2961346e-17 
    4645    510.48205       67 7.0787139e-15           35            1           31 9.2962373e-17 
    4650    511.92135       67 7.1031323e-15           35            1           31 9.2963615e-17 
    4655    513.37445       67 7.1276358e-15           35            1           31 9.2964704e-17 
    4660    514.80881       67 7.1522251e-15           35            1           31 9.2965889e-17 
    4665    516.22146       67 7.1769004e-15           35            1           31 9.2967067e-17 
    4670    517.66976       67 7.201662e-15           35            1           31 9.296826e-17 
    4675    519.16318       68 7.2265101e-15           35            1           32 9.2969472e-17 
    4680    520.70463       69 7.2514452e-15           35            1           33 9.2970703e-17 
    4685    522.12235       69 7.2764674e-15           35            1           33 9.2971953e-17 
    4690    523.66367       69 7.3015771e-15           35            1           33 9.2973222e-17 
    4695    524.98482       69 7.3267747e-15           35            1           33 9.2974512e-17 
    4700    526.75026       69 7.3520604e-15           35            1           33 9.2975821e-17 
    4705    527.94445       69 7.3774345e-15           35            1           33 9.2977152e-17 
    4710    529.77824       69 7.4028973e-15           35            1           33 9.2978502e-17 
    4715    530.44462       69 7.4284491e-15           35            1           33 9.2979872e-17 
    4720    530.59803       70 7.4540904e-15           36            1           33 9.2981246e-17 
    4725    530.73338       70 7.4798213e-15           36            1           33 9.298262e-17 
    4730    530.86213       70 7.5056422e-15           36            1           33 9.2983994e-17 
    4735    530.98907       70 7.5315533e-15           36            1           33 9.2985368e-17 
    4740    532.79618       71 7.5575551e-15           36            1           34 9.298675e-17 
    4745    533.83022       71 7.5836478e-15           36            1           34 9.298816e-17 
    4750    534.89521       71 7.6098317e-15           36            1           34 9.2989578e-17 
    4755    535.95348       71 7.6361071e-15           36            1           34 9.299101e-17 
    4760    537.04972       71 7.6624745e-15           36            1           34 9.2992455e-17 
    4765    538.08995       71 7.688934e-15           36            1           34 9.2993914e-17 
    4770    539.17582       72 7.7154861e-15           37            1           34 9.2995388e-17 
    4775    540.23337       72 7.7421311e-15           37            1           34 9.2996877e-17 
    4780    541.33345       72 7.7688692e-15           37            1           34 9.2998381e-17 
    4785    542.95622       73 7.7957007e-15           37            1           35 9.2999903e-17 
    4790    544.72988       74 7.8226262e-15           38            1           35 9.3001449e-17 
    4795    546.39081       74 7.8496458e-15           38            1           35 9.3003021e-17 
    4800    548.05725       74 7.8767598e-15           38            1           35 9.3004617e-17 
    4805    549.72838       74 7.9039687e-15           38            1           35 9.3006239e-17 
    4810    551.33716       74 7.9312727e-15           38            1           35 9.3007887e-17 
    4815    553.05055       74 7.9586722e-15           38            1           35 9.3009561e-17 
    4820    554.71477       74 7.9861675e-15           38            1           35 9.3011261e-17 
    4825    556.35409       74 8.013759e-15           38            1           35 9.3012988e-17 
    4830    557.97673       75 8.041447e-15           39            1           35 9.3014741e-17 
    4835    559.68559       75 8.0692317e-15           39            1           35 9.3016522e-17 
    4840    561.44105       75 8.0971137e-15           39            1           35 9.3018331e-17 
    4845    563.05061       75 8.1250931e-15           39            1           35 9.3020167e-17 
    4850     564.7803       75 8.1531704e-15           39            1           35 9.3022031e-17 
    4855    566.54754       75 8.1813459e-15           39            1           35 9.3023924e-17 
    4860    568.30851       75 8.2096199e-15           39            1           35 9.3025846e-17 
    4865    570.02161       75 8.2379927e-15           39            1           35 9.3027796e-17 
    4870    571.70394       75 8.2664648e-15           39            1           35 9.3029776e-17 
    4875     573.3326       75 8.2950365e-15           39            1           35 9.3031786e-17 
    4880    574.99938       77 8.3237081e-15           41            1           35 9.3033826e-17 
    4885     576.7133       78  8.35248e-15           42            1           35 9.3035897e-17 
    4890    578.41539       78 8.3813525e-15           42            1           35 9.3037998e-17 
    4895    580.10093       78 8.4103259e-15           42            1           35 9.3040131e-17 
    4900    581.78894       79 8.4394007e-15           43            1           35 9.3042295e-17 
    4905    583.39165       79 8.4685772e-15           43            1           35 9.3044491e-17 
    4910    585.14438       81 8.4978557e-15           44            1           36 9.304672e-17 
    4915    586.82388       82 8.5272365e-15           44            1           37 9.3048981e-17 
    4920    588.51314       82 8.5567202e-15           44            1           37 9.3051275e-17 
    4925    590.21856       83 8.5863069e-15           44            1           38 9.3053603e-17 
    4930    591.87737       83 8.6159971e-15           44            1           38 9.3055964e-17 
    4935    593.50948       83 8.6457911e-15           44            1           38 9.305836e-17 
    4940    595.17774       84 8.6756894e-15           44            1           39 9.3060791e-17 
    4945    596.80855       84 8.7056922e-15           44            1           39 9.3063257e-17 
    4950    598.54242       84 8.7357999e-15           44            1           39 9.3065758e-17 
    4955    600.27905       84 8.7660129e-15           44            1           39 9.3068295e-17 
    4960    601.95012       84 8.7963315e-15           44            1           39 9.3070868e-17 
    4965    603.73045       84 8.8267562e-15           44            1           39 9.3073479e-17 
    4970    605.50656       84 8.8572873e-15           44            1           39 9.3076126e-17 
    4975    607.31097       86 8.8879252e-15           45            1           40 9.3078812e-17 
    4980    609.03824       87 8.9186702e-15           46            1           40 9.3081535e-17 
    4985    610.80744       87 8.9495227e-15           46            1           40 9.3084297e-17 
    4990    612.52691       87 8.9804832e-15           46            1           40 9.3087098e-17 
    4995    614.25536       87 9.0115519e-15           46            1           40 9.3089939e-17 
    5000    616.03864       87 9.0427292e-15           46            1           40 9.3092819e-17 
Loop time of 616.039 on 1 procs for 5000 steps with 87 atoms

Performance: 25245168.992 tau/day, 8.116 timesteps/s
98.7% CPU use with 1 MPI tasks x no OpenMP threads

MPI task timing breakdown:
Section |  min time  |  avg time  |  max time  |%varavg| %total
---------------------------------------------------------------
Pair    | 0.055479   | 0.055479   | 0.055479   |   0.0 |  0.01
Neigh   | 10.876     | 10.876     | 10.876     |   0.0 |  1.77
Comm    | 0.088892   | 0.088892   | 0.088892   |   0.0 |  0.01
Output  | 0.040977   | 0.040977   | 0.040977   |   0.0 |  0.01
Modify  | 604.95     | 604.95     | 604.95     |   0.0 | 98.20
Other   |            | 0.02685    |            |       |  0.00

Nlocal:    87 ave 87 max 87 min
Histogram: 1 0 0 0 0 0 0 0 0 0
Nghost:    0 ave 0 max 0 min
Histogram: 1 0 0 0 0 0 0 0 0 0
Neighs:    368 ave 368 max 368 min
Histogram: 1 0 0 0 0 0 0 0 0 0

Total # of neighbors = 368
Ave neighs/atom = 4.22989
Neighbor list builds = 5000
Dangerous builds = 0


Total wall time: 0:10:18
