ITEM: TIMESTEP
0
ITEM: NUMBER OF ATOMS
20
ITEM: BOX BOUNDS ff ff ff
0.0000000000000000e+00 1.0000000000000000e-04
0.0000000000000000e+00 1.0000000000000000e-04
0.0000000000000000e+00 1.0000000000000001e-05
ITEM: ATOMS id type diameter x y z 
1 1 1e-06 5e-05 5e-05 5e-06 
2 2 1e-06 5.2e-05 5e-05 5e-06 
3 3 1e-06 5.4e-05 5e-05 5e-06 
4 4 1e-06 5.6e-05 5e-05 5e-06 
5 5 1e-06 5.8e-05 5e-05 5e-06 
6 1 1e-06 6e-05 5e-05 5e-06 
7 2 1e-06 6.2e-05 5e-05 5e-06 
8 3 1e-06 6.4e-05 5e-05 5e-06 
9 4 1e-06 6.6e-05 5e-05 5e-06 
10 5 1e-06 6.8e-05 5e-05 5e-06 
11 1 1e-06 7e-05 5e-05 5e-06 
12 2 1e-06 7.2e-05 5e-05 5e-06 
13 3 1e-06 7.4e-05 5e-05 5e-06 
14 4 1e-06 7.6e-05 5e-05 5e-06 
15 5 1e-06 7.8e-05 5e-05 5e-06 
16 1 1e-06 8e-05 5e-05 5e-06 
17 2 1e-06 8.2e-05 5e-05 5e-06 
18 3 1e-06 8.4e-05 5e-05 5e-06 
19 4 1e-06 8.6e-05 5e-05 5e-06 
20 5 1e-06 8.8e-05 5e-05 5e-06 
ITEM: TIMESTEP
1000
ITEM: NUMBER OF ATOMS
32
ITEM: BOX BOUNDS ff ff ff
0.0000000000000000e+00 1.0000000000000000e-04
0.0000000000000000e+00 1.0000000000000000e-04
0.0000000000000000e+00 1.0000000000000001e-05
ITEM: ATOMS id type diameter x y z 
6 1 7.82375e-07 6.01127e-05 5.0168e-05 4.41113e-06 
16 1 7.98346e-07 8.02158e-05 5.01089e-05 4.35582e-06 
21 1 8.19952e-07 4.94924e-05 4.98135e-05 4.63548e-06 
7 2 8.31907e-07 6.193e-05 4.96378e-05 4.79824e-06 
11 1 7.88892e-07 6.94113e-05 4.98074e-05 4.99138e-06 
28 2 7.83125e-07 7.21829e-05 4.96535e-05 4.95334e-06 
22 2 8.33734e-07 5.17829e-05 5.0278e-05 4.76927e-06 
23 3 8.19277e-07 5.40907e-05 5.0094e-05 4.61095e-06 
26 3 8.37128e-07 6.41998e-05 5.03508e-05 4.89802e-06 
29 3 7.78799e-07 7.4179e-05 5.00108e-05 4.65443e-06 
17 2 7.64013e-07 8.2085e-05 5.0314e-05 4.80515e-06 
32 3 8.07813e-07 8.40908e-05 5.00416e-05 4.60783e-06 
2 2 7.49154e-07 5.21852e-05 4.97498e-05 5.20732e-06 
3 3 7.66353e-07 5.39052e-05 4.99109e-05 5.36392e-06 
4 4 9.99993e-07 5.59949e-05 4.99989e-05 5e-06 
5 5 1e-06 5.79949e-05 4.99985e-05 5e-06 
8 3 7.44909e-07 6.38131e-05 4.96835e-05 5.09075e-06 
9 4 9.99993e-07 6.59953e-05 4.99973e-05 5e-06 
10 5 1e-06 6.79955e-05 4.99969e-05 5e-06 
13 3 8.08056e-07 7.38059e-05 4.9981e-05 5.35855e-06 
14 4 9.99993e-07 7.59961e-05 4.99958e-05 5e-06 
15 5 1e-06 7.79964e-05 4.99955e-05 5e-06 
31 2 8.21313e-07 8.19017e-05 4.96526e-05 5.20947e-06 
18 3 7.79061e-07 8.39064e-05 4.99501e-05 5.37821e-06 
19 4 9.99993e-07 8.59972e-05 4.99948e-05 5e-06 
20 5 1e-06 8.79974e-05 4.99947e-05 5e-06 
1 1 7.65746e-07 5.04635e-05 5.01746e-05 5.34043e-06 
25 2 7.51405e-07 6.20538e-05 5.03235e-05 5.18224e-06 
27 1 7.98586e-07 7.05868e-05 5.01887e-05 5.00873e-06 
12 2 8.03995e-07 7.18034e-05 5.03486e-05 5.04791e-06 
24 1 8.04859e-07 5.98739e-05 4.98242e-05 5.60579e-06 
30 1 7.8922e-07 7.97795e-05 4.98834e-05 5.63682e-06 
ITEM: TIMESTEP
2000
ITEM: NUMBER OF ATOMS
56
ITEM: BOX BOUNDS ff ff ff
0.0000000000000000e+00 1.0000000000000000e-04
0.0000000000000000e+00 1.0000000000000000e-04
0.0000000000000000e+00 1.0000000000000001e-05
ITEM: ATOMS id type diameter x y z 
33 1 5.8264e-07 6.02139e-05 5.01193e-05 3.92877e-06 
34 1 5.9868e-07 8.02024e-05 5.00287e-05 3.75207e-06 
21 1 6.42671e-07 5.00168e-05 5.00174e-05 4.49126e-06 
53 1 6.16966e-07 7.05508e-05 5.00934e-05 4.49276e-06 
44 3 6.61264e-07 8.41956e-05 5.0092e-05 4.30871e-06 
35 1 6.58822e-07 4.88999e-05 4.96067e-05 4.78332e-06 
39 2 6.86834e-07 5.16251e-05 4.99669e-05 4.68806e-06 
7 2 6.183e-07 6.16912e-05 4.95031e-05 4.98915e-06 
36 2 6.97513e-07 6.2141e-05 4.97648e-05 4.58117e-06 
28 2 5.80902e-07 7.24077e-05 4.95291e-05 4.84908e-06 
29 3 6.35582e-07 7.42806e-05 4.97232e-05 4.76653e-06 
49 2 6.74855e-07 8.1886e-05 4.95997e-05 4.87309e-06 
32 3 6.19707e-07 8.39528e-05 4.99519e-05 4.88816e-06 
23 3 6.67442e-07 5.3732e-05 5.01355e-05 4.62727e-06 
40 3 6.32114e-07 5.43782e-05 5.00465e-05 4.59551e-06 
6 1 6.55105e-07 5.99323e-05 5.01994e-05 4.95348e-06 
25 2 5.58303e-07 6.21445e-05 5.03607e-05 4.93338e-06 
37 1 6.6505e-07 6.99157e-05 5.00176e-05 4.80042e-06 
42 3 5.99633e-07 7.40337e-05 5.02494e-05 4.54868e-06 
17 2 6.41449e-07 8.19358e-05 5.00183e-05 4.67997e-06 
22 2 6.34566e-07 5.18763e-05 5.05614e-05 4.8443e-06 
41 3 6.88299e-07 6.4166e-05 5.06296e-05 4.70745e-06 
43 2 5.66738e-07 8.21776e-05 5.05241e-05 4.91281e-06 
47 3 5.62076e-07 6.37964e-05 4.93922e-05 5.14551e-06 
1 1 6.39306e-07 5.03838e-05 4.96146e-05 5.23847e-06 
2 2 5.97889e-07 5.18804e-05 4.98711e-05 5.16887e-06 
45 2 5.91276e-07 5.24206e-05 4.96273e-05 5.24535e-06 
4 4 9.99987e-07 5.59727e-05 4.99944e-05 5e-06 
5 5 1e-06 5.79731e-05 4.99922e-05 5e-06 
8 3 6.17766e-07 6.37664e-05 4.9973e-05 5.03057e-06 
9 4 9.99987e-07 6.59752e-05 4.99858e-05 5e-06 
10 5 1e-06 6.79761e-05 4.99837e-05 5e-06 
11 1 5.81781e-07 6.89204e-05 4.95898e-05 5.15843e-06 
38 2 6.57506e-07 7.18762e-05 4.97657e-05 5.07001e-06 
14 4 9.99987e-07 7.59796e-05 4.99783e-05 5e-06 
15 5 1e-06 7.7981e-05 4.99768e-05 5e-06 
18 3 6.05038e-07 8.38894e-05 4.99222e-05 5.07418e-06 
19 4 9.99987e-07 8.59853e-05 4.99737e-05 5e-06 
20 5 1e-06 8.79866e-05 4.99731e-05 5e-06 
46 3 6.38545e-07 5.38785e-05 5.00728e-05 5.08923e-06 
24 1 6.73533e-07 5.96603e-05 5.00648e-05 5.06848e-06 
52 2 6.30145e-07 6.18981e-05 5.02479e-05 5.46557e-06 
26 3 6.38702e-07 6.41818e-05 5.00733e-05 5.07474e-06 
12 2 6.1051e-07 7.14795e-05 5.02551e-05 5.02213e-06 
54 2 6.63544e-07 7.20968e-05 5.04155e-05 5.07704e-06 
48 3 6.5915e-07 7.39189e-05 5.00178e-05 5.06226e-06 
56 1 6.38638e-07 7.92781e-05 5.00733e-05 5.25642e-06 
16 1 6.65233e-07 8.01873e-05 5.01401e-05 5.02668e-06 
51 1 5.7264e-07 5.04699e-05 5.06749e-05 5.43175e-06 
3 3 5.74597e-07 5.38685e-05 4.97579e-05 5.6111e-06 
13 3 6.22508e-07 7.36541e-05 4.99048e-05 5.63837e-06 
31 2 6.27148e-07 8.18787e-05 4.96563e-05 5.52485e-06 
50 3 6.3109e-07 8.38873e-05 4.99212e-05 5.69533e-06 
27 1 6.49887e-07 7.0582e-05 5.02504e-05 5.55223e-06 
55 1 5.99947e-07 6.00247e-05 4.95797e-05 6.08418e-06 
30 1 6.13801e-07 8.02271e-05 4.96502e-05 6.00243e-06 
ITEM: TIMESTEP
3000
ITEM: NUMBER OF ATOMS
56
ITEM: BOX BOUNDS ff ff ff
0.0000000000000000e+00 1.0000000000000000e-04
0.0000000000000000e+00 1.0000000000000000e-04
0.0000000000000000e+00 1.0000000000000001e-05
ITEM: ATOMS id type diameter x y z 
33 1 5.82653e-07 6.0144e-05 5.00932e-05 3.92877e-06 
34 1 5.98732e-07 8.01578e-05 4.99683e-05 3.75207e-06 
21 1 6.42705e-07 4.99488e-05 5.00183e-05 4.49126e-06 
53 1 6.16993e-07 7.04897e-05 5.00699e-05 4.50317e-06 
44 3 6.61261e-07 8.41477e-05 5.00557e-05 4.30351e-06 
35 1 6.58864e-07 4.88757e-05 4.96135e-05 4.70978e-06 
39 2 6.86831e-07 5.15597e-05 4.99034e-05 4.73875e-06 
7 2 6.18297e-07 6.16215e-05 4.94738e-05 4.98729e-06 
36 2 6.9751e-07 6.20811e-05 4.97513e-05 4.5719e-06 
28 2 5.80899e-07 7.23365e-05 4.95093e-05 4.84692e-06 
29 3 6.35579e-07 7.43041e-05 4.96558e-05 4.79558e-06 
49 2 6.74852e-07 8.18353e-05 4.95457e-05 4.87562e-06 
32 3 6.19704e-07 8.39013e-05 4.98919e-05 4.88103e-06 
23 3 6.67439e-07 5.36664e-05 5.0126e-05 4.62479e-06 
40 3 6.32111e-07 5.43121e-05 5.00256e-05 4.6001e-06 
6 1 6.55124e-07 5.98761e-05 5.01695e-05 4.95113e-06 
25 2 5.58301e-07 6.19732e-05 5.03921e-05 5.03157e-06 
37 1 6.65087e-07 6.97939e-05 4.97728e-05 5.13569e-06 
42 3 5.9963e-07 7.39524e-05 5.03321e-05 4.58868e-06 
17 2 6.41446e-07 8.18878e-05 4.99683e-05 4.67952e-06 
22 2 6.34563e-07 5.18065e-05 5.0554e-05 4.8456e-06 
41 3 6.88296e-07 6.41191e-05 5.06326e-05 4.68185e-06 
43 2 5.66735e-07 8.21214e-05 5.04883e-05 4.90792e-06 
47 3 5.62073e-07 6.37189e-05 4.93689e-05 5.14517e-06 
1 1 6.39349e-07 5.03076e-05 4.9612e-05 5.23847e-06 
2 2 5.97887e-07 5.18253e-05 4.98443e-05 5.22257e-06 
45 2 5.91274e-07 5.23734e-05 4.96066e-05 5.24778e-06 
4 4 9.9998e-07 5.59298e-05 4.99857e-05 5e-06 
5 5 1e-06 5.79308e-05 4.998e-05 5e-06 
8 3 6.17763e-07 6.36868e-05 4.99576e-05 5.02817e-06 
9 4 9.9998e-07 6.59362e-05 4.99635e-05 5e-06 
10 5 1e-06 6.79387e-05 4.99584e-05 5e-06 
11 1 5.81832e-07 6.88535e-05 4.95446e-05 5.15843e-06 
38 2 6.57503e-07 7.17325e-05 5.00867e-05 4.6111e-06 
14 4 9.9998e-07 7.5948e-05 4.99449e-05 5e-06 
15 5 1e-06 7.79517e-05 4.99414e-05 5e-06 
18 3 6.05035e-07 8.38359e-05 4.98614e-05 5.08068e-06 
19 4 9.9998e-07 8.59628e-05 4.99343e-05 5e-06 
20 5 1e-06 8.79662e-05 4.99331e-05 5e-06 
46 3 6.38542e-07 5.38188e-05 5.00598e-05 5.08912e-06 
24 1 6.73553e-07 5.95977e-05 5.00296e-05 5.06917e-06 
52 2 6.30142e-07 6.17232e-05 5.01572e-05 5.74988e-06 
26 3 6.38699e-07 6.4113e-05 5.0044e-05 5.05452e-06 
12 2 6.10507e-07 7.12786e-05 5.04704e-05 4.82311e-06 
54 2 6.63541e-07 7.20777e-05 5.05176e-05 5.08477e-06 
48 3 6.59147e-07 7.3947e-05 4.99808e-05 5.05378e-06 
56 1 6.38666e-07 7.92349e-05 5.00134e-05 5.25553e-06 
16 1 6.65271e-07 8.01402e-05 5.00762e-05 5.02668e-06 
51 1 5.72657e-07 5.03833e-05 5.06046e-05 5.4288e-06 
3 3 5.74595e-07 5.37891e-05 4.97484e-05 5.6111e-06 
13 3 6.22505e-07 7.21686e-05 4.92365e-05 8.7499e-06 
31 2 6.27145e-07 8.18333e-05 4.95917e-05 5.53079e-06 
50 3 6.31087e-07 8.38346e-05 4.98789e-05 5.7005e-06 
27 1 6.49915e-07 7.05352e-05 5.02072e-05 5.55099e-06 
55 1 5.99993e-07 5.99785e-05 4.95348e-05 6.08348e-06 
30 1 6.13873e-07 8.01949e-05 4.95857e-05 6.00666e-06 
ITEM: TIMESTEP
4000
ITEM: NUMBER OF ATOMS
56
ITEM: BOX BOUNDS ff ff ff
0.0000000000000000e+00 1.0000000000000000e-04
0.0000000000000000e+00 1.0000000000000000e-04
0.0000000000000000e+00 1.0000000000000001e-05
ITEM: ATOMS id type diameter x y z 
33 1 5.82665e-07 6.00417e-05 5.00546e-05 3.92877e-06 
34 1 5.98794e-07 8.00957e-05 4.98848e-05 3.75207e-06 
21 1 6.42744e-07 4.98421e-05 5.00221e-05 4.49126e-06 
53 1 6.17019e-07 7.03638e-05 4.98979e-05 4.73122e-06 
44 3 6.61258e-07 8.4079e-05 4.99738e-05 4.31175e-06 
35 1 6.58904e-07 4.87263e-05 5.01087e-05 4.27804e-06 
39 2 6.86828e-07 5.15345e-05 4.9658e-05 4.92495e-06 
7 2 6.18295e-07 6.15175e-05 4.9434e-05 4.98692e-06 
36 2 6.97507e-07 6.19865e-05 4.9843e-05 4.46763e-06 
28 2 5.80897e-07 7.22237e-05 4.94935e-05 4.8408e-06 
29 3 6.35577e-07 7.43387e-05 4.95399e-05 4.8868e-06 
49 2 6.74849e-07 8.17634e-05 4.94805e-05 4.87057e-06 
32 3 6.19702e-07 8.38244e-05 4.97969e-05 4.88158e-06 
23 3 6.67437e-07 5.35735e-05 5.01036e-05 4.62009e-06 
40 3 6.32109e-07 5.42107e-05 4.99451e-05 4.64083e-06 
6 1 6.55139e-07 5.97823e-05 5.01368e-05 4.94673e-06 
25 2 5.58299e-07 6.12496e-05 5.19061e-05 3.82881e-06 
37 1 6.65131e-07 7.01318e-05 4.86548e-05 5.48291e-06 
42 3 5.99628e-07 7.38706e-05 5.0397e-05 4.65928e-06 
17 2 6.41444e-07 8.18161e-05 4.99076e-05 4.67235e-06 
22 2 6.34561e-07 5.16862e-05 5.05494e-05 4.85072e-06 
41 3 6.88293e-07 6.40644e-05 5.06355e-05 4.63143e-06 
43 2 5.66733e-07 8.19704e-05 5.0488e-05 4.89884e-06 
47 3 5.62071e-07 6.35669e-05 4.91103e-05 5.19476e-06 
1 1 6.39393e-07 5.01993e-05 4.96081e-05 5.23847e-06 
2 2 5.97884e-07 5.17666e-05 4.96148e-05 5.42974e-06 
45 2 5.91271e-07 5.23613e-05 4.95878e-05 5.24462e-06 
4 4 9.99974e-07 5.58652e-05 4.99726e-05 5e-06 
5 5 1e-06 5.78672e-05 4.99617e-05 5e-06 
8 3 6.17761e-07 6.38096e-05 4.96532e-05 5.16649e-06 
9 4 9.99974e-07 6.58777e-05 4.99302e-05 5e-06 
10 5 1e-06 6.78826e-05 4.99205e-05 5e-06 
11 1 5.81871e-07 6.87568e-05 4.94793e-05 5.15843e-06 
38 2 6.575e-07 7.12688e-05 5.07069e-05 4.29203e-06 
14 4 9.99974e-07 7.59009e-05 4.98955e-05 5e-06 
15 5 1e-06 7.7908e-05 4.98892e-05 5e-06 
18 3 6.05033e-07 8.37553e-05 4.97641e-05 5.09348e-06 
19 4 9.99974e-07 8.59297e-05 4.98771e-05 5e-06 
20 5 1e-06 8.79362e-05 4.98754e-05 5e-06 
46 3 6.3854e-07 5.37235e-05 5.00378e-05 5.08982e-06 
24 1 6.73577e-07 5.94949e-05 4.99969e-05 5.06791e-06 
52 2 6.3014e-07 6.15062e-05 4.99929e-05 6.1328e-06 
26 3 6.38697e-07 6.41767e-05 4.95137e-05 5.37017e-06 
12 2 6.10505e-07 7.08971e-05 5.11997e-05 4.16671e-06 
54 2 6.63538e-07 7.208e-05 5.08096e-05 5.10136e-06 
48 3 6.59144e-07 7.39788e-05 4.9944e-05 5.0408e-06 
56 1 6.38707e-07 7.91879e-05 4.9933e-05 5.18608e-06 
16 1 6.65316e-07 8.00714e-05 4.99833e-05 5.02668e-06 
51 1 5.7267e-07 5.01965e-05 5.02457e-05 5.41304e-06 
3 3 5.74592e-07 5.36752e-05 4.97323e-05 5.61555e-06 
13 3 6.22503e-07 7.18024e-05 4.90446e-05 9.35494e-06 
31 2 6.27143e-07 8.17867e-05 4.94612e-05 5.54084e-06 
50 3 6.31084e-07 8.37361e-05 4.98549e-05 5.70927e-06 
27 1 6.49934e-07 7.0451e-05 5.01456e-05 5.542e-06 
55 1 6.00035e-07 5.99016e-05 4.94711e-05 6.0998e-06 
30 1 6.13936e-07 8.01623e-05 4.94991e-05 6.01788e-06 
ITEM: TIMESTEP
5000
ITEM: NUMBER OF ATOMS
56
ITEM: BOX BOUNDS ff ff ff
0.0000000000000000e+00 1.0000000000000000e-04
0.0000000000000000e+00 1.0000000000000000e-04
0.0000000000000000e+00 1.0000000000000001e-05
ITEM: ATOMS id type diameter x y z 
33 1 5.82683e-07 5.99154e-05 5.0009e-05 3.92877e-06 
34 1 5.98864e-07 8.00208e-05 4.97852e-05 3.75207e-06 
21 1 6.42793e-07 4.97095e-05 5.00279e-05 4.49126e-06 
53 1 6.1706e-07 7.04281e-05 4.8813e-05 5.52389e-06 
44 3 6.61255e-07 8.40878e-05 4.97413e-05 4.31137e-06 
35 1 6.58955e-07 4.81675e-05 5.18317e-05 3.26216e-06 
39 2 6.86825e-07 5.1611e-05 4.91836e-05 5.15691e-06 
7 2 6.18292e-07 6.13924e-05 4.93869e-05 4.98684e-06 
36 2 6.97504e-07 6.17687e-05 5.01822e-05 4.22008e-06 
28 2 5.80894e-07 7.21088e-05 4.94708e-05 4.82404e-06 
29 3 6.35574e-07 7.43735e-05 4.95107e-05 4.73434e-06 
49 2 6.74846e-07 8.16819e-05 4.9413e-05 4.85165e-06 
32 3 6.19699e-07 8.3718e-05 4.96563e-05 4.92135e-06 
23 3 6.67434e-07 5.34613e-05 5.00619e-05 4.6181e-06 
40 3 6.32106e-07 5.40788e-05 4.97978e-05 4.70455e-06 
6 1 6.55159e-07 5.96538e-05 5.01201e-05 4.93974e-06 
25 2 5.58296e-07 6.08182e-05 5.27815e-05 2.44009e-06 
37 1 6.65175e-07 7.03519e-05 4.60422e-05 7.63232e-06 
42 3 5.99625e-07 7.42209e-05 5.36483e-05 2.09882e-06 
17 2 6.41441e-07 8.17362e-05 4.98362e-05 4.63497e-06 
22 2 6.34558e-07 5.15178e-05 5.0558e-05 4.86145e-06 
41 3 6.8829e-07 6.39882e-05 5.06559e-05 4.57564e-06 
43 2 5.66731e-07 8.16458e-05 5.03662e-05 4.95467e-06 
47 3 5.62069e-07 6.32737e-05 4.84365e-05 5.31462e-06 
1 1 6.39448e-07 5.00754e-05 4.93563e-05 5.16528e-06 
2 2 5.97882e-07 5.18622e-05 4.92029e-05 5.6562e-06 
45 2 5.91269e-07 5.24513e-05 5.00241e-05 5.14575e-06 
4 4 9.99967e-07 5.57798e-05 4.99554e-05 5e-06 
5 5 1e-06 5.77831e-05 4.99375e-05 5e-06 
8 3 6.17758e-07 6.40007e-05 4.88872e-05 5.89384e-06 
9 4 9.99967e-07 6.58004e-05 4.98864e-05 5e-06 
10 5 1e-06 6.78085e-05 4.98707e-05 5e-06 
11 1 5.81912e-07 6.86422e-05 4.94027e-05 5.15843e-06 
38 2 6.57497e-07 7.06163e-05 5.16279e-05 3.85699e-06 
14 4 9.99967e-07 7.58389e-05 4.9831e-05 5e-06 
15 5 1e-06 7.78507e-05 4.98212e-05 5e-06 
18 3 6.0503e-07 8.36439e-05 4.96265e-05 5.14509e-06 
19 4 9.99967e-07 8.58864e-05 4.98037e-05 5e-06 
20 5 1e-06 8.78971e-05 4.98016e-05 5e-06 
46 3 6.38537e-07 5.35992e-05 5.00102e-05 5.09766e-06 
24 1 6.73634e-07 5.93539e-05 4.99871e-05 5.0619e-06 
52 2 6.30137e-07 6.13262e-05 4.97345e-05 6.49977e-06 
26 3 6.38694e-07 6.44032e-05 4.88577e-05 6.09058e-06 
12 2 6.10502e-07 7.01862e-05 5.20846e-05 3.88988e-06 
54 2 6.63535e-07 7.21763e-05 5.13468e-05 5.07061e-06 
48 3 6.59141e-07 7.42976e-05 4.92305e-05 5.21632e-06 
56 1 6.38746e-07 7.9106e-05 5.02122e-05 4.72151e-06 
16 1 6.65388e-07 7.99915e-05 4.9877e-05 5.02668e-06 
51 1 5.72697e-07 4.98277e-05 4.99548e-05 5.5719e-06 
3 3 5.7459e-07 5.35383e-05 4.97034e-05 5.63864e-06 
13 3 6.225e-07 7.16406e-05 4.8937e-05 9.47512e-06 
31 2 6.2714e-07 8.17492e-05 4.92511e-05 5.56288e-06 
50 3 6.31082e-07 8.36032e-05 4.98925e-05 5.71973e-06 
27 1 6.49969e-07 7.03114e-05 5.0064e-05 5.52565e-06 
55 1 6.00086e-07 5.97855e-05 4.92841e-05 6.32162e-06 
30 1 6.14008e-07 8.01483e-05 4.94179e-05 6.01033e-06 
ITEM: TIMESTEP
6000
ITEM: NUMBER OF ATOMS
56
ITEM: BOX BOUNDS ff ff ff
0.0000000000000000e+00 1.0000000000000000e-04
0.0000000000000000e+00 1.0000000000000000e-04
0.0000000000000000e+00 1.0000000000000001e-05
ITEM: ATOMS id type diameter x y z 
33 1 5.82719e-07 5.97717e-05 4.99635e-05 3.92877e-06 
34 1 5.9891e-07 7.99339e-05 4.96735e-05 3.75207e-06 
21 1 6.4283e-07 4.95578e-05 5.00349e-05 4.49126e-06 
53 1 6.17101e-07 7.09655e-05 4.46451e-05 8.32721e-06 
44 3 6.61253e-07 8.42455e-05 4.9061e-05 4.52776e-06 
35 1 6.58992e-07 4.75058e-05 5.71157e-05 3.7652e-07 
39 2 6.86822e-07 5.17646e-05 4.86913e-05 5.34602e-06 
7 2 6.1829e-07 6.12515e-05 4.93332e-05 4.98683e-06 
36 2 6.97501e-07 6.13514e-05 5.08884e-05 3.80452e-06 
28 2 5.80892e-07 7.20292e-05 4.941e-05 4.79516e-06 
29 3 6.35571e-07 7.42123e-05 4.95308e-05 4.60624e-06 
49 2 6.74843e-07 8.15874e-05 4.93438e-05 4.78862e-06 
32 3 6.19696e-07 8.36504e-05 4.95291e-05 4.95255e-06 
23 3 6.67431e-07 5.33246e-05 5.00071e-05 4.63797e-06 
40 3 6.32103e-07 5.39548e-05 4.94985e-05 4.79755e-06 
6 1 6.55181e-07 5.9494e-05 5.01411e-05 4.92287e-06 
25 2 5.58294e-07 6.00073e-05 5.37653e-05 1.46792e-06 
37 1 6.65219e-07 7.01132e-05 4.05624e-05 7.57179e-06 
42 3 5.99623e-07 7.44971e-05 5.49257e-05 7.52195e-06 
17 2 6.41438e-07 8.16429e-05 4.97856e-05 4.60103e-06 
22 2 6.34555e-07 5.13167e-05 5.05958e-05 4.86175e-06 
41 3 6.88287e-07 6.37963e-05 5.08893e-05 4.46813e-06 
43 2 5.66728e-07 8.09604e-05 4.95533e-05 5.24042e-06 
47 3 5.62066e-07 6.2942e-05 4.77908e-05 5.42267e-06 
1 1 6.39487e-07 4.99297e-05 4.92835e-05 5.1449e-06 
2 2 5.97879e-07 5.19885e-05 4.86575e-05 5.85962e-06 
45 2 5.91266e-07 5.27161e-05 5.10771e-05 4.92822e-06 
4 4 9.99961e-07 5.56752e-05 4.99342e-05 5e-06 
5 5 1e-06 5.76801e-05 4.99078e-05 5e-06 
8 3 6.17756e-07 6.41929e-05 4.804e-05 6.85906e-06 
9 4 9.99961e-07 6.57059e-05 4.98326e-05 5e-06 
10 5 1e-06 6.7718e-05 4.98098e-05 5e-06 
11 1 5.81955e-07 6.85141e-05 4.93161e-05 5.15843e-06 
38 2 6.57494e-07 7.007e-05 5.21451e-05 3.75339e-06 
14 4 9.99961e-07 7.57633e-05 4.97528e-05 5e-06 
15 5 1e-06 7.77808e-05 4.9739e-05 5e-06 
18 3 6.05028e-07 8.35594e-05 4.94874e-05 5.1815e-06 
19 4 9.99961e-07 8.58339e-05 4.97157e-05 5e-06 
20 5 1e-06 8.78499e-05 4.97134e-05 5e-06 
46 3 6.38534e-07 5.34826e-05 4.9939e-05 5.11351e-06 
24 1 6.73671e-07 5.9186e-05 5.00069e-05 5.04684e-06 
52 2 6.30134e-07 6.12037e-05 4.92191e-05 6.98802e-06 
26 3 6.38691e-07 6.46355e-05 4.80605e-05 6.96552e-06 
12 2 6.105e-07 6.96871e-05 5.26358e-05 3.67078e-06 
54 2 6.63533e-07 7.25639e-05 5.23689e-05 4.86624e-06 
48 3 6.59139e-07 7.45252e-05 4.90606e-05 4.585e-06 
56 1 6.38781e-07 7.86665e-05 5.2413e-05 2.86581e-06 
16 1 6.65431e-07 7.98992e-05 4.97628e-05 5.02668e-06 
51 1 5.72729e-07 4.90888e-05 4.88449e-05 5.8616e-06 
3 3 5.74587e-07 5.33841e-05 4.9671e-05 5.66607e-06 
13 3 6.22497e-07 7.15092e-05 4.88378e-05 9.49985e-06 
31 2 6.27137e-07 8.16873e-05 4.89719e-05 5.61211e-06 
50 3 6.31079e-07 8.34242e-05 5.03655e-05 5.24823e-06 
27 1 6.50008e-07 7.00807e-05 4.99309e-05 5.54182e-06 
55 1 6.00126e-07 5.97729e-05 4.8029e-05 7.50358e-06 
30 1 6.1408e-07 8.01518e-05 4.93595e-05 5.95057e-06 
ITEM: TIMESTEP
7000
ITEM: NUMBER OF ATOMS
56
ITEM: BOX BOUNDS ff ff ff
0.0000000000000000e+00 1.0000000000000000e-04
0.0000000000000000e+00 1.0000000000000000e-04
0.0000000000000000e+00 1.0000000000000001e-05
ITEM: ATOMS id type diameter x y z 
33 1 5.82754e-07 5.96171e-05 4.99139e-05 3.92877e-06 
34 1 5.9894e-07 7.98329e-05 4.9549e-05 3.75207e-06 
21 1 6.42852e-07 4.9392e-05 5.00441e-05 4.49126e-06 
53 1 6.17133e-07 7.13991e-05 3.88952e-05 4.32926e-06 
44 3 6.6125e-07 8.46965e-05 4.76043e-05 5.13689e-06 
35 1 6.59037e-07 4.71634e-05 6.59917e-05 4.29032e-06 
39 2 6.8682e-07 5.18506e-05 4.83195e-05 5.42644e-06 
7 2 6.18287e-07 6.10974e-05 4.92694e-05 4.98682e-06 
36 2 6.97498e-07 6.07223e-05 5.19274e-05 3.27943e-06 
28 2 5.80889e-07 7.2021e-05 4.92486e-05 4.77714e-06 
29 3 6.35569e-07 7.4065e-05 5.00727e-05 3.48147e-06 
49 2 6.7484e-07 8.14485e-05 4.94115e-05 4.72274e-06 
32 3 6.19694e-07 8.36361e-05 4.94269e-05 4.93793e-06 
23 3 6.67428e-07 5.3212e-05 4.98761e-05 4.65771e-06 
40 3 6.32101e-07 5.39564e-05 4.86855e-05 5.08534e-06 
6 1 6.55197e-07 5.93301e-05 5.01889e-05 4.88894e-06 
25 2 5.58291e-07 5.92194e-05 5.42956e-05 1.33151e-06 
37 1 6.65256e-07 6.9691e-05 3.55782e-05 8.03104e-06 
42 3 5.9962e-07 7.46745e-05 5.4941e-05 3.02324e-06 
17 2 6.41435e-07 8.15319e-05 4.98403e-05 4.50665e-06 
22 2 6.34553e-07 5.10605e-05 5.0711e-05 4.84593e-06 
41 3 6.88284e-07 6.33234e-05 5.17925e-05 4.06436e-06 
43 2 5.66726e-07 7.96765e-05 4.72263e-05 5.82771e-06 
47 3 5.62064e-07 6.25657e-05 4.7219e-05 5.50894e-06 
1 1 6.3952e-07 4.97698e-05 4.92723e-05 5.14008e-06 
2 2 5.97877e-07 5.20818e-05 4.8247e-05 5.93521e-06 
45 2 5.91264e-07 5.31873e-05 5.26843e-05 4.60925e-06 
4 4 9.99954e-07 5.55533e-05 4.99084e-05 5e-06 
5 5 1e-06 5.75602e-05 4.98717e-05 5e-06 
8 3 6.17753e-07 6.4507e-05 4.72116e-05 7.59326e-06 
9 4 9.99954e-07 6.55956e-05 4.97676e-05 5e-06 
10 5 1e-06 6.76123e-05 4.97364e-05 5e-06 
11 1 5.81986e-07 6.83739e-05 4.92143e-05 5.15843e-06 
38 2 6.57492e-07 6.97051e-05 5.2202e-05 3.9881e-06 
14 4 9.99954e-07 7.56751e-05 4.96601e-05 5e-06 
15 5 1e-06 7.76993e-05 4.96423e-05 5e-06 
18 3 6.05025e-07 8.35379e-05 4.93781e-05 5.17567e-06 
19 4 9.99954e-07 8.57728e-05 4.96139e-05 5e-06 
20 5 1e-06 8.77948e-05 4.9612e-05 5e-06 
46 3 6.38532e-07 5.33663e-05 4.97941e-05 5.13654e-06 
24 1 6.73689e-07 5.90156e-05 5.0051e-05 5.01537e-06 
52 2 6.30132e-07 6.12647e-05 4.73031e-05 8.62253e-06 
26 3 6.38688e-07 6.49662e-05 4.72191e-05 7.64244e-06 
12 2 6.10497e-07 6.93315e-05 5.26936e-05 3.87342e-06 
54 2 6.6353e-07 7.37285e-05 5.49538e-05 4.29827e-06 
48 3 6.59136e-07 7.42233e-05 4.9591e-05 3.73595e-06 
56 1 6.38815e-07 7.80155e-05 5.6702e-05 4.37956e-06 
16 1 6.65465e-07 7.97948e-05 4.96359e-05 5.02668e-06 
51 1 5.72759e-07 4.74308e-05 4.57953e-05 6.53653e-06 
3 3 5.74585e-07 5.32147e-05 4.963e-05 5.70584e-06 
13 3 6.22495e-07 7.13751e-05 4.87273e-05 9.50501e-06 
31 2 6.27135e-07 8.15305e-05 4.86764e-05 5.69163e-06 
50 3 6.31076e-07 8.29164e-05 5.32844e-05 3.14139e-06 
27 1 6.5004e-07 6.97637e-05 4.97263e-05 5.63018e-06 
55 1 6.00159e-07 6.00359e-05 4.52826e-05 5.82379e-06 
30 1 6.14149e-07 8.01005e-05 4.9282e-05 5.87743e-06 
ITEM: TIMESTEP
8000
ITEM: NUMBER OF ATOMS
56
ITEM: BOX BOUNDS ff ff ff
0.0000000000000000e+00 1.0000000000000000e-04
0.0000000000000000e+00 1.0000000000000000e-04
0.0000000000000000e+00 1.0000000000000001e-05
ITEM: ATOMS id type diameter x y z 
33 1 5.82786e-07 5.94511e-05 4.98557e-05 3.92877e-06 
34 1 5.98974e-07 7.97203e-05 4.94124e-05 3.75207e-06 
21 1 6.42873e-07 4.92153e-05 5.00531e-05 4.49126e-06 
53 1 6.17165e-07 7.146e-05 3.38792e-05 4.10691e-06 
44 3 6.61247e-07 8.55936e-05 4.5122e-05 6.19608e-06 
35 1 6.59095e-07 4.70688e-05 7.32249e-05 8.92835e-06 
39 2 6.86817e-07 5.18497e-05 4.817e-05 5.32898e-06 
7 2 6.18284e-07 6.09313e-05 4.91935e-05 4.98682e-06 
36 2 6.97495e-07 5.9926e-05 5.31621e-05 2.7529e-06 
28 2 5.80887e-07 7.21596e-05 4.88083e-05 4.80091e-06 
29 3 6.35566e-07 7.32053e-05 5.1789e-05 2.44793e-06 
49 2 6.74837e-07 8.11386e-05 4.98508e-05 4.49318e-06 
32 3 6.19691e-07 8.36545e-05 4.93534e-05 4.86969e-06 
23 3 6.67425e-07 5.3132e-05 4.9564e-05 4.70198e-06 
40 3 6.32098e-07 5.44483e-05 4.64338e-05 5.98365e-06 
6 1 6.55212e-07 5.92077e-05 5.0231e-05 4.83697e-06 
25 2 5.58289e-07 5.88892e-05 5.28233e-05 3.31647e-06 
37 1 6.65283e-07 6.95273e-05 3.51387e-05 2.58642e-06 
42 3 5.99618e-07 7.52913e-05 5.63438e-05 6.75837e-06 
17 2 6.41433e-07 8.13328e-05 5.02541e-05 4.29218e-06 
22 2 6.3455e-07 5.07323e-05 5.10213e-05 4.79572e-06 
41 3 6.88281e-07 6.22739e-05 5.40803e-05 3.02444e-06 
43 2 5.66723e-07 7.75102e-05 4.27874e-05 6.82362e-06 
47 3 5.62061e-07 6.20939e-05 4.6863e-05 5.57015e-06 
1 1 6.39549e-07 4.95991e-05 4.92753e-05 5.13893e-06 
2 2 5.97874e-07 5.20857e-05 4.80596e-05 5.83144e-06 
45 2 5.91261e-07 5.39218e-05 5.4707e-05 4.2123e-06 
4 4 9.99948e-07 5.54161e-05 4.98768e-05 5e-06 
5 5 1e-06 5.74247e-05 4.98284e-05 5e-06 
8 3 6.1775e-07 6.48074e-05 4.68622e-05 7.52093e-06 
9 4 9.99948e-07 6.54707e-05 4.96904e-05 5e-06 
10 5 1e-06 6.74925e-05 4.96499e-05 5e-06 
11 1 5.82015e-07 6.82218e-05 4.90983e-05 5.15843e-06 
38 2 6.57489e-07 6.94969e-05 5.17172e-05 4.55764e-06 
14 4 9.99948e-07 7.55748e-05 4.95533e-05 5e-06 
15 5 1e-06 7.76066e-05 4.95316e-05 5e-06 
18 3 6.05023e-07 8.3556e-05 4.93026e-05 5.11972e-06 
19 4 9.99948e-07 8.57033e-05 4.95e-05 5e-06 
20 5 1e-06 8.77322e-05 4.94992e-05 5e-06 
46 3 6.38529e-07 5.32884e-05 4.94707e-05 5.18224e-06 
24 1 6.73704e-07 5.89027e-05 5.00621e-05 4.97061e-06 
52 2 6.30129e-07 6.18389e-05 4.16973e-05 8.761e-06 
26 3 6.38686e-07 6.52106e-05 4.70531e-05 7.37994e-06 
12 2 6.10494e-07 6.91794e-05 5.22428e-05 4.41938e-06 
54 2 6.63527e-07 7.69013e-05 6.16676e-05 2.83715e-06 
48 3 6.59133e-07 7.36887e-05 5.1497e-05 2.38137e-06 
56 1 6.38852e-07 7.79424e-05 5.80802e-05 5.21721e-06 
16 1 6.65503e-07 7.96795e-05 4.94971e-05 5.02668e-06 
51 1 5.7279e-07 4.36818e-05 3.83908e-05 8.12746e-06 
3 3 5.74582e-07 5.30214e-05 4.95826e-05 5.77729e-06 
13 3 6.22492e-07 7.12312e-05 4.86032e-05 9.50609e-06 
31 2 6.27132e-07 8.1141e-05 4.85452e-05 5.7748e-06 
50 3 6.31074e-07 8.21443e-05 5.75965e-05 6.27924e-06 
27 1 6.50072e-07 6.94403e-05 4.94812e-05 5.77775e-06 
55 1 6.00188e-07 6.00031e-05 4.49925e-05 3.78666e-06 
30 1 6.14208e-07 7.9925e-05 4.9137e-05 5.85023e-06 
ITEM: TIMESTEP
9000
ITEM: NUMBER OF ATOMS
56
ITEM: BOX BOUNDS ff ff ff
0.0000000000000000e+00 1.0000000000000000e-04
0.0000000000000000e+00 1.0000000000000000e-04
0.0000000000000000e+00 1.0000000000000001e-05
ITEM: ATOMS id type diameter x y z 
33 1 5.82819e-07 5.92753e-05 4.97863e-05 3.92877e-06 
34 1 5.99022e-07 7.95978e-05 4.92719e-05 3.75207e-06 
21 1 6.429e-07 4.90302e-05 5.00536e-05 4.49126e-06 
53 1 6.17202e-07 7.14548e-05 3.16284e-05 6.69953e-06 
44 3 6.61244e-07 8.70373e-05 4.15171e-05 7.6596e-06 
35 1 6.59158e-07 4.70727e-05 7.28912e-05 1.69447e-06 
39 2 6.86814e-07 5.17242e-05 4.84153e-05 5.11702e-06 
7 2 6.18282e-07 6.07554e-05 4.91063e-05 4.98682e-06 
36 2 6.97492e-07 5.90394e-05 5.43732e-05 2.34426e-06 
28 2 5.80884e-07 7.25883e-05 4.76231e-05 4.95751e-06 
29 3 6.35563e-07 7.29192e-05 5.57593e-05 2.67294e-06 
49 2 6.74835e-07 8.03422e-05 5.14614e-05 3.77758e-06 
32 3 6.19689e-07 8.36489e-05 4.92889e-05 4.76447e-06 
23 3 6.67422e-07 5.3027e-05 4.89394e-05 4.99681e-06 
40 3 6.32095e-07 5.61383e-05 4.10044e-05 8.27086e-06 
6 1 6.5524e-07 5.93623e-05 4.89379e-05 4.96086e-06 
25 2 5.58287e-07 5.84499e-05 5.02945e-05 5.87675e-06 
37 1 6.65306e-07 6.94011e-05 3.49262e-05 6.78904e-06 
42 3 5.99615e-07 7.63655e-05 5.85803e-05 3.26857e-06 
17 2 6.4143e-07 8.0834e-05 5.14578e-05 3.73162e-06 
22 2 6.34547e-07 5.02599e-05 5.18106e-05 4.6041e-06 
41 3 6.88278e-07 6.02471e-05 5.86568e-05 9.87403e-07 
43 2 5.66721e-07 7.40866e-05 3.58777e-05 8.29986e-06 
47 3 5.62059e-07 6.14692e-05 4.70345e-05 5.51547e-06 
1 1 6.39565e-07 4.94202e-05 4.92716e-05 5.13865e-06 
2 2 5.97872e-07 5.19615e-05 4.82122e-05 5.59231e-06 
45 2 5.91259e-07 5.50274e-05 5.68065e-05 3.79312e-06 
4 4 9.99941e-07 5.52653e-05 4.98373e-05 5e-06 
5 5 1e-06 5.72753e-05 4.97802e-05 5e-06 
8 3 6.17748e-07 6.47524e-05 4.79541e-05 6.19479e-06 
9 4 9.99941e-07 6.53326e-05 4.96023e-05 5e-06 
10 5 1e-06 6.73589e-05 4.95537e-05 5e-06 
11 1 5.82045e-07 6.806e-05 4.89757e-05 5.15843e-06 
38 2 6.57486e-07 6.95241e-05 5.02461e-05 4.9118e-06 
14 4 9.99941e-07 7.54633e-05 4.94363e-05 5e-06 
15 5 1e-06 7.75033e-05 4.94112e-05 5e-06 
18 3 6.0502e-07 8.35571e-05 4.92405e-05 5.02969e-06 
19 4 9.99941e-07 8.56256e-05 4.93782e-05 5e-06 
20 5 1e-06 8.76623e-05 4.93791e-05 5e-06 
46 3 6.38526e-07 5.32954e-05 4.86909e-05 5.36393e-06 
24 1 6.73733e-07 5.94189e-05 4.93052e-05 4.88184e-06 
52 2 6.30126e-07 6.29838e-05 3.24654e-05 6.17475e-06 
26 3 6.38683e-07 6.52082e-05 4.8009e-05 6.07239e-06 
12 2 6.10492e-07 6.92534e-05 5.08175e-05 4.90195e-06 
54 2 6.63524e-07 8.1126e-05 7.05325e-05 9.50534e-07 
48 3 6.5913e-07 7.2572e-05 5.56808e-05 3.11788e-06 
56 1 6.38896e-07 7.79265e-05 5.85359e-05 4.93969e-06 
16 1 6.65557e-07 7.9555e-05 4.93555e-05 5.02668e-06 
51 1 5.7283e-07 3.93656e-05 2.95882e-05 9.35383e-06 
3 3 5.7458e-07 5.2836e-05 4.95383e-05 5.78844e-06 
13 3 6.22489e-07 7.10778e-05 4.84736e-05 9.50631e-06 
31 2 6.27129e-07 8.02602e-05 4.91248e-05 5.77421e-06 
50 3 6.31071e-07 8.12459e-05 6.19138e-05 5.38865e-06 
27 1 6.50105e-07 6.9237e-05 4.92797e-05 5.90825e-06 
55 1 6.00222e-07 6.00077e-05 4.51786e-05 5.6864e-06 
30 1 6.14258e-07 7.96048e-05 4.88999e-05 5.92877e-06 
ITEM: TIMESTEP
10000
ITEM: NUMBER OF ATOMS
56
ITEM: BOX BOUNDS ff ff ff
0.0000000000000000e+00 1.0000000000000000e-04
0.0000000000000000e+00 1.0000000000000000e-04
0.0000000000000000e+00 1.0000000000000001e-05
ITEM: ATOMS id type diameter x y z 
33 1 5.82856e-07 5.90951e-05 4.97019e-05 3.92877e-06 
34 1 5.99071e-07 7.94675e-05 4.9135e-05 3.75207e-06 
21 1 6.42929e-07 4.88427e-05 5.0037e-05 4.49126e-06 
53 1 6.17239e-07 7.14457e-05 3.20511e-05 3.25018e-06 
44 3 6.61241e-07 8.90615e-05 3.69384e-05 9.41239e-06 
35 1 6.59222e-07 4.70305e-05 7.28873e-05 7.70704e-06 
39 2 6.86811e-07 5.14671e-05 4.9356e-05 5.11515e-06 
7 2 6.18279e-07 6.0576e-05 4.90054e-05 4.98682e-06 
36 2 6.97489e-07 5.81556e-05 5.51762e-05 2.0543e-06 
28 2 5.80882e-07 7.35003e-05 4.47085e-05 5.69946e-06 
29 3 6.35561e-07 7.18412e-05 6.21662e-05 5.32889e-06 
49 2 6.74832e-07 7.93158e-05 5.44371e-05 3.40509e-06 
32 3 6.19686e-07 8.3537e-05 4.91843e-05 4.67603e-06 
23 3 6.6742e-07 5.28445e-05 4.7974e-05 5.60692e-06 
40 3 6.32093e-07 5.82784e-05 3.48058e-05 4.44772e-06 
6 1 6.55279e-07 6.02229e-05 4.74987e-05 4.9714e-06 
25 2 5.58284e-07 5.80468e-05 4.24901e-05 6.15714e-06 
37 1 6.6533e-07 6.91033e-05 3.44002e-05 3.55586e-06 
42 3 5.99613e-07 7.85268e-05 6.2686e-05 7.92474e-06 
17 2 6.41427e-07 7.93265e-05 5.46164e-05 2.93668e-06 
22 2 6.34544e-07 4.96871e-05 5.34419e-05 3.881e-06 
41 3 6.88275e-07 5.88239e-05 6.18308e-05 7.58368e-06 
43 2 5.66719e-07 6.93149e-05 2.75013e-05 8.95759e-06 
47 3 5.62057e-07 6.07402e-05 4.81701e-05 5.02427e-06 
1 1 6.39587e-07 4.92403e-05 4.92496e-05 5.13859e-06 
2 2 5.97869e-07 5.17132e-05 4.89745e-05 5.46296e-06 
45 2 5.91256e-07 5.66725e-05 5.81894e-05 3.58834e-06 
4 4 9.99934e-07 5.51047e-05 4.97864e-05 5e-06 
5 5 1e-06 5.71157e-05 4.97233e-05 5e-06 
8 3 6.17745e-07 6.48546e-05 4.92496e-05 5.43554e-06 
9 4 9.99934e-07 6.52473e-05 5.0024e-05 4.69105e-06 
10 5 1e-06 6.72134e-05 4.94502e-05 5e-06 