/*--------------------------------*- C++ -*----------------------------------*\
| =========                 |                                                 |
| \\      /  F ield         | OpenFOAM: The Open Source CFD Toolbox           |
|  \\    /   O peration     | Version:  2.3.0                                 |
|   \\  /    A nd           | Web:      www.OpenFOAM.org                      |
|    \\/     M anipulation  |                                                 |
\*---------------------------------------------------------------------------*/
FoamFile
{
    version     2.0;
    format      ascii;
    class       volVectorField;
    location    "0.0002";
    object      A_Source;
}
// * * * * * * * * * * * * * * * * * * * * * * * * * * * * * * * * * * * * * //

dimensions      [1 -2 -2 0 0 0 0];

internalField   nonuniform List<vector> 
100
(
(5755.73 1619.54 0)
(15230.6 4507.08 0)
(43419 13700.8 0)
(106905 36910.9 0)
(212939 84076.8 0)
(322822 156196 0)
(360026 230852 0)
(315531 269921 0)
(230065 247240 0)
(160997 196491 0)
(12875.2 3534.83 0)
(36635.9 10531.6 0)
(111811 34108.1 0)
(293617 97558.6 0)
(618538 234485 0)
(970619 453866 0)
(1.0827e+06 687216 0)
(936112 811996 0)
(663318 731913 0)
(440169 551072 0)
(29972.2 8048.59 0)
(91424.6 25599.1 0)
(298035 88137.7 0)
(834277 267421 0)
(1.86082e+06 678257 0)
(3.02641e+06 1.3677e+06 0)
(3.37258e+06 2.11974e+06 0)
(2.87929e+06 2.53339e+06 0)
(1.9878e+06 2.25188e+06 0)
(1.24746e+06 1.59891e+06 0)
(56141.6 14802.1 0)
(182415 49930.6 0)
(632931 182048 0)
(1.88816e+06 585253 0)
(4.47067e+06 1.56783e+06 0)
(7.55687e+06 3.29725e+06 0)
(8.40103e+06 5.22874e+06 0)
(7.08567e+06 6.32848e+06 0)
(4.77621e+06 5.55832e+06 0)
(2.82179e+06 3.69646e+06 0)
(73705.4 19221.5 0)
(249935 67414.3 0)
(908026 256152 0)
(2.8517e+06 861738 0)
(7.11681e+06 2.41777e+06 0)
(1.24679e+07 5.27456e+06 0)
(1.38112e+07 8.5243e+06 0)
(1.15337e+07 1.04396e+07 0)
(7.63415e+06 9.09439e+06 0)
(4.26735e+06 5.68327e+06 0)
(56120.4 14795.7 0)
(182369 49915.7 0)
(632822 182010 0)
(1.88793e+06 585165 0)
(4.47027e+06 1.56766e+06 0)
(7.55631e+06 3.29695e+06 0)
(8.40041e+06 5.22833e+06 0)
(7.0851e+06 6.32801e+06 0)
(4.77577e+06 5.55787e+06 0)
(2.82143e+06 3.69606e+06 0)
(29880.3 8021.21 0)
(91215.1 25533 0)
(297515 87960.9 0)
(833148 266998 0)
(1.85879e+06 677390 0)
(3.02353e+06 1.36621e+06 0)
(3.36938e+06 2.11765e+06 0)
(2.8764e+06 2.53099e+06 0)
(1.98556e+06 2.24959e+06 0)
(1.24573e+06 1.59692e+06 0)
(12519.6 3431.19 0)
(35781.1 10268.1 0)
(109584 33371.3 0)
(288572 95722.1 0)
(609173 230581 0)
(957018 446988 0)
(1.06756e+06 677373 0)
(922588 800624 0)
(653050 721248 0)
(432504 542044 0)
(4494.73 1260.05 0)
(12019.3 3541.55 0)
(34596.6 10863.5 0)
(85936.9 29511.1 0)
(172443 67711.9 0)
(262590 126484 0)
(292888 187547 0)
(256215 219570 0)
(186075 200664 0)
(129318 158395 0)
(1737.69 499.405 0)
(4337.86 1315.46 0)
(11714.8 3801.97 0)
(27442.9 9775.59 0)
(52399.5 21365.7 0)
(77427 38456.8 0)
(86273.1 55766.8 0)
(76451.7 64731.7 0)
(57077.7 60108.1 0)
(41532.1 49637.6 0)
)
;

boundaryField
{
    bottom_wall
    {
        type            zeroGradient;
    }
    top_wall
    {
        type            zeroGradient;
    }
    right_wall
    {
        type            zeroGradient;
    }
    left_wall
    {
        type            zeroGradient;
    }
    defaultFaces
    {
        type            empty;
    }
}


// ************************************************************************* //
