/*--------------------------------*- C++ -*----------------------------------*\
| =========                 |                                                 |
| \\      /  F ield         | OpenFOAM: The Open Source CFD Toolbox           |
|  \\    /   O peration     | Version:  2.3.0                                 |
|   \\  /    A nd           | Web:      www.OpenFOAM.org                      |
|    \\/     M anipulation  |                                                 |
\*---------------------------------------------------------------------------*/
FoamFile
{
    version     2.0;
    format      ascii;
    class       volScalarField;
    location    "0.0002";
    object      alpha;
}
// * * * * * * * * * * * * * * * * * * * * * * * * * * * * * * * * * * * * * //

dimensions      [0 0 0 0 0 0 0];

internalField   nonuniform List<scalar> 
100
(
2.69732e-07
7.18216e-07
2.06504e-06
5.15207e-06
1.04959e-05
1.65855e-05
1.99421e-05
1.94285e-05
1.57566e-05
1.17919e-05
6.01607e-07
1.72121e-06
5.2928e-06
1.40652e-05
3.02568e-05
4.94476e-05
5.9695e-05
5.79048e-05
4.60191e-05
3.2691e-05
1.39691e-06
4.28141e-06
1.40499e-05
3.97507e-05
9.03899e-05
0.000152928
0.000185089
0.000178942
0.000139733
9.38648e-05
2.61126e-06
8.51966e-06
2.97323e-05
8.95361e-05
0.000215745
0.00037877
0.000458815
0.000442513
0.000340379
0.000214947
3.42416e-06
1.16538e-05
4.25544e-05
0.000134763
0.000341688
0.000620668
0.000751035
0.000723452
0.000550737
0.000328153
2.61026e-06
8.51746e-06
2.9727e-05
8.95248e-05
0.000215725
0.000378741
0.00045878
0.000442479
0.00034035
0.000214923
1.39257e-06
4.27144e-06
1.40249e-05
3.96955e-05
9.02886e-05
0.000152777
0.00018491
0.000178766
0.000139583
9.37421e-05
5.84867e-07
1.68067e-06
5.18614e-06
1.38199e-05
2.97902e-05
4.87408e-05
5.88513e-05
5.70768e-05
4.53272e-05
3.21401e-05
2.10543e-07
5.66466e-07
1.64429e-06
4.13794e-06
8.49085e-06
1.34758e-05
1.62135e-05
1.57855e-05
1.27653e-05
9.49007e-06
8.16476e-08
2.05225e-07
5.59456e-07
1.32938e-06
2.59918e-06
4.00479e-06
4.79593e-06
4.69173e-06
3.87143e-06
3.00796e-06
)
;

boundaryField
{
    bottom_wall
    {
        type            inletOutlet;
        inletValue      uniform 0;
        value           nonuniform List<scalar> 10(2.69732e-07 7.18216e-07 2.06504e-06 5.15207e-06 1.04959e-05 1.65855e-05 1.99421e-05 1.94285e-05 1.57566e-05 1.17919e-05);
    }
    top_wall
    {
        type            fixedValue;
        value           uniform 0;
    }
    right_wall
    {
        type            zeroGradient;
    }
    left_wall
    {
        type            zeroGradient;
    }
    defaultFaces
    {
        type            empty;
    }
}


// ************************************************************************* //
