/*--------------------------------*- C++ -*----------------------------------*\
| =========                 |                                                 |
| \\      /  F ield         | OpenFOAM: The Open Source CFD Toolbox           |
|  \\    /   O peration     | Version:  2.3.0                                 |
|   \\  /    A nd           | Web:      www.OpenFOAM.org                      |
|    \\/     M anipulation  |                                                 |
\*---------------------------------------------------------------------------*/
FoamFile
{
    version     2.0;
    format      ascii;
    class       volSymmTensorField;
    location    "0.0002";
    object      B;
}
// * * * * * * * * * * * * * * * * * * * * * * * * * * * * * * * * * * * * * //

dimensions      [0 2 -2 0 0 0 0];

internalField   nonuniform List<symmTensor> 
100
(
(-0.000152332 -0.000278525 -0 -4.00252e-05 -0 2.49104e-07)
(-0.00013789 -0.000340716 -0 -0.000462508 -0 2.49346e-07)
(-2.79742e-05 -0.000318321 -0 -0.000558714 -0 3.24797e-07)
(7.6224e-05 -0.000344224 -0 -0.000518985 -0 5.07829e-07)
(0.000194717 -0.00031938 -0 -0.000436318 -0 6.99046e-07)
(0.000298098 -0.00015934 -0 -0.000257385 -0 6.93605e-07)
(0.000256277 0.000114384 -0 0.000138517 -0 1.34766e-06)
(7.24572e-06 0.000253959 -0 0.000876459 -0 8.14267e-06)
(-0.000278162 -0.000206712 -0 0.00139175 -0 1.53806e-05)
(-0.000221862 -0.000595992 -0 -7.29929e-05 -0 1.21911e-06)
(-0.000244543 5.3767e-05 -0 0.000402968 -0 1.06822e-06)
(-0.000455868 -0.000199036 -0 0.00071063 -0 3.47735e-06)
(-0.000437203 -0.000351484 -0 0.000835428 -0 5.56092e-06)
(-0.000387565 -0.000717001 -0 0.000837674 -0 8.63502e-06)
(-0.000167867 -0.00118955 -0 0.000624411 -0 1.34616e-05)
(0.000194959 -0.00154191 -0 0.000101905 -0 1.69279e-05)
(0.000517985 -0.00153971 -0 -0.00054193 -0 1.51636e-05)
(0.00049871 -0.00125951 -0 -0.000858751 -0 9.21401e-06)
(0.000177735 -0.00131613 -0 -0.000873723 -0 7.21519e-06)
(0.00039054 -0.000492872 -0 -0.00138344 -0 2.45859e-06)
(-0.000260976 0.000350578 -0 0.000293434 -0 1.2716e-06)
(-0.000875278 5.94355e-05 -0 0.000882533 -0 4.57157e-06)
(-0.00123455 -0.000137627 -0 0.00130085 -0 9.93897e-06)
(-0.00159048 -0.000625678 -0 0.0016552 -0 1.8004e-05)
(-0.00153626 -0.00143858 -0 0.00168301 -0 2.83767e-05)
(-0.000837796 -0.00227356 -0 0.00100766 -0 3.65374e-05)
(0.000295384 -0.00256884 -0 -0.000298546 -0 3.77696e-05)
(0.00142027 -0.00233085 -0 -0.00139943 -0 4.25245e-05)
(0.00224294 -0.00228468 -0 -0.00229504 -0 5.82073e-05)
(0.00265391 0.000221496 -0 -0.00316581 -0 3.98689e-05)
(-0.000117612 0.000703177 -0 6.17255e-05 -0 2.71274e-06)
(-0.000961547 0.000746567 -0 0.000802071 -0 6.71259e-06)
(-0.00161741 0.00101419 -0 0.00142514 -0 1.71408e-05)
(-0.00242671 0.00120154 -0 0.00204924 -0 3.11529e-05)
(-0.0028582 0.00112951 -0 0.00241559 -0 3.91142e-05)
(-0.00225913 0.000687668 -0 0.00206176 -0 2.6283e-05)
(-0.000544283 0.000426286 -0 0.000710231 -0 4.13116e-06)
(0.00173006 0.000174878 -0 -0.00115861 -0 1.80914e-05)
(0.00438655 -0.000889137 -0 -0.00294928 -0 0.000115903)
(0.00516141 0.00293011 -0 -0.0040696 -0 0.000196271)
(0.000658059 0.000875703 -0 -0.000607766 -0 7.12787e-06)
(0.000234238 0.00158351 -0 -0.000330386 -0 1.40229e-05)
(0.000146869 0.00257265 -0 -0.000208478 -0 3.66813e-05)
(0.000114034 0.0040531 -0 -0.000329259 -0 8.60602e-05)
(-0.000179635 0.00575919 -0 -0.000385257 -0 0.000162691)
(-0.000738719 0.00693866 -0 0.000323412 -0 0.000246959)
(-0.000972615 0.0070017 -0 0.00149694 -0 0.000297331)
(-0.000750685 0.00602984 -0 0.00152847 -0 0.000228404)
(0.00111732 0.00334884 -0 0.00046739 -0 9.91324e-05)
(0.00191026 0.00647318 -0 0.000236457 -0 0.000305884)
(0.00192679 0.000186375 -0 -0.00152926 -0 2.20809e-05)
(0.00256864 0.001267 -0 -0.0020515 -0 4.85055e-05)
(0.00394385 0.0017014 -0 -0.00264064 -0 0.000109777)
(0.00586607 0.00222153 -0 -0.00366681 -0 0.000228425)
(0.00648787 0.0029533 -0 -0.00434184 -0 0.000288019)
(0.00361196 0.00390304 -0 -0.0029042 -0 0.000161604)
(-0.00121737 0.00421631 -0 0.000829355 -0 9.45419e-05)
(-0.00521451 0.00345722 -0 0.00401378 -0 0.000146127)
(-0.00700481 0.00175755 -0 0.00568786 -0 0.000190037)
(-0.00952916 0.0036537 -0 0.00694726 -0 0.000320625)
(0.00219795 -0.00120395 -0 -0.00204095 -0 3.61862e-05)
(0.0028834 8.82031e-05 -0 -0.00273505 -0 4.73469e-05)
(0.00318291 -0.000690416 -0 -0.00299179 -0 5.98286e-05)
(0.0034543 -0.001973 -0 -0.00342381 -0 8.79451e-05)
(0.00330297 -0.00297872 -0 -0.00343366 -0 0.000108834)
(0.00217092 -0.00326742 -0 -0.00217874 -0 8.64832e-05)
(-2.48362e-05 -0.0033947 -0 0.000387973 -0 7.26584e-05)
(-0.00292395 -0.0035041 -0 0.00337399 -0 0.000134177)
(-0.00562117 -0.00314713 -0 0.00623591 -0 0.000264844)
(-0.00743441 -0.00303251 -0 0.0080219 -0 0.000387691)
(0.00167523 -0.00258635 -0 -0.00156474 -0 5.46934e-05)
(0.00180467 -0.000758152 -0 -0.0017063 -0 2.20828e-05)
(0.000978872 -0.00192219 -0 -0.00111708 -0 2.56065e-05)
(0.000246999 -0.00336446 -0 -0.00044806 -0 6.05613e-05)
(-0.000356727 -0.00399389 -0 0.000244085 -0 8.7379e-05)
(-0.00037891 -0.00380012 -0 0.000298884 -0 8.06012e-05)
(0.000143199 -0.00365996 -0 -7.30582e-05 -0 7.70584e-05)
(2.64502e-05 -0.00359936 -0 0.000467383 -0 8.33556e-05)
(-0.00144809 -0.00310747 -0 0.00215279 -0 8.7466e-05)
(-0.00184292 -0.00574369 -0 0.00366884 -0 0.00028999)
(2.77295e-05 -0.00434639 -0 0.00083536 -0 0.000129547)
(-0.00033347 -0.00239304 -0 0.00096035 -0 4.55348e-05)
(-0.00135286 -0.00358793 -0 0.00118373 -0 7.76172e-05)
(-0.00174468 -0.00470922 -0 0.00164785 -0 0.000135281)
(-0.00172241 -0.00490759 -0 0.00198626 -0 0.000158301)
(-0.000844067 -0.00438015 -0 0.00118619 -0 0.000120235)
(0.000765099 -0.00383401 -0 -0.000634556 -0 8.7131e-05)
(0.0021899 -0.00336696 -0 -0.00204601 -0 9.1049e-05)
(0.00189587 -0.00287687 -0 -0.00241258 -0 6.25142e-05)
(0.00229554 -0.00637453 -0 -0.00152947 -0 0.000269357)
(-0.00652501 -0.0102407 -0 0.00513979 -0 0.000626089)
(-0.00261189 -0.00788191 -0 0.00468733 -0 0.000488624)
(-0.00299039 -0.00673785 -0 0.00346643 -0 0.000308855)
(-0.00259238 -0.00571013 -0 0.00312203 -0 0.00023095)
(-0.00203338 -0.00439564 -0 0.0027337 -0 0.000151198)
(-0.000745662 -0.00322971 -0 0.00125341 -0 7.08743e-05)
(0.00145913 -0.00300737 -0 -0.00130461 -0 6.10856e-05)
(0.00401412 -0.00401711 -0 -0.00391459 -0 0.000169101)
(0.00507997 -0.0061886 -0 -0.00618524 -0 0.000317146)
(0.0106459 -0.0103336 -0 -0.00568337 -0 0.00119992)
)
;

boundaryField
{
    bottom_wall
    {
        type            calculated;
        value           nonuniform List<symmTensor> 10((-0.000152136 -0.000316873 -0 -0.000544298 -0 2.21256e-27) (-0.000137813 -0.000406683 -0 -0.00156624 -0 1.01897e-26) (-2.82097e-05 -0.00033449 -0 -0.00178803 -0 1.38716e-26) (7.54227e-05 -0.000231705 -0 -0.00161271 -0 1.26628e-26) (0.000193219 -2.51245e-05 -0 -0.00118058 -0 8.90812e-27) (0.000296199 0.000332496 -0 -0.000391011 -0 1.1119e-26) (0.000253261 0.000762275 -0 0.000848965 -0 1.60939e-25) (-8.81486e-07 0.000870417 -0 0.0023907 -0 6.65613e-25) (-0.000284318 0.000203652 -0 0.00312971 -0 9.29483e-25) (-0.000214743 -0.000464217 -0 0.00071753 -0 5.88012e-26));
    }
    top_wall
    {
        type            calculated;
        value           nonuniform List<symmTensor> 10((-0.00697424 -0.0157916 -0 0.00633065 -0 1.68735e-23) (-0.00301554 -0.0114508 -0 0.00556042 -0 1.11824e-23) (-0.00320568 -0.0080154 -0 0.00396644 -0 5.0579e-24) (-0.00273255 -0.00521119 -0 0.00349071 -0 2.51814e-24) (-0.00210548 -0.0025348 -0 0.00297611 -0 1.00012e-24) (-0.000784703 -0.000557427 -0 0.00129694 -0 1.33219e-25) (0.00134311 -0.000485572 -0 -0.00155666 -0 1.20757e-25) (0.0037049 -0.00300502 -0 -0.00473538 -0 1.30455e-24) (0.00461857 -0.00812012 -0 -0.00799855 -0 4.51443e-24) (0.0091516 -0.0151684 -0 -0.00896965 -0 1.88725e-23));
    }
    right_wall
    {
        type            calculated;
        value           nonuniform List<symmTensor> 10((-3.3377e-05 -0.000451577 -0 -7.14383e-05 -0 9.60275e-27) (0.00077587 0.000165787 -0 -0.00136598 -0 4.09472e-26) (0.00265346 0.0019505 -0 -0.00315221 -0 6.29813e-25) (0.00415745 0.0070751 -0 -0.00417442 -0 4.02217e-24) (0.000501131 0.0127394 -0 -6.70316e-05 -0 1.0068e-23) (-0.0119817 0.00804982 -0 0.00646233 -0 5.6922e-24) (-0.00837639 -0.00349191 -0 0.00749385 -0 4.03761e-24) (-0.00166737 -0.00946597 -0 0.00332506 -0 6.87294e-24) (0.00297082 -0.0107993 -0 -0.00178137 -0 8.20314e-24) (0.0139052 -0.0123753 -0 -0.00666878 -0 2.5176e-23));
    }
    left_wall
    {
        type            calculated;
        value           nonuniform List<symmTensor> 10((-0.000106112 -0.000286045 -0 -4.0157e-05 -0 2.9879e-27) (-5.05536e-06 0.000232462 -0 0.000400155 -0 2.15138e-26) (0.000218906 0.00058885 -0 0.000290878 -0 5.2417e-26) (0.000480445 0.000878326 -0 5.86872e-05 -0 9.29169e-26) (0.00105679 0.00080274 -0 -0.000610401 -0 1.21483e-25) (0.00173807 -0.000381079 -0 -0.00153763 -0 1.92106e-25) (0.00158586 -0.0025238 -0 -0.00205788 -0 4.94282e-25) (0.000985473 -0.00483645 -0 -0.00160454 -0 1.31644e-24) (-0.000601932 -0.00718571 -0 0.000698825 -0 3.15761e-24) (-0.0113896 -0.0116664 -0 0.00440207 -0 7.23033e-24));
    }
    defaultFaces
    {
        type            empty;
    }
}


// ************************************************************************* //
