/*--------------------------------*- C++ -*----------------------------------*\
| =========                 |                                                 |
| \\      /  F ield         | OpenFOAM: The Open Source CFD Toolbox           |
|  \\    /   O peration     | Version:  2.3.0                                 |
|   \\  /    A nd           | Web:      www.OpenFOAM.org                      |
|    \\/     M anipulation  |                                                 |
\*---------------------------------------------------------------------------*/
FoamFile
{
    version     2.0;
    format      ascii;
    class       volVectorField;
    location    "0.0002";
    object      gradp;
}
// * * * * * * * * * * * * * * * * * * * * * * * * * * * * * * * * * * * * * //

dimensions      [1 -2 -2 0 0 0 0];

internalField   nonuniform List<vector> 
100
(
(-12970.7 173566 0)
(-9040.62 195821 0)
(17210 269375 0)
(25595.9 346735 0)
(18899.4 362285 0)
(7805.47 256327 0)
(2113.5 20772.2 0)
(-29927.9 -302756 0)
(-114774 -681090 0)
(-83954.6 -1.04912e+06 0)
(35225.8 323780 0)
(104850 423802 0)
(133704 571538 0)
(67314.7 702833 0)
(-109307 705216 0)
(-349318 431225 0)
(-561196 -135169 0)
(-671935 -863037 0)
(-631585 -1.56371e+06 0)
(-284070 -2.07517e+06 0)
(87051.5 210954 0)
(238717 309120 0)
(296241 489303 0)
(159274 680219 0)
(-252708 705344 0)
(-832579 292973 0)
(-1.29215e+06 -520056 0)
(-1.45847e+06 -1.455e+06 0)
(-1.32691e+06 -2.3592e+06 0)
(-595417 -3.1534e+06 0)
(133392 -17631.6 0)
(383199 55685.7 0)
(504803 217692 0)
(283356 392401 0)
(-496553 301127 0)
(-1.57472e+06 -464033 0)
(-2.30917e+06 -1.79977e+06 0)
(-2.51107e+06 -3.13336e+06 0)
(-2.32998e+06 -4.22988e+06 0)
(-1.07827e+06 -5.28072e+06 0)
(160369 -361586 0)
(474041 -373855 0)
(632956 -377954 0)
(242709 -441971 0)
(-1.10914e+06 -864677 0)
(-2.93347e+06 -2.17e+06 0)
(-3.96147e+06 -4.13574e+06 0)
(-3.88858e+06 -5.81558e+06 0)
(-3.47427e+06 -6.86191e+06 0)
(-1.64625e+06 -7.6495e+06 0)
(121122 -815426 0)
(366830 -967249 0)
(436688 -1.29232e+06 0)
(-203368 -1.84606e+06 0)
(-2.22458e+06 -2.71364e+06 0)
(-4.84578e+06 -3.95825e+06 0)
(-5.95475e+06 -5.34657e+06 0)
(-5.23725e+06 -6.42011e+06 0)
(-4.1639e+06 -6.87338e+06 0)
(-1.86585e+06 -6.73017e+06 0)
(8545.42 -1.21185e+06 0)
(-2852.18 -1.41556e+06 0)
(-245854 -1.91369e+06 0)
(-1.17861e+06 -2.70054e+06 0)
(-3.22133e+06 -3.57213e+06 0)
(-5.5664e+06 -3.96202e+06 0)
(-6.42334e+06 -3.81177e+06 0)
(-5.41539e+06 -3.56769e+06 0)
(-3.78433e+06 -3.1906e+06 0)
(-1.50304e+06 -2.4064e+06 0)
(-82592.6 -1.43961e+06 0)
(-335006 -1.4772e+06 0)
(-848290 -1.81308e+06 0)
(-1.86182e+06 -2.34355e+06 0)
(-3.48606e+06 -2.73674e+06 0)
(-5.08541e+06 -2.44848e+06 0)
(-5.56042e+06 -1.53952e+06 0)
(-4.61609e+06 -604909 0)
(-3.00261e+06 154036 0)
(-1.08165e+06 978551 0)
(-29040.8 -1.56722e+06 0)
(-376315 -1.19328e+06 0)
(-1.11221e+06 -1.22308e+06 0)
(-2.10228e+06 -1.42461e+06 0)
(-3.32626e+06 -1.49292e+06 0)
(-4.36918e+06 -1.1236e+06 0)
(-4.57976e+06 -377158 0)
(-3.72183e+06 402512 0)
(-2.20087e+06 1.11084e+06 0)
(-678529 2.01435e+06 0)
(291344 -809265 0)
(9136.37 -488880 0)
(-1.07961e+06 -423813 0)
(-2.13166e+06 -456287 0)
(-3.18505e+06 -453188 0)
(-3.96965e+06 -315079 0)
(-4.03431e+06 -53662.7 0)
(-3.12809e+06 230377 0)
(-1.39077e+06 540084 0)
(-178144 1.04047e+06 0)
)
;

boundaryField
{
    bottom_wall
    {
        type            zeroGradient;
    }
    top_wall
    {
        type            zeroGradient;
    }
    right_wall
    {
        type            zeroGradient;
    }
    left_wall
    {
        type            zeroGradient;
    }
    defaultFaces
    {
        type            empty;
    }
}


// ************************************************************************* //
