/*--------------------------------*- C++ -*----------------------------------*\
| =========                 |                                                 |
| \\      /  F ield         | OpenFOAM: The Open Source CFD Toolbox           |
|  \\    /   O peration     | Version:  2.3.0                                 |
|   \\  /    A nd           | Web:      www.OpenFOAM.org                      |
|    \\/     M anipulation  |                                                 |
\*---------------------------------------------------------------------------*/
FoamFile
{
    version     2.0;
    format      ascii;
    class       volScalarField;
    location    "0.0002";
    object      nut;
}
// * * * * * * * * * * * * * * * * * * * * * * * * * * * * * * * * * * * * * //

dimensions      [0 2 -1 0 0 0 0];

internalField   nonuniform List<scalar> 
100
(
5.74598e-10
5.74877e-10
6.56114e-10
8.20413e-10
9.62556e-10
9.58804e-10
1.33648e-09
3.28516e-09
4.51503e-09
1.27115e-09
1.18988e-09
2.14683e-09
2.71486e-09
3.38302e-09
4.22398e-09
4.73669e-09
4.48306e-09
3.4946e-09
3.09241e-09
1.80516e-09
1.29822e-09
2.46154e-09
3.62948e-09
4.88492e-09
6.13273e-09
6.95893e-09
7.0753e-09
7.50746e-09
8.78339e-09
7.26926e-09
1.89617e-09
2.98276e-09
4.76638e-09
6.42573e-09
7.20013e-09
5.90216e-09
2.33997e-09
4.89677e-09
1.23943e-08
1.61288e-08
3.07364e-09
4.31114e-09
6.97262e-09
1.06801e-08
1.46844e-08
1.8092e-08
1.98515e-08
1.7399e-08
1.14626e-08
2.0135e-08
5.40981e-09
8.01806e-09
1.20623e-08
1.73999e-08
1.95382e-08
1.46352e-08
1.1194e-08
1.39168e-08
1.58706e-08
2.06145e-08
6.9254e-09
7.92171e-09
8.90487e-09
1.07964e-08
1.20104e-08
1.07063e-08
9.81333e-09
1.33356e-08
1.87356e-08
2.26682e-08
8.51414e-09
5.41004e-09
5.82571e-09
8.95924e-09
1.07616e-08
1.03358e-08
1.01061e-08
1.05109e-08
1.0767e-08
1.96049e-08
1.31035e-08
7.76865e-09
1.01427e-08
1.33904e-08
1.44849e-08
1.26238e-08
1.07463e-08
1.09853e-08
9.10254e-09
1.88946e-08
2.88066e-08
2.54484e-08
2.02325e-08
1.74958e-08
1.41562e-08
9.6921e-09
8.99793e-09
1.49709e-08
2.05023e-08
3.98795e-08
)
;

boundaryField
{
    bottom_wall
    {
        type            calculated;
        value           nonuniform List<scalar> 10(5.41528e-30 1.16213e-29 1.35593e-29 1.2955e-29 1.08659e-29 1.21396e-29 4.61853e-29 9.39257e-29 1.10993e-28 2.79169e-29);
    }
    top_wall
    {
        type            calculated;
        value           nonuniform List<scalar> 10(4.72907e-28 3.84982e-28 2.58916e-28 1.82689e-28 1.15133e-28 4.20201e-29 4.00064e-29 1.31493e-28 2.4461e-28 5.00135e-28);
    }
    right_wall
    {
        type            calculated;
        value           nonuniform List<scalar> 10(1.12816e-29 2.32962e-29 9.13649e-29 2.30889e-28 3.65297e-28 2.74672e-28 2.31332e-28 3.01818e-28 3.29734e-28 5.77653e-28);
    }
    left_wall
    {
        type            calculated;
        value           nonuniform List<scalar> 10(6.29299e-30 1.68862e-29 2.63578e-29 3.5093e-29 4.01265e-29 5.04597e-29 8.09396e-29 1.32091e-28 2.04575e-28 3.09565e-28);
    }
    defaultFaces
    {
        type            empty;
    }
}


// ************************************************************************* //
