/*--------------------------------*- C++ -*----------------------------------*\
| =========                 |                                                 |
| \\      /  F ield         | OpenFOAM: The Open Source CFD Toolbox           |
|  \\    /   O peration     | Version:  2.3.0                                 |
|   \\  /    A nd           | Web:      www.OpenFOAM.org                      |
|    \\/     M anipulation  |                                                 |
\*---------------------------------------------------------------------------*/
FoamFile
{
    version     2.0;
    format      ascii;
    class       volScalarField;
    location    "0.0002";
    object      p;
}
// * * * * * * * * * * * * * * * * * * * * * * * * * * * * * * * * * * * * * //

dimensions      [1 -1 -2 0 0 0 0];

internalField   nonuniform List<scalar> 
100
(
0.0202206
-0.239194
-0.160592
0.105006
0.351325
0.482993
0.507435
0.525263
-0.0911243
-1.77022
3.45109
4.15561
5.54808
6.82969
6.89438
4.64354
-0.0919905
-6.58038
-13.5307
-19.2121
6.49581
8.23684
11.2702
14.1617
14.4556
9.1075
-2.19595
-16.7355
-31.3653
-43.2736
7.67017
10.338
15.3341
20.4341
21.0012
10.503
-10.4931
-35.6804
-60.7146
-82.28
6.14318
9.35056
15.624
22.0097
20.4782
-0.173168
-38.1913
-79.4026
-115.963
-148.888
0.438454
2.8609
7.77506
11.5946
3.70771
-32.897
-93.2079
-151.992
-197.953
-235.27
-10.1653
-9.99443
-10.2224
-14.9115
-33.7946
-79.3381
-145.123
-207.805
-253.43
-283.491
-23.7985
-25.4504
-30.4987
-42.4162
-67.735
-112.137
-169.443
-223.346
-261.765
-283.398
-38.9576
-39.5384
-46.4839
-61.7826
-88.5295
-128.308
-175.913
-219.903
-250.35
-263.92
-55.1429
-49.316
-54.9602
-70.9083
-97.5933
-134.609
-176.986
-215.295
-239.548
-243.111
)
;

boundaryField
{
    bottom_wall
    {
        type            fixedValue;
        value           uniform 0;
    }
    top_wall
    {
        type            zeroGradient;
    }
    right_wall
    {
        type            zeroGradient;
    }
    left_wall
    {
        type            zeroGradient;
    }
    defaultFaces
    {
        type            empty;
    }
}


// ************************************************************************* //
