/*--------------------------------*- C++ -*----------------------------------*\
| =========                 |                                                 |
| \\      /  F ield         | OpenFOAM: The Open Source CFD Toolbox           |
|  \\    /   O peration     | Version:  2.3.0                                 |
|   \\  /    A nd           | Web:      www.OpenFOAM.org                      |
|    \\/     M anipulation  |                                                 |
\*---------------------------------------------------------------------------*/
FoamFile
{
    version     2.0;
    format      ascii;
    class       surfaceScalarField;
    location    "0.0002";
    object      phia;
}
// * * * * * * * * * * * * * * * * * * * * * * * * * * * * * * * * * * * * * //

dimensions      [0 3 -1 0 0 0 0];

internalField   nonuniform List<scalar> 
180
(
-9.40657e-11
-2.6563e-11
-9.33719e-11
-2.77346e-11
-9.23928e-11
-2.92586e-11
-9.08643e-11
-3.14709e-11
-8.82797e-11
-3.49716e-11
-8.37921e-11
-4.08829e-11
-7.72808e-11
-5.06819e-11
-7.00286e-11
-6.12338e-11
-6.4292e-11
-7.00262e-11
-7.48328e-11
-9.43895e-11
-2.59944e-11
-9.37707e-11
-2.70512e-11
-9.28858e-11
-2.84352e-11
-9.14715e-11
-3.04823e-11
-8.89829e-11
-3.38098e-11
-8.43694e-11
-3.9704e-11
-7.74193e-11
-5.02863e-11
-6.96064e-11
-6.1609e-11
-6.35384e-11
-7.09023e-11
-7.56971e-11
-9.46756e-11
-2.54865e-11
-9.41243e-11
-2.64321e-11
-9.3327e-11
-2.76786e-11
-9.20266e-11
-2.95534e-11
-8.9651e-11
-3.26778e-11
-8.49306e-11
-3.84841e-11
-7.75485e-11
-4.99051e-11
-6.91703e-11
-6.20097e-11
-6.27958e-11
-7.18126e-11
-7.65223e-11
-9.49302e-11
-2.50444e-11
-9.44457e-11
-2.58781e-11
-9.37376e-11
-2.69845e-11
-9.25602e-11
-2.86738e-11
-9.03254e-11
-3.15579e-11
-8.55125e-11
-3.71902e-11
-7.76785e-11
-4.95323e-11
-6.86911e-11
-6.24412e-11
-6.20173e-11
-7.27792e-11
-7.73212e-11
-9.51462e-11
-2.47254e-11
-9.4726e-11
-2.54599e-11
-9.41065e-11
-2.64373e-11
-9.30584e-11
-2.7945e-11
-9.09915e-11
-3.05708e-11
-8.61048e-11
-3.59429e-11
-7.78092e-11
-4.92062e-11
-6.81761e-11
-6.28566e-11
-6.12163e-11
-7.37081e-11
-7.80082e-11
-9.52737e-11
-2.47262e-11
-9.49035e-11
-2.54605e-11
-9.43575e-11
-2.64378e-11
-9.34253e-11
-2.79454e-11
-9.15311e-11
-3.05712e-11
-8.66058e-11
-3.59432e-11
-7.79209e-11
-4.92063e-11
-6.77173e-11
-6.28565e-11
-6.05401e-11
-7.37078e-11
-7.80079e-11
-9.51455e-11
-2.50495e-11
-9.47254e-11
-2.58827e-11
-9.4106e-11
-2.69886e-11
-9.3058e-11
-2.86775e-11
-9.09912e-11
-3.15613e-11
-8.61045e-11
-3.71931e-11
-7.78092e-11
-4.95333e-11
-6.81763e-11
-6.24403e-11
-6.12167e-11
-7.27769e-11
-7.73185e-11
-9.49262e-11
-2.55128e-11
-9.44419e-11
-2.64584e-11
-9.37341e-11
-2.77053e-11
-9.25568e-11
-2.95805e-11
-9.03221e-11
-3.2705e-11
-8.55101e-11
-3.85086e-11
-7.76779e-11
-4.99133e-11
-6.8693e-11
-6.2002e-11
-6.20211e-11
-7.17937e-11
-7.65011e-11
-9.4654e-11
-2.60606e-11
-9.41015e-11
-2.71269e-11
-9.33028e-11
-2.85221e-11
-9.20006e-11
-3.05817e-11
-8.9624e-11
-3.3921e-11
-8.49094e-11
-3.98119e-11
-7.75435e-11
-5.0323e-11
-6.91865e-11
-6.1575e-11
-6.28264e-11
-7.08214e-11
-7.5613e-11
-9.4342e-11
-9.37121e-11
-9.28137e-11
-9.13833e-11
-8.88811e-11
-8.42859e-11
-7.73996e-11
-6.96688e-11
-6.36492e-11
)
;

boundaryField
{
    bottom_wall
    {
        type            calculated;
        value           uniform 0;
    }
    top_wall
    {
        type            calculated;
        value           uniform 0;
    }
    right_wall
    {
        type            calculated;
        value           uniform 0;
    }
    left_wall
    {
        type            calculated;
        value           uniform 0;
    }
    defaultFaces
    {
        type            empty;
        value           nonuniform 0();
    }
}


// ************************************************************************* //
