/*--------------------------------*- C++ -*----------------------------------*\
| =========                 |                                                 |
| \\      /  F ield         | OpenFOAM: The Open Source CFD Toolbox           |
|  \\    /   O peration     | Version:  2.3.0                                 |
|   \\  /    A nd           | Web:      www.OpenFOAM.org                      |
|    \\/     M anipulation  |                                                 |
\*---------------------------------------------------------------------------*/
FoamFile
{
    version     2.0;
    format      ascii;
    class       surfaceScalarField;
    location    "0.0002";
    object      phib;
}
// * * * * * * * * * * * * * * * * * * * * * * * * * * * * * * * * * * * * * //

dimensions      [0 3 -1 0 0 0 0];

internalField   nonuniform List<scalar> 
180
(
1.00046e-13
-1.05091e-13
1.45263e-13
2.31219e-14
1.60803e-13
3.03592e-14
1.2752e-13
3.23685e-15
2.58835e-14
4.73588e-16
-1.26652e-13
1.39654e-14
-2.85814e-13
1.52772e-14
-2.84561e-13
-1.45481e-13
-3.31361e-14
-2.26616e-13
3.93721e-13
1.25215e-13
-2.30276e-13
3.34079e-13
-1.85678e-13
5.57454e-13
-1.92833e-13
7.57305e-13
-1.96186e-13
8.57577e-13
-9.89966e-14
7.75359e-13
9.73468e-14
5.37402e-13
2.54639e-13
2.95819e-13
9.75897e-14
2.53136e-13
-1.82584e-13
6.47341e-13
1.16511e-13
-3.46706e-13
5.32689e-13
-6.01665e-13
1.14488e-12
-8.04449e-13
1.9365e-12
-9.86412e-13
2.75303e-12
-9.12846e-13
3.22116e-12
-3.67007e-13
3.1135e-12
3.66686e-13
2.48294e-12
7.32685e-13
1.40605e-12
8.98326e-13
2.05445e-12
5.7316e-14
-4.03832e-13
4.94256e-13
-1.03812e-12
1.29746e-12
-1.60614e-12
2.48396e-12
-2.16904e-12
3.97217e-12
-2.39358e-12
5.13519e-12
-1.52018e-12
5.38254e-12
1.29703e-13
4.56582e-12
1.55953e-12
2.62152e-12
2.85131e-12
4.67638e-12
-2.86752e-13
-1.16731e-13
-4.33189e-13
-8.90747e-13
-4.74245e-13
-1.56199e-12
-4.69821e-13
-2.16528e-12
-4.18829e-13
-2.42887e-12
-5.28052e-14
-1.86826e-12
6.50647e-13
-5.59322e-13
1.15486e-12
1.06653e-12
9.99994e-13
3.01446e-12
5.66856e-12
-8.52316e-13
7.36029e-13
-2.08354e-12
3.41708e-13
-3.85972e-12
2.18316e-13
-6.57833e-12
5.6424e-13
-1.00221e-11
1.03464e-12
-1.22765e-11
4.01594e-13
-1.16176e-11
-1.21835e-12
-8.74033e-12
-1.82203e-12
-4.8029e-12
-9.37705e-13
8.36416e-13
-1.02481e-12
1.76116e-12
-2.44669e-12
1.7644e-12
-3.97636e-12
1.75051e-12
-5.64823e-12
2.24211e-12
-7.24962e-12
2.64493e-12
-8.35664e-12
1.51038e-12
-8.46935e-12
-1.11892e-12
-7.07268e-12
-3.24291e-12
-4.04509e-12
-3.991e-12
-3.23811e-12
-8.44975e-13
2.60629e-12
-1.7272e-12
2.64699e-12
-2.23332e-12
2.25766e-12
-2.30987e-12
2.32082e-12
-1.93084e-12
2.26827e-12
-1.56603e-12
1.14368e-12
-1.69866e-12
-9.95597e-13
-1.85329e-12
-3.10296e-12
-1.26525e-12
-4.59397e-12
-4.51923e-12
-2.16101e-13
2.82246e-12
1.95115e-13
2.2359e-12
8.88957e-13
1.56416e-12
1.85025e-12
1.36015e-12
2.945e-12
1.17397e-12
3.56257e-12
5.24903e-13
3.19524e-12
-6.32136e-13
2.01413e-12
-1.92763e-12
6.41593e-13
-3.22722e-12
-3.88381e-12
2.82248e-12
5.05843e-12
6.62268e-12
7.98297e-12
9.15688e-12
9.68098e-12
9.04692e-12
7.11658e-12
3.88666e-12
)
;

boundaryField
{
    bottom_wall
    {
        type            fixedValue;
        value           uniform 0;
    }
    top_wall
    {
        type            fixedValue;
        value           uniform 0;
    }
    right_wall
    {
        type            fixedValue;
        value           uniform 0;
    }
    left_wall
    {
        type            fixedValue;
        value           uniform 0;
    }
    defaultFaces
    {
        type            empty;
        value           nonuniform 0();
    }
}


// ************************************************************************* //
