/*--------------------------------*- C++ -*----------------------------------*\
| =========                 |                                                 |
| \\      /  F ield         | OpenFOAM: The Open Source CFD Toolbox           |
|  \\    /   O peration     | Version:  2.3.0                                 |
|   \\  /    A nd           | Web:      www.OpenFOAM.org                      |
|    \\/     M anipulation  |                                                 |
\*---------------------------------------------------------------------------*/
FoamFile
{
    version     2.0;
    format      ascii;
    class       volVectorField;
    location    "0.0002";
    object      U;
}
// * * * * * * * * * * * * * * * * * * * * * * * * * * * * * * * * * * * * * //

dimensions      [0 1 -1 0 0 0 0];

internalField   nonuniform List<vector> 
100
(
(0.000265228 0.00136073 0)
(0.00125594 0.00391556 0)
(0.00164301 0.00446994 0)
(0.00153718 0.00403141 0)
(0.000887113 0.00295064 0)
(-0.000397317 0.000975941 0)
(-0.00207668 -0.00212484 0)
(-0.00293021 -0.00597972 0)
(-0.00206679 -0.00782719 0)
(-8.55438e-05 -0.00179634 0)
(1.25073e-05 -0.000959212 0)
(0.00243244 0.000700941 0)
(0.00458562 0.00110233 0)
(0.00683514 0.001142 0)
(0.00851957 0.00139815 0)
(0.00863047 0.00158762 0)
(0.00674106 0.000751489 0)
(0.00362472 -0.00256675 0)
(0.00187614 -0.00551669 0)
(0.00193307 0.00250011 0)
(-0.000547621 -0.00264091 0)
(0.00315713 -0.00312648 0)
(0.00819226 -0.00378798 0)
(0.0154888 -0.00421493 0)
(0.0240786 -0.00313367 0)
(0.0308988 0.000113627 0)
(0.0326777 0.00339295 0)
(0.0283511 0.00261978 0)
(0.0190373 0.000908271 0)
(0.00661129 0.0118378 0)
(-0.00120194 -0.00386817 0)
(0.00239504 -0.00802399 0)
(0.00839242 -0.0117011 0)
(0.0185226 -0.0150561 0)
(0.0325055 -0.0149528 0)
(0.0468151 -0.00804085 0)
(0.0548107 0.00398867 0)
(0.0521787 0.0116184 0)
(0.0380882 0.0178202 0)
(0.0103284 0.0339443 0)
(-0.00264349 -0.00322807 0)
(-0.00382494 -0.0110157 0)
(-0.00484493 -0.0177069 0)
(-0.00497014 -0.0240797 0)
(-0.00526601 -0.0264702 0)
(-0.00186765 -0.0199377 0)
(0.00426666 -0.00372244 0)
(0.0107719 0.0138934 0)
(0.013992 0.0307502 0)
(0.00110668 0.0534052 0)
(-0.00434712 0.00223555 0)
(-0.0145405 -0.00460979 0)
(-0.0293804 -0.00928504 0)
(-0.0524838 -0.0109922 0)
(-0.0850012 -0.00963099 0)
(-0.113686 -0.00894622 0)
(-0.119183 -0.00824178 0)
(-0.100805 -0.00147286 0)
(-0.0664466 0.0139017 0)
(-0.0301643 0.0343912 0)
(-0.00396615 0.0121482 0)
(-0.0174578 0.0098241 0)
(-0.0320902 0.0094538 0)
(-0.0483653 0.0142028 0)
(-0.0654259 0.0189438 0)
(-0.0801687 0.010159 0)
(-0.0863056 -0.0109401 0)
(-0.0792116 -0.0240015 0)
(-0.0560609 -0.0230054 0)
(-0.0210817 -0.0112022 0)
(-0.00246451 0.0228146 0)
(-0.0135953 0.0229663 0)
(-0.0201192 0.0208664 0)
(-0.0230513 0.0236582 0)
(-0.0220232 0.0254372 0)
(-0.0187473 0.0136892 0)
(-0.0175313 -0.0110924 0)
(-0.019411 -0.0330204 0)
(-0.0169178 -0.044544 0)
(-0.00423213 -0.040316 0)
(0.00150446 0.028194 0)
(-0.000497841 0.026935 0)
(0.00525723 0.020763 0)
(0.0136581 0.0192509 0)
(0.0238065 0.0174405 0)
(0.0321693 0.00810321 0)
(0.0332821 -0.00925814 0)
(0.0254863 -0.027546 0)
(0.0126045 -0.0430921 0)
(0.00740427 -0.0442903 0)
(0.0284739 0.0158266 0)
(0.0412678 0.0139009 0)
(0.0586279 0.00991564 0)
(0.073321 0.00872546 0)
(0.0859458 0.00743704 0)
(0.0943646 0.00323591 0)
(0.0937838 -0.00390167 0)
(0.0809322 -0.0118507 0)
(0.0567406 -0.0200082 0)
(0.0347544 -0.0224338 0)
)
;

boundaryField
{
    bottom_wall
    {
        type            calculated;
        value           uniform (0 0 0);
    }
    top_wall
    {
        type            calculated;
        value           uniform (0.1 0 0);
    }
    right_wall
    {
        type            calculated;
        value           uniform (0 0 0);
    }
    left_wall
    {
        type            calculated;
        value           uniform (0 0 0);
    }
    defaultFaces
    {
        type            empty;
    }
}


// ************************************************************************* //
