/*--------------------------------*- C++ -*----------------------------------*\
| =========                 |                                                 |
| \\      /  F ield         | OpenFOAM: The Open Source CFD Toolbox           |
|  \\    /   O peration     | Version:  2.3.0                                 |
|   \\  /    A nd           | Web:      www.OpenFOAM.org                      |
|    \\/     M anipulation  |                                                 |
\*---------------------------------------------------------------------------*/
FoamFile
{
    version     2.0;
    format      ascii;
    class       volVectorField;
    location    "0.0002";
    object      Ua;
}
// * * * * * * * * * * * * * * * * * * * * * * * * * * * * * * * * * * * * * //

dimensions      [0 1 -1 0 0 0 0];

internalField   nonuniform List<vector> 
100
(
(0.946895 0.264258 0)
(0.940941 0.276826 0)
(0.932849 0.293477 0)
(0.920516 0.318022 0)
(0.899909 0.357235 0)
(0.863314 0.42247 0)
(0.800878 0.522677 0)
(0.720757 0.630763 0)
(0.648406 0.715324 0)
(0.606588 0.761227 0)
(0.949714 0.258296 0)
(0.944473 0.269566 0)
(0.937291 0.284652 0)
(0.926098 0.307447 0)
(0.906779 0.345146 0)
(0.870587 0.41136 0)
(0.804529 0.519615 0)
(0.71744 0.636723 0)
(0.640121 0.725313 0)
(0.598257 0.770361 0)
(0.952172 0.253013 0)
(0.947562 0.263094 0)
(0.941196 0.276723 0)
(0.931084 0.297767 0)
(0.913104 0.333716 0)
(0.877593 0.400395 0)
(0.808139 0.516712 0)
(0.713994 0.642845 0)
(0.631753 0.73516 0)
(0.59052 0.77869 0)
(0.954144 0.248694 0)
(0.95013 0.2576 0)
(0.944548 0.269753 0)
(0.935528 0.288905 0)
(0.919014 0.322712 0)
(0.884518 0.389252 0)
(0.811835 0.513879 0)
(0.710338 0.64928 0)
(0.623083 0.745087 0)
(0.5833 0.786304 0)
(0.955289 0.246141 0)
(0.951739 0.254081 0)
(0.9468 0.264952 0)
(0.93874 0.282312 0)
(0.923634 0.313819 0)
(0.890345 0.379571 0)
(0.815089 0.51152 0)
(0.707051 0.655025 0)
(0.615442 0.753569 0)
(0.577785 0.791993 0)
(0.954151 0.248681 0)
(0.950135 0.257589 0)
(0.944553 0.269744 0)
(0.935532 0.288897 0)
(0.919018 0.322706 0)
(0.884521 0.389248 0)
(0.811836 0.513877 0)
(0.710336 0.649282 0)
(0.623079 0.745091 0)
(0.583295 0.786309 0)
(0.95221 0.252934 0)
(0.947597 0.263023 0)
(0.94123 0.276657 0)
(0.931117 0.297707 0)
(0.913135 0.333661 0)
(0.877621 0.400352 0)
(0.808153 0.5167 0)
(0.713981 0.642868 0)
(0.631718 0.735202 0)
(0.590475 0.778739 0)
(0.949914 0.257878 0)
(0.944684 0.269138 0)
(0.937517 0.28421 0)
(0.926341 0.306994 0)
(0.907038 0.344698 0)
(0.870834 0.410988 0)
(0.804651 0.519511 0)
(0.717334 0.636916 0)
(0.639834 0.725664 0)
(0.597916 0.77074 0)
(0.947325 0.263354 0)
(0.941474 0.275742 0)
(0.933507 0.292186 0)
(0.921321 0.316518 0)
(0.900866 0.355578 0)
(0.864288 0.421004 0)
(0.80136 0.522263 0)
(0.720336 0.631527 0)
(0.647321 0.716651 0)
(0.60542 0.762522 0)
(0.944388 0.269465 0)
(0.937849 0.283059 0)
(0.929008 0.300949 0)
(0.915779 0.326795 0)
(0.894248 0.366966 0)
(0.857559 0.431082 0)
(0.798037 0.525147 0)
(0.723182 0.626349 0)
(0.654688 0.707591 0)
(0.613399 0.753632 0)
)
;

boundaryField
{
    bottom_wall
    {
        type            calculated;
        value           uniform (0 0 0);
    }
    top_wall
    {
        type            calculated;
        value           uniform (0 0 0);
    }
    right_wall
    {
        type            calculated;
        value           uniform (0 0 0);
    }
    left_wall
    {
        type            calculated;
        value           uniform (0 0 0);
    }
    defaultFaces
    {
        type            empty;
    }
}


// ************************************************************************* //
