/*--------------------------------*- C++ -*----------------------------------*\
| =========                 |                                                 |
| \\      /  F ield         | OpenFOAM: The Open Source CFD Toolbox           |
|  \\    /   O peration     | Version:  2.3.0                                 |
|   \\  /    A nd           | Web:      www.OpenFOAM.org                      |
|    \\/     M anipulation  |                                                 |
\*---------------------------------------------------------------------------*/
FoamFile
{
    version     2.0;
    format      ascii;
    class       volVectorField;
    location    "0.0002";
    object      Ub;
}
// * * * * * * * * * * * * * * * * * * * * * * * * * * * * * * * * * * * * * //

dimensions      [0 1 -1 0 0 0 0];

internalField   nonuniform List<vector> 
100
(
(0.00026528 0.00136075 0)
(0.00125608 0.0039156 0)
(0.00164341 0.00447007 0)
(0.00153818 0.00403176 0)
(0.000889182 0.00295146 0)
(-0.000394012 0.000977527 0)
(-0.00207281 -0.00212241 0)
(-0.00292662 -0.00597675 0)
(-0.00206399 -0.00782428 0)
(-8.34425e-05 -0.00179383 0)
(1.26384e-05 -0.000959175 0)
(0.00243282 0.00070105 0)
(0.00458677 0.00110268 0)
(0.00683823 0.00114304 0)
(0.00852635 0.00140071 0)
(0.00864177 0.0015928 0)
(0.00675437 0.000759694 0)
(0.00363691 -0.00255665 0)
(0.00188538 -0.0055069 0)
(0.00193968 0.00250821 0)
(-0.000547265 -0.00264081 0)
(0.00315821 -0.00312618 0)
(0.00819582 -0.00378694 0)
(0.015499 -0.00421172 0)
(0.0241026 -0.00312521 0)
(0.0309409 0.000131732 0)
(0.0327278 0.00342265 0)
(0.0283966 0.00265685 0)
(0.0190707 0.000943961 0)
(0.00663366 0.011866 0)
(-0.00120111 -0.00386795 0)
(0.00239772 -0.00802327 0)
(0.00840183 -0.0116985 0)
(0.0185516 -0.0150477 0)
(0.0325784 -0.0149293 0)
(0.0469507 -0.00798716 0)
(0.0549729 0.0040814 0)
(0.0523254 0.011737 0)
(0.0381934 0.0179347 0)
(0.0103936 0.0340303 0)
(-0.00264198 -0.00322768 0)
(-0.00381977 -0.0110143 0)
(-0.00482573 -0.0177018 0)
(-0.00490774 -0.0240624 0)
(-0.00510065 -0.0264191 0)
(-0.00154657 -0.0198137 0)
(0.00464797 -0.00349754 0)
(0.0111152 0.0141901 0)
(0.0142376 0.0310397 0)
(0.00125283 0.0536102 0)
(-0.00434518 0.00223606 0)
(-0.0145336 -0.00460797 0)
(-0.0293542 -0.00927782 0)
(-0.0523964 -0.0109661 0)
(-0.084765 -0.00954925 0)
(-0.113221 -0.0087433 0)
(-0.118649 -0.00787909 0)
(-0.100329 -0.000996405 0)
(-0.0661015 0.0143677 0)
(-0.0299542 0.0347006 0)
(-0.00396464 0.0121486 0)
(-0.0174527 0.00982556 0)
(-0.0320715 0.00945943 0)
(-0.0483058 0.0142227 0)
(-0.0652714 0.019003 0)
(-0.0798758 0.0102939 0)
(-0.0859658 -0.0107185 0)
(-0.0789101 -0.0237223 0)
(-0.0558419 -0.0227362 0)
(-0.020941 -0.0110131 0)
(-0.00246368 0.0228149 0)
(-0.0135927 0.0229671 0)
(-0.02011 0.0208693 0)
(-0.0230235 0.0236678 0)
(-0.0219544 0.0254638 0)
(-0.0186212 0.0137461 0)
(-0.0173823 -0.0110023 0)
(-0.0192776 -0.03291 0)
(-0.016821 -0.044439 0)
(-0.00416843 -0.0402378 0)
(0.00150483 0.0281941 0)
(-0.000496736 0.0269353 0)
(0.00526086 0.0207642 0)
(0.0136685 0.0192544 0)
(0.0238309 0.0174497 0)
(0.0322122 0.00812197 0)
(0.033333 -0.00922876 0)
(0.0255323 -0.0275102 0)
(0.0126381 -0.0430581 0)
(0.00742706 -0.0442637 0)
(0.0284741 0.0158266 0)
(0.0412683 0.0139011 0)
(0.0586295 0.0099161 0)
(0.0733251 0.00872678 0)
(0.0859549 0.00744028 0)
(0.0943799 0.00324234 0)
(0.0938019 -0.00389166 0)
(0.0809487 -0.0118384 0)
(0.056753 -0.0199964 0)
(0.034763 -0.0224241 0)
)
;

boundaryField
{
    bottom_wall
    {
        type            fixedValue;
        value           uniform (0 0 0);
    }
    top_wall
    {
        type            fixedValue;
        value           uniform (0.1 0 0);
    }
    right_wall
    {
        type            fixedValue;
        value           uniform (0 0 0);
    }
    left_wall
    {
        type            fixedValue;
        value           uniform (0 0 0);
    }
    defaultFaces
    {
        type            empty;
    }
}


// ************************************************************************* //
