/*--------------------------------*- C++ -*----------------------------------*\
| =========                 |                                                 |
| \\      /  F ield         | OpenFOAM: The Open Source CFD Toolbox           |
|  \\    /   O peration     | Version:  2.3.0                                 |
|   \\  /    A nd           | Web:      www.OpenFOAM.org                      |
|    \\/     M anipulation  |                                                 |
\*---------------------------------------------------------------------------*/
FoamFile
{
    version     2.0;
    format      ascii;
    class       volVectorField;
    location    "0.0002";
    object      Uc;
}
// * * * * * * * * * * * * * * * * * * * * * * * * * * * * * * * * * * * * * //

dimensions      [0 1 -1 0 0 0 0];

internalField   nonuniform List<vector> 
100
(
(2.55408e-07 7.12789e-08 0)
(6.75799e-07 1.98821e-07 0)
(1.92637e-06 6.06041e-07 0)
(4.74256e-06 1.63847e-06 0)
(9.44536e-06 3.74951e-06 0)
(1.43185e-05 7.0069e-06 0)
(1.59712e-05 1.04233e-05 0)
(1.40033e-05 1.22548e-05 0)
(1.02167e-05 1.12711e-05 0)
(7.15283e-06 8.97632e-06 0)
(5.71354e-07 1.55393e-07 0)
(1.62563e-06 4.63978e-07 0)
(4.96089e-06 1.50661e-06 0)
(1.30257e-05 4.3243e-06 0)
(2.74362e-05 1.0443e-05 0)
(4.30484e-05 2.03408e-05 0)
(4.80264e-05 3.10184e-05 0)
(4.15433e-05 3.68693e-05 0)
(2.94578e-05 3.33782e-05 0)
(1.95576e-05 2.51839e-05 0)
(1.3301e-06 3.53437e-07 0)
(4.0569e-06 1.12641e-06 0)
(1.32237e-05 3.88792e-06 0)
(3.70112e-05 1.18365e-05 0)
(8.25354e-05 3.01646e-05 0)
(0.000134208 6.12314e-05 0)
(0.000149578 9.56377e-05 0)
(0.000127764 0.000115032 0)
(8.82767e-05 0.000102726 0)
(5.5429e-05 7.30916e-05 0)
(2.49152e-06 6.49406e-07 0)
(8.09478e-06 2.19466e-06 0)
(2.80836e-05 8.02037e-06 0)
(8.37635e-05 2.58674e-05 0)
(0.000198272 6.96234e-05 0)
(0.000335029 0.000147437 0)
(0.000372481 0.000235775 0)
(0.000314334 0.000287315 0)
(0.000212084 0.000253612 0)
(0.000125379 0.000169014 0)
(3.27106e-06 8.42824e-07 0)
(1.10913e-05 2.961e-06 0)
(4.02905e-05 1.12749e-05 0)
(0.000126507 3.80451e-05 0)
(0.000315595 0.000107228 0)
(0.000552608 0.000235587 0)
(0.000612161 0.000384169 0)
(0.000511517 0.000473879 0)
(0.000338947 0.000415018 0)
(0.000189602 0.000259895 0)
(2.49058e-06 6.49122e-07 0)
(8.09273e-06 2.194e-06 0)
(2.80787e-05 8.01868e-06 0)
(8.37534e-05 2.58635e-05 0)
(0.000198255 6.96155e-05 0)
(0.000335004 0.000147424 0)
(0.000372454 0.000235756 0)
(0.000314309 0.000287294 0)
(0.000212065 0.000253592 0)
(0.000125363 0.000168996 0)
(1.32602e-06 3.52229e-07 0)
(4.0476e-06 1.12349e-06 0)
(1.32006e-05 3.88008e-06 0)
(3.69612e-05 1.18176e-05 0)
(8.24457e-05 3.01258e-05 0)
(0.000134081 6.11646e-05 0)
(0.000149436 9.55431e-05 0)
(0.000127636 0.000114923 0)
(8.81773e-05 0.000102622 0)
(5.53524e-05 7.30007e-05 0)
(5.55573e-07 1.50824e-07 0)
(1.58771e-06 4.52333e-07 0)
(4.86209e-06 1.47395e-06 0)
(1.28019e-05 4.24263e-06 0)
(2.70208e-05 1.02686e-05 0)
(4.24451e-05 2.00319e-05 0)
(4.73547e-05 3.05739e-05 0)
(4.09431e-05 3.63532e-05 0)
(2.90019e-05 3.28923e-05 0)
(1.92171e-05 2.47717e-05 0)
(1.99453e-07 5.54475e-08 0)
(5.33313e-07 1.56199e-07 0)
(1.53495e-06 4.80438e-07 0)
(3.81237e-06 1.30973e-06 0)
(7.64911e-06 3.01916e-06 0)
(1.1647e-05 5.67338e-06 0)
(1.29929e-05 8.46772e-06 0)
(1.13709e-05 9.96899e-06 0)
(8.26325e-06 9.14827e-06 0)
(5.74548e-06 7.23639e-06 0)
(7.7107e-08 2.20012e-08 0)
(1.9247e-07 5.80907e-08 0)
(5.19739e-07 1.68367e-07 0)
(1.21741e-06 4.34433e-07 0)
(2.32431e-06 9.53812e-07 0)
(3.43434e-06 1.72639e-06 0)
(3.82733e-06 2.51857e-06 0)
(3.39297e-06 2.93866e-06 0)
(2.53458e-06 2.73939e-06 0)
(1.84508e-06 2.26689e-06 0)
)
;

boundaryField
{
    bottom_wall
    {
        type            calculated;
        value           uniform (0 0 0);
    }
    top_wall
    {
        type            calculated;
        value           uniform (0 0 0);
    }
    right_wall
    {
        type            calculated;
        value           uniform (0 0 0);
    }
    left_wall
    {
        type            calculated;
        value           uniform (0 0 0);
    }
    defaultFaces
    {
        type            empty;
    }
}


// ************************************************************************* //
