/*--------------------------------*- C++ -*----------------------------------*\
| =========                 |                                                 |
| \\      /  F ield         | OpenFOAM: The Open Source CFD Toolbox           |
|  \\    /   O peration     | Version:  2.3.0                                 |
|   \\  /    A nd           | Web:      www.OpenFOAM.org                      |
|    \\/     M anipulation  |                                                 |
\*---------------------------------------------------------------------------*/
FoamFile
{
    version     2.0;
    format      ascii;
    class       volVectorField;
    location    "0.0002";
    object      Ur;
}
// * * * * * * * * * * * * * * * * * * * * * * * * * * * * * * * * * * * * * //

dimensions      [0 1 -1 0 0 0 0];

internalField   nonuniform List<vector> 
100
(
(0.94663 0.262897 0)
(0.939685 0.27291 0)
(0.931206 0.289007 0)
(0.918978 0.31399 0)
(0.89902 0.354284 0)
(0.863708 0.421493 0)
(0.802951 0.5248 0)
(0.723684 0.63674 0)
(0.65047 0.723148 0)
(0.606672 0.763021 0)
(0.949701 0.259255 0)
(0.942041 0.268864 0)
(0.932704 0.283549 0)
(0.919259 0.306304 0)
(0.898252 0.343745 0)
(0.861945 0.409768 0)
(0.797775 0.518855 0)
(0.713803 0.63928 0)
(0.638236 0.730819 0)
(0.596317 0.767853 0)
(0.952719 0.255653 0)
(0.944404 0.26622 0)
(0.933001 0.28051 0)
(0.915585 0.301979 0)
(0.889001 0.336841 0)
(0.846652 0.400263 0)
(0.775411 0.513289 0)
(0.685597 0.640188 0)
(0.612682 0.734216 0)
(0.583886 0.766824 0)
(0.955345 0.252562 0)
(0.947732 0.265623 0)
(0.936146 0.281451 0)
(0.916977 0.303953 0)
(0.886436 0.337641 0)
(0.837567 0.39724 0)
(0.756862 0.509797 0)
(0.658012 0.637543 0)
(0.584889 0.727152 0)
(0.572907 0.752273 0)
(0.957931 0.249368 0)
(0.955558 0.265096 0)
(0.951625 0.282654 0)
(0.943647 0.306374 0)
(0.928734 0.340238 0)
(0.891891 0.399384 0)
(0.810441 0.515017 0)
(0.695936 0.640835 0)
(0.601204 0.722529 0)
(0.576532 0.738383 0)
(0.958496 0.246445 0)
(0.964669 0.262197 0)
(0.973907 0.279022 0)
(0.987929 0.299864 0)
(1.00378 0.332255 0)
(0.997742 0.397991 0)
(0.930485 0.521756 0)
(0.810666 0.650279 0)
(0.68918 0.730724 0)
(0.613249 0.751609 0)
(0.956174 0.240785 0)
(0.96505 0.253198 0)
(0.973301 0.267198 0)
(0.979422 0.283484 0)
(0.978407 0.314658 0)
(0.957497 0.390058 0)
(0.894119 0.527419 0)
(0.792891 0.66659 0)
(0.68756 0.757938 0)
(0.611416 0.789752 0)
(0.952378 0.235063 0)
(0.958277 0.246171 0)
(0.957627 0.263341 0)
(0.949364 0.283326 0)
(0.928992 0.319234 0)
(0.889455 0.397242 0)
(0.822033 0.530513 0)
(0.736611 0.669826 0)
(0.656655 0.770103 0)
(0.602084 0.810978 0)
(0.94582 0.23516 0)
(0.941971 0.248807 0)
(0.928246 0.271422 0)
(0.907652 0.297264 0)
(0.877035 0.338129 0)
(0.832075 0.412882 0)
(0.768027 0.531492 0)
(0.694803 0.659038 0)
(0.634683 0.759709 0)
(0.597993 0.806786 0)
(0.915914 0.253639 0)
(0.896581 0.269158 0)
(0.870379 0.291032 0)
(0.842454 0.318068 0)
(0.808293 0.359526 0)
(0.763179 0.427839 0)
(0.704235 0.529039 0)
(0.642233 0.638188 0)
(0.597935 0.727587 0)
(0.578636 0.776056 0)
)
;

boundaryField
{
    bottom_wall
    {
        type            calculated;
        value           uniform (0 0 0);
    }
    top_wall
    {
        type            calculated;
        value           uniform (-0.1 0 0);
    }
    right_wall
    {
        type            calculated;
        value           uniform (0 0 0);
    }
    left_wall
    {
        type            calculated;
        value           uniform (0 0 0);
    }
    defaultFaces
    {
        type            empty;
    }
}


// ************************************************************************* //
