LAMMPS (5 Nov 2016)
# NUFEB simulation

atom_style	bio
atom_modify	map array sort 1000 5.0e-7
boundary	ff ff ff
newton		off
#processors  2 1 1

comm_modify	vel yes
read_data_bio atom.in
  orthogonal box = (0 0 0) to (0.0001 0.0001 0.0001)
  1 by 1 by 1 MPI processor grid
  reading atoms ...
  3 atoms
  10 nutrients

group AOB type 1
1 atoms in group AOB
group NOB type 2
1 atoms in group NOB
group COMM type 3
1 atoms in group COMM

neighbor	5.0e-7 bin
neigh_modify	delay 0 one 5000

#pair_style none
pair_style  gran/hooke/history 0.000200 NULL 0.000050 NULL 0.0 1

pair_coeff  * *
timestep 36

fix 1 all nve/limit 1e-8

#fix	 2 all gravity 1.47 vector 0 0 -1 # spherical 90.0 -180.0
#fix     3 all fdrag
fix 10 all viscous 0.1


fix xw all wall/gran hooke/history 2000 NULL 500.0 NULL 1.5 0 xplane  0.0   1.0e-04
fix yw all wall/gran hooke/history 2000 NULL 500.0 NULL 1.5 0 yplane  0.0   1.0e-04
fix zw all wall/gran hooke/history 2000 NULL 500.0 NULL 1.5 0 zplane  0.0   1.0e-04

variable kanc equal 50

fix xwa all walladh v_kanc xplane  0.0   1.0e-04
fix ywa all walladh v_kanc yplane  0.0   1.0e-04
fix zwa all walladh v_kanc zplane  0.0   1.0e-04

##############Ibm Variable Definitions##############

#Defining EPS density and ratio variables
variable EPSdens equal 30
variable EPSratio equal 1.25

variable ke equal 5e+10

#Defining kinetics variables
variable temp equal 298.15
variable gasTran equal 0.08205746
variable gvol equal 8e-14
variable rth equal 0.0083144
variable pressure equal 1
variable ph equal 7.0

#Defining diffusion variables
variable diffT equal 1e-6
variable tol equal 1e-8

##############Ibm functions##############

fix k1 all kinetics 25 25 25 v_temp v_rth v_gvol v_gasTran v_ph
fix g1 all diffusion exp v_diffT v_tol pp pp nd
#fix ki3 all kinetics/ph 1
fix ki2 all kinetics/thermo 1 fix open v_pressure
fix ki1 all kinetics/monod 1 v_EPSdens
fix d1 all divide 1 v_EPSdens 1 31231

#fix j1 all epsadh 1 v_ke 1
#fix e1 HET eps_extract 16 v_EPSratio v_EPSdens 1242242

##############Ibm compute##############

compute myMass all biomass
compute myNtypes all ntypes

##############Simulation outputs##############

#dump		id all custom 250 snapshot.bubblemd id type diameter x y z
dump            d0 all bio 500 biomass
thermo_style    custom step cpu atoms biomass c_myNtypes[*] c_myMass[2]
thermo		5
thermo_modify	lost ignore

run  5000
Neighbor list info ...
  2 neighbor list requests
  update every 1 steps, delay 0 steps, check yes
  max neighbors/atom: 5000, page size: 100000
  master list distance cutoff = 1.466e-06
  ghost atom cutoff = 1.466e-06
  binsize = 7.33e-07 -> bins = 137 137 137
Memory usage per processor = 18.9946 Mbytes
Step CPU Atoms biomass c_myNtypes[1] c_myNtypes[2] c_myNtypes[3] c_myMass[2] 
       0            0        3 4.1062866e-16            1            1            1 1.3687622e-16 
       5    1.6594281        3 4.1151573e-16            1            1            1 1.3680774e-16 
      10       1.7911        3 4.1240617e-16            1            1            1 1.3673929e-16 
      15     1.922708        3    4.133e-16            1            1            1 1.3667088e-16 
      20    2.0577559        3 4.1419722e-16            1            1            1 1.3660251e-16 
      25     2.189285        3 4.1509785e-16            1            1            1 1.3653417e-16 
      30     2.318769        3 4.1600189e-16            1            1            1 1.3646586e-16 
      35     2.446214        3 4.1690936e-16            1            1            1 1.3639758e-16 
      40     2.576931        3 4.1782028e-16            1            1            1 1.3632934e-16 
      45    2.7064981        3 4.1873465e-16            1            1            1 1.3626114e-16 
      50     2.835706        3 4.1965249e-16            1            1            1 1.3619297e-16 
      55    2.9641461        3 4.205738e-16            1            1            1 1.3612483e-16 
      60    3.0924401        3 4.214986e-16            1            1            1 1.3605673e-16 
      65    3.2183051        3 4.224269e-16            1            1            1 1.3598866e-16 
      70     3.348752        3 4.2335872e-16            1            1            1 1.3592062e-16 
      75    3.4769599        3 4.2429406e-16            1            1            1 1.3585262e-16 
      80     3.603025        3 4.2523294e-16            1            1            1 1.3578465e-16 
      85    3.7295971        3 4.2617537e-16            1            1            1 1.3571672e-16 
      90      3.85533        3 4.2712137e-16            1            1            1 1.3564882e-16 
      95    3.9811502        3 4.2807094e-16            1            1            1 1.3558096e-16 
     100    4.1072111        3 4.2902409e-16            1            1            1 1.3551313e-16 
     105    4.2320311        3 4.2998084e-16            1            1            1 1.3544533e-16 
     110    4.3593249        3 4.3094121e-16            1            1            1 1.3537757e-16 
     115    4.4876301        3 4.319052e-16            1            1            1 1.3530984e-16 
     120    4.6160431        3 4.3287283e-16            1            1            1 1.3524214e-16 
     125    4.7406731        3 4.3384411e-16            1            1            1 1.3517448e-16 
     130    4.8655431        3 4.3481905e-16            1            1            1 1.3510685e-16 
     135    4.9890599        3 4.3579766e-16            1            1            1 1.3503926e-16 
     140    5.1136811        3 4.3677996e-16            1            1            1 1.349717e-16 
     145     5.241502        3 4.3776596e-16            1            1            1 1.3490417e-16 
     150      5.36746        4 4.3875568e-16            2            1            1 1.3483668e-16 
     155     5.491729        5 4.3974912e-16            2            1            2 1.3476922e-16 
     160    5.6175261        5 4.407463e-16            2            1            2 1.3470179e-16 
     165    5.7421291        5 4.4174723e-16            2            1            2 1.346344e-16 
     170     5.867342        5 4.4275192e-16            2            1            2 1.3456705e-16 
     175    5.9926271        5 4.437604e-16            2            1            2 1.3449972e-16 
     180    6.1191101        5 4.4477266e-16            2            1            2 1.3443243e-16 
     185     6.245441        5 4.4578873e-16            2            1            2 1.3436517e-16 
     190    6.3720331        5 4.4680861e-16            2            1            2 1.3429795e-16 
     195    6.4967401        5 4.4783233e-16            2            1            2 1.3423076e-16 
     200    6.6210291        5 4.4885989e-16            2            1            2 1.3416361e-16 
     205     6.745784        5 4.498913e-16            2            1            2 1.3409649e-16 
     210    6.8740339        5 4.5092659e-16            2            1            2 1.340294e-16 
     215     6.998214        5 4.5196576e-16            2            1            2 1.3396234e-16 
     220    7.1242139        5 4.5300882e-16            2            1            2 1.3389532e-16 
     225    7.2498951        5 4.540558e-16            2            1            2 1.3382833e-16 
     230    7.3769381        5 4.551067e-16            2            1            2 1.3376138e-16 
     235    7.5020981        5 4.5616154e-16            2            1            2 1.3369446e-16 
     240    7.6272061        5 4.5722032e-16            2            1            2 1.3362757e-16 
     245     7.754632        5 4.5828308e-16            2            1            2 1.3356072e-16 
     250     7.883719        5 4.5934981e-16            2            1            2 1.334939e-16 
     255    8.0103371        5 4.6042053e-16            2            1            2 1.3342711e-16 
     260    8.1465411        5 4.6149526e-16            2            1            2 1.3336036e-16 
     265    8.2764401        5 4.6257401e-16            2            1            2 1.3329364e-16 
     270     8.406353        5 4.636568e-16            2            1            2 1.3322695e-16 
     275     8.531194        5 4.6474363e-16            2            1            2 1.3316029e-16 
     280    8.6571431        5 4.6583452e-16            2            1            2 1.3309367e-16 
     285     8.785419        5 4.6692949e-16            2            1            2 1.3302709e-16 
     290    8.9323061        5 4.6802855e-16            2            1            2 1.3296053e-16 
     295     9.077775        5 4.6913171e-16            2            1            2 1.3289401e-16 
     300     9.203815        5  4.70239e-16            2            1            2 1.3282753e-16 
     305     9.333504        5 4.7135041e-16            2            1            2 1.3276107e-16 
     310    9.4597611        5 4.7246597e-16            2            1            2 1.3269465e-16 
     315    9.5853071        5 4.7358569e-16            2            1            2 1.3262827e-16 
     320    9.7136841        5 4.7470959e-16            2            1            2 1.3256191e-16 
     325      9.84045        5 4.7583768e-16            2            1            2 1.3249559e-16 
     330    9.9697361        5 4.7696997e-16            2            1            2 1.324293e-16 
     335    10.101977        5 4.7810649e-16            2            1            2 1.3236305e-16 
     340    10.233597        5 4.7924723e-16            2            1            2 1.3229683e-16 
     345    10.367513        5 4.8039223e-16            2            1            2 1.3223064e-16 
     350    10.501172        5 4.8154148e-16            2            1            2 1.3216449e-16 
     355    10.632621        5 4.8269502e-16            2            1            2 1.3209836e-16 
     360    10.758469        5 4.8385285e-16            2            1            2 1.3203228e-16 
     365    10.884298        5 4.8501498e-16            2            1            2 1.3196622e-16 
     370    11.012251        5 4.8618144e-16            2            1            2 1.319002e-16 
     375    11.140628        5 4.8735224e-16            2            1            2 1.3183421e-16 
     380    11.268288        5 4.8852739e-16            2            1            2 1.3176825e-16 
     385    11.395652        5 4.897069e-16            2            1            2 1.3170233e-16 
     390    11.523342        5 4.908908e-16            2            1            2 1.3163644e-16 
     395    11.651386        5 4.920791e-16            2            1            2 1.3157058e-16 
     400    11.779612        5 4.9327181e-16            2            1            2 1.3150475e-16 
     405    11.908072        5 4.9446895e-16            2            1            2 1.3143896e-16 
     410    12.034743        5 4.9567053e-16            2            1            2 1.313732e-16 
     415    12.163936        5 4.9687657e-16            2            1            2 1.3130748e-16 
     420    12.292627        5 4.9808709e-16            2            1            2 1.3124178e-16 
     425     12.42178        5 4.9930209e-16            2            1            2 1.3117612e-16 
     430     12.55079        5 5.0052161e-16            2            1            2 1.311105e-16 
     435    12.681999        5 5.0174564e-16            2            1            2 1.310449e-16 
     440    12.815157        5 5.0297421e-16            2            1            2 1.3097934e-16 
     445    12.947341        5 5.0420733e-16            2            1            2 1.3091381e-16 
     450    13.081818        5 5.0544502e-16            2            1            2 1.3084831e-16 
     455    13.229637        5 5.066873e-16            2            1            2 1.3078285e-16 
     460    13.381005        5 5.0793418e-16            2            1            2 1.3071742e-16 
     465     13.52996        5 5.0918567e-16            2            1            2 1.3065202e-16 
     470    13.679383        5 5.1044179e-16            2            1            2 1.3058666e-16 
     475    13.822945        5 5.1170256e-16            2            1            2 1.3052133e-16 
     480    13.987136        5  5.12968e-16            2            1            2 1.3045603e-16 
     485    14.152093        5 5.1423812e-16            2            1            2 1.3039076e-16 
     490    14.307222        5 5.1551293e-16            2            1            2 1.3032552e-16 
     495    14.468562        5 5.1679246e-16            2            1            2 1.3026032e-16 
     500    14.627194        5 5.1807672e-16            2            1            2 1.3019515e-16 
     505    14.780171        5 5.1936572e-16            2            1            2 1.3013002e-16 
     510    14.936102        5 5.2065948e-16            2            1            2 1.3006491e-16 
     515    15.094871        5 5.2195802e-16            2            1            2 1.2999984e-16 
     520    15.245637        5 5.2326136e-16            2            1            2 1.299348e-16 
     525    15.404459        5 5.2456951e-16            2            1            2 1.298698e-16 
     530    15.560934        5 5.2588249e-16            2            1            2 1.2980482e-16 
     535    15.724422        5 5.2720031e-16            2            1            2 1.2973988e-16 
     540    15.867353        5  5.28523e-16            2            1            2 1.2967497e-16 
     545    16.009855        5 5.2985056e-16            2            1            2 1.296101e-16 
     550    16.153092        5 5.3118303e-16            2            1            2 1.2954525e-16 
     555    16.300307        5 5.325204e-16            2            1            2 1.2948044e-16 
     560    16.444685        5 5.338627e-16            2            1            2 1.2941566e-16 
     565    16.591443        5 5.3520995e-16            2            1            2 1.2935091e-16 
     570    16.736745        5 5.3656217e-16            2            1            2 1.292862e-16 
     575    16.883087        5 5.3791936e-16            2            1            2 1.2922152e-16 
     580    17.024315        5 5.3928156e-16            2            1            2 1.2915687e-16 
     585    17.168285        5 5.4064877e-16            2            1            2 1.2909225e-16 
     590    17.313968        5 5.4202101e-16            2            1            2 1.2902767e-16 
     595    17.462678        5 5.4339831e-16            2            1            2 1.2896311e-16 
     600     17.60654        5 5.4478067e-16            2            1            2 1.2889859e-16 
     605    17.753873        5 5.4616812e-16            2            1            2 1.2883411e-16 
     610    17.904963        5 5.4756067e-16            2            1            2 1.2876965e-16 
     615    18.049877        5 5.4895834e-16            2            1            2 1.2870523e-16 
     620    18.201237        5 5.5036116e-16            2            1            2 1.2864084e-16 
     625    18.351071        5 5.5176913e-16            2            1            2 1.2857648e-16 
     630    18.493634        5 5.5318227e-16            2            1            2 1.2851215e-16 
     635    18.633154        5 5.5460061e-16            2            1            2 1.2844786e-16 
     640    18.775877        5 5.5602416e-16            2            1            2 1.2838359e-16 
     645     18.91879        5 5.5745293e-16            2            1            2 1.2831936e-16 
     650    19.063889        5 5.5888696e-16            2            1            2 1.2825516e-16 
     655    19.208113        5 5.6032624e-16            2            1            2  1.28191e-16 
     660    19.355556        5 5.6177082e-16            2            1            2 1.2812686e-16 
     665    19.502883        5 5.6322069e-16            2            1            2 1.2806276e-16 
     670    19.649448        5 5.6467588e-16            2            1            2 1.2799869e-16 
     675    19.790812        5 5.6613642e-16            2            1            2 1.2793465e-16 
     680    19.935084        5 5.6760231e-16            2            1            2 1.2787065e-16 
     685     20.08506        5 5.6907357e-16            2            1            2 1.2780668e-16 
     690    20.228868        5 5.7055023e-16            2            1            2 1.2774273e-16 
     695    20.375194        5 5.7203231e-16            2            1            2 1.2767882e-16 
     700    20.522528        5 5.7351981e-16            2            1            2 1.2761495e-16 
     705    20.679071        5 5.7501277e-16            2            1            2 1.275511e-16 
     710    20.825329        5 5.7651119e-16            2            1            2 1.2748729e-16 
     715    20.969946        5 5.7801511e-16            2            1            2 1.2742351e-16 
     720    21.113448        5 5.7952453e-16            2            1            2 1.2735976e-16 
     725    21.262326        5 5.8103948e-16            2            1            2 1.2729604e-16 
     730    21.410392        5 5.8255997e-16            2            1            2 1.2723235e-16 
     735     21.55779        5 5.8408603e-16            2            1            2 1.271687e-16 
     740    21.706952        5 5.8561768e-16            2            1            2 1.2710507e-16 
     745    21.851583        5 5.8715492e-16            2            1            2 1.2704148e-16 
     750    22.002481        5 5.886978e-16            2            1            2 1.2697792e-16 
     755    22.154189        5 5.9024631e-16            2            1            2 1.269144e-16 
     760    22.303086        5 5.9180049e-16            2            1            2 1.268509e-16 
     765    22.454903        5 5.9336035e-16            2            1            2 1.2678744e-16 
     770    22.607506        5 5.9492591e-16            2            1            2 1.2672401e-16 
     775    22.764152        5 5.9649719e-16            2            1            2 1.2666061e-16 
     780    22.928237        5 5.9807422e-16            2            1            2 1.2659724e-16 
     785    23.097585        5 5.9965701e-16            2            1            2 1.265339e-16 
     790    23.270886        5 6.0124557e-16            2            1            2 1.264706e-16 
     795    23.455536        5 6.0283994e-16            2            1            2 1.2640732e-16 
     800    23.641993        5 6.0444014e-16            2            1            2 1.2634408e-16 
     805    23.827726        5 6.0604617e-16            2            1            2 1.2628087e-16 
     810    23.998728        5 6.0765806e-16            2            1            2 1.2621769e-16 
     815    24.175687        5 6.0927584e-16            2            1            2 1.2615455e-16 
     820    24.347784        5 6.1089952e-16            2            1            2 1.2609143e-16 
     825    24.554763        5 6.1252913e-16            2            1            2 1.2602835e-16 
     830    24.759543        5 6.1416468e-16            2            1            2 1.259653e-16 
     835    24.953727        5 6.1580619e-16            2            1            2 1.2590228e-16 
     840    25.132098        5 6.1745369e-16            2            1            2 1.2583929e-16 
     845     25.31868        5 6.191072e-16            2            1            2 1.2577633e-16 
     850    25.509877        5 6.2076673e-16            2            1            2 1.257134e-16 
     855    25.696273        5 6.2243231e-16            2            1            2 1.2565051e-16 
     860    25.888158        5 6.2410396e-16            2            1            2 1.2558765e-16 
     865    26.075519        5 6.257817e-16            2            1            2 1.2552482e-16 
     870    26.266711        5 6.2746556e-16            2            1            2 1.2546202e-16 
     875    26.475147        5 6.2915554e-16            2            1            2 1.2539925e-16 
     880    26.662532        5 6.3085168e-16            2            1            2 1.2533651e-16 
     885    26.848891        5 6.3255399e-16            2            1            2 1.252738e-16 
     890     27.03086        5 6.342625e-16            2            1            2 1.2521113e-16 
     895    27.230891        5 6.3597723e-16            2            1            2 1.2514849e-16 
     900    27.434547        5 6.376982e-16            2            1            2 1.2508587e-16 
     905    27.626228        5 6.3942543e-16            2            1            2 1.2502329e-16 
     910      27.8045        5 6.4115894e-16            2            1            2 1.2496075e-16 
     915     27.97078        5 6.4289876e-16            2            1            2 1.2489823e-16 
     920    28.141595        5 6.4464491e-16            2            1            2 1.2483574e-16 
     925    28.333548        5 6.463974e-16            2            1            2 1.2477329e-16 
     930    28.517497        5 6.4815627e-16            2            1            2 1.2471086e-16 
     935    28.702594        5 6.4992152e-16            2            1            2 1.2464847e-16 
     940    28.896516        5 6.516932e-16            2            1            2 1.2458611e-16 
     945    29.081117        5 6.5347131e-16            2            1            2 1.2452378e-16 
     950    29.274056        5 6.5525588e-16            2            1            2 1.2446148e-16 
     955    29.456408        6 6.5704694e-16            2            1            3 1.2439921e-16 
     960    29.633818        6 6.588445e-16            2            1            3 1.2433697e-16 
     965    29.815354        6 6.6064858e-16            2            1            3 1.2427477e-16 
     970    29.990264        6 6.6245922e-16            2            1            3 1.2421259e-16 
     975    30.165596        6 6.6427643e-16            2            1            3 1.2415045e-16 
     980    30.356676        6 6.6610024e-16            2            1            3 1.2408834e-16 
     985    30.532662        6 6.6793066e-16            2            1            3 1.2402625e-16 
     990    30.705598        7 6.6976773e-16            3            1            3 1.239642e-16 
     995     30.87884        7 6.7161147e-16            3            1            3 1.2390218e-16 
    1000    31.069314        7 6.7346189e-16            3            1            3 1.238402e-16 
    1005    31.263627        7 6.7531902e-16            3            1            3 1.2377824e-16 
    1010    31.471211        7 6.7718289e-16            3            1            3 1.2371631e-16 
    1015    31.719391        7 6.7905351e-16            3            1            3 1.2365442e-16 
    1020    31.961818        7 6.8093092e-16            3            1            3 1.2359255e-16 
    1025    32.182886        7 6.8281513e-16            3            1            3 1.2353072e-16 
    1030    32.419688        7 6.8470617e-16            3            1            3 1.2346892e-16 
    1035    32.702795        7 6.8660407e-16            3            1            3 1.2340715e-16 
    1040    32.953969        7 6.8850884e-16            3            1            3 1.2334541e-16 
    1045     33.21131        7 6.9042051e-16            3            1            3 1.232837e-16 
    1050    33.506888        7 6.923391e-16            3            1            3 1.2322202e-16 
    1055    33.817543        7 6.9426464e-16            3            1            3 1.2316037e-16 
    1060     34.10555        7 6.9619716e-16            3            1            3 1.2309875e-16 
    1065     34.36553        7 6.9813667e-16            3            1            3 1.2303717e-16 
    1070    34.604973        7 7.0008321e-16            3            1            3 1.2297561e-16 
    1075    34.885063        7 7.0203679e-16            3            1            3 1.2291409e-16 
    1080    35.138157        7 7.0399744e-16            3            1            3 1.2285259e-16 
    1085    35.442637        7 7.0596518e-16            3            1            3 1.2279113e-16 
    1090    35.735064        7 7.0794005e-16            3            1            3 1.227297e-16 
    1095    35.998471        7 7.0992205e-16            3            1            3 1.2266829e-16 
    1100    36.290206        7 7.1191123e-16            3            1            3 1.2260692e-16 
    1105    36.645381        7 7.139076e-16            3            1            3 1.2254558e-16 
    1110     36.98568        7 7.1591119e-16            3            1            3 1.2248427e-16 
    1115    37.333752        7 7.1792202e-16            3            1            3  1.22423e-16 
    1120    37.683835        7 7.1994013e-16            3            1            3 1.2236175e-16 
    1125    38.016832        7 7.2196552e-16            3            1            3 1.2230053e-16 
    1130    38.321634        7 7.2399824e-16            3            1            3 1.2223934e-16 
    1135    38.623577        7 7.260383e-16            3            1            3 1.2217819e-16 
    1140    38.931299        7 7.2808574e-16            3            1            3 1.2211706e-16 
    1145    39.229381        7 7.3014057e-16            3            1            3 1.2205597e-16 
    1150    39.543307        7 7.3220282e-16            3            1            3 1.219949e-16 
    1155    39.861083        7 7.3427252e-16            3            1            3 1.2193387e-16 
    1160    40.137135        7 7.3634969e-16            3            1            3 1.2187286e-16 
    1165    40.402551        7 7.3843437e-16            3            1            3 1.2181189e-16 
    1170    40.619802        7 7.4052657e-16            3            1            3 1.2175095e-16 
    1175    40.873128        7 7.4262632e-16            3            1            3 1.2169004e-16 
    1180    41.128875        7 7.4473365e-16            3            1            3 1.2162915e-16 
    1185     41.37781        7 7.4684859e-16            3            1            3 1.215683e-16 
    1190    41.613253        7 7.4897115e-16            3            1            3 1.2150748e-16 
    1195     41.87129        7 7.5110138e-16            3            1            3 1.2144669e-16 
    1200    42.104992        7 7.5323929e-16            3            1            3 1.2138593e-16 
    1205    42.352757        7 7.5538491e-16            3            1            3 1.213252e-16 
    1210    42.606446        7 7.5753827e-16            3            1            3 1.212645e-16 
    1215    42.863945        7 7.5969939e-16            3            1            3 1.2120384e-16 
    1220    43.104457        7 7.618683e-16            3            1            3 1.211432e-16 
    1225    43.367925        7 7.6404504e-16            3            1            3 1.2108259e-16 
    1230    43.636152        7 7.6622962e-16            3            1            3 1.2102201e-16 
    1235    43.877399        7 7.6842207e-16            3            1            3 1.2096147e-16 
    1240    44.098807        7 7.7062243e-16            3            1            3 1.2090095e-16 
    1245    44.339799        7 7.7283071e-16            3            1            3 1.2084046e-16 
    1250    44.609433        7 7.7504695e-16            3            1            3 1.2078001e-16 
    1255    44.834403        7 7.7727118e-16            3            1            3 1.2071958e-16 
    1260     45.06274        7 7.7950341e-16            3            1            3 1.2065918e-16 
    1265     45.30634        7 7.8174369e-16            3            1            3 1.2059882e-16 
    1270    45.544669        7 7.8399203e-16            3            1            3 1.2053848e-16 
    1275    45.765633        8 7.8624847e-16            4            1            3 1.2047818e-16 
    1280    45.996713        8 7.8851303e-16            4            1            3 1.204179e-16 
    1285    46.234798        8 7.9078574e-16            4            1            3 1.2035766e-16 
    1290    46.519311        8 7.9306664e-16            4            1            3 1.2029744e-16 
    1295    46.757754        8 7.9535574e-16            4            1            3 1.2023726e-16 
    1300    47.014086        8 7.9765308e-16            4            1            3 1.201771e-16 
    1305    47.262322        8 7.9995868e-16            4            1            3 1.2011698e-16 
    1310    47.499236        8 8.0227258e-16            4            1            3 1.2005688e-16 
    1315    47.743037        8 8.0459481e-16            4            1            3 1.1999682e-16 
    1320    47.978807        8 8.0692539e-16            4            1            3 1.1993678e-16 
    1325    48.205978        8 8.0926434e-16            4            1            3 1.1987678e-16 
    1330       48.479        8 8.1161171e-16            4            1            3 1.1981681e-16 
    1335    48.703146        8 8.1396752e-16            4            1            3 1.1975686e-16 
    1340    48.957693        8 8.163318e-16            4            1            3 1.1969695e-16 
    1345     49.22485        8 8.1870458e-16            4            1            3 1.1963706e-16 
    1350    49.472954        8 8.2108589e-16            4            1            3 1.1957721e-16 
    1355    49.723575        8 8.2347575e-16            4            1            3 1.1951738e-16 
    1360    49.963071        8 8.258742e-16            4            1            3 1.1945759e-16 
    1365    50.234531        8 8.2828127e-16            4            1            3 1.1939782e-16 
    1370    50.512667        8 8.3069699e-16            4            1            3 1.1933809e-16 
    1375    50.752697        8 8.3312139e-16            4            1            3 1.1927839e-16 
    1380    51.052095        8 8.355545e-16            4            1            3 1.1921871e-16 
    1385    51.330543        8 8.3799634e-16            4            1            3 1.1915907e-16 
    1390    51.561466        8 8.4044695e-16            4            1            3 1.1909945e-16 
    1395    51.813227        8 8.4290636e-16            4            1            3 1.1903986e-16 
    1400    52.061902        8 8.4537461e-16            4            1            3 1.1898031e-16 
    1405    52.336648        8 8.4785171e-16            4            1            3 1.1892078e-16 
    1410    52.666945        8 8.5033771e-16            4            1            3 1.1886129e-16 
    1415    53.007016        8 8.5283262e-16            4            1            3 1.1880182e-16 
    1420     53.36492        8 8.5533649e-16            4            1            3 1.1874238e-16 
    1425    53.736275        8 8.5784935e-16            4            1            3 1.1868298e-16 
    1430    54.059995        9 8.6037122e-16            4            1            4 1.186236e-16 
    1435     54.38503        9 8.6290214e-16            4            1            4 1.1856425e-16 
    1440    54.709356        9 8.6544214e-16            4            1            4 1.1850494e-16 
    1445    55.052958        9 8.6799125e-16            4            1            4 1.1844565e-16 
    1450    55.409578        9 8.7054951e-16            4            1            4 1.1838639e-16 
    1455    55.730796        9 8.7311693e-16            4            1            4 1.1832716e-16 
    1460    56.078306        9 8.7569357e-16            4            1            4 1.1826796e-16 
    1465    56.428843        9 8.7827944e-16            4            1            4 1.1820879e-16 
    1470     56.67002        9 8.8087458e-16            4            1            4 1.1814965e-16 
    1475    56.944622        9 8.8347903e-16            4            1            4 1.1809054e-16 
    1480    57.203611        9 8.8609281e-16            4            1            4 1.1803146e-16 
    1485    57.478769        9 8.8871595e-16            4            1            4 1.1797241e-16 
    1490    57.775194        9 8.913485e-16            4            1            4 1.1791339e-16 
    1495     58.07525        9 8.9399048e-16            4            1            4 1.178544e-16 
    1500    58.345293        9 8.9664193e-16            4            1            4 1.1779544e-16 
    1505    58.633382        9 8.9930288e-16            4            1            4 1.177365e-16 
    1510    58.918611        9 9.0197335e-16            4            1            4 1.176776e-16 
    1515    59.255076        9 9.046534e-16            4            1            4 1.1761872e-16 
    1520    59.610856        9 9.0734304e-16            4            1            4 1.1755988e-16 
    1525    59.967732        9 9.1004231e-16            4            1            4 1.1750107e-16 
    1530    60.313867        9 9.1275125e-16            4            1            4 1.1744228e-16 
    1535    60.676002        9 9.1546989e-16            4            1            4 1.1738352e-16 
    1540    61.037567        9 9.1819826e-16            4            1            4 1.173248e-16 
    1545    61.427301        9 9.209364e-16            4            1            4 1.172661e-16 
    1550    61.810674        9 9.2368434e-16            4            1            4 1.1720743e-16 
    1555    62.132967        9 9.2644211e-16            4            1            4 1.1714879e-16 
    1560    62.458764        9 9.2920975e-16            4            1            4 1.1709018e-16 
    1565    62.807221        9 9.319873e-16            4            1            4 1.170316e-16 
    1570     63.10175        9 9.3477478e-16            4            1            4 1.1697305e-16 
    1575     63.39374        9 9.3757224e-16            4            1            4 1.1691453e-16 
    1580    63.707057        9 9.403797e-16            4            1            4 1.1685604e-16 
    1585     64.02471        9 9.4319721e-16            4            1            4 1.1679757e-16 
    1590    64.270535        9 9.4602479e-16            4            1            4 1.1673914e-16 
    1595    64.569656        9 9.4886249e-16            4            1            4 1.1668074e-16 
    1600    64.854109        9 9.5171033e-16            4            1            4 1.1662236e-16 
    1605    65.144297        9 9.5456836e-16            4            1            4 1.1656402e-16 
    1610    65.440088        9 9.574366e-16            4            1            4 1.165057e-16 
    1615    65.736281        9 9.603151e-16            4            1            4 1.1644741e-16 
    1620    66.039307        9 9.6320389e-16            4            1            4 1.1638915e-16 
    1625    66.309995        9 9.6610301e-16            4            1            4 1.1633092e-16 
    1630    66.625454        9 9.6901248e-16            4            1            4 1.1627272e-16 
    1635     66.91689        9 9.7193235e-16            4            1            4 1.1621455e-16 
    1640    67.230192        9 9.7486266e-16            4            1            4 1.1615641e-16 
    1645    67.539084        9 9.7780344e-16            4            1            4 1.160983e-16 
    1650    67.819112        9 9.8075472e-16            4            1            4 1.1604021e-16 
    1655    68.103209        9 9.8371655e-16            4            1            4 1.1598216e-16 
    1660    68.365166        9 9.8668896e-16            4            1            4 1.1592413e-16 
    1665    68.656479        9 9.8967198e-16            4            1            4 1.1586614e-16 
    1670    68.924915        9 9.9266566e-16            4            1            4 1.1580817e-16 
    1675    69.266856        9 9.9567003e-16            4            1            4 1.1575023e-16 
    1680     69.55648        9 9.9868513e-16            4            1            4 1.1569232e-16 
    1685    69.792907        9 1.001711e-15            4            1            4 1.1563444e-16 
    1690    70.086432        9 1.0047477e-15            4            1            4 1.1557659e-16 
    1695    70.331462        9 1.0077952e-15            4            1            4 1.1551876e-16 
    1700     70.60932        9 1.0108536e-15            4            1            4 1.1546097e-16 
    1705    70.878341        9 1.0139229e-15            4            1            4 1.1540321e-16 
    1710    71.171442        9 1.0170031e-15            4            1            4 1.1534547e-16 
    1715    71.494448        9 1.0200944e-15            4            1            4 1.1528776e-16 
    1720    71.810936        9 1.0231966e-15            4            1            4 1.1523008e-16 
    1725    72.083053        9  1.02631e-15            4            1            4 1.1517244e-16 
    1730    72.353096        9 1.0294345e-15            4            1            4 1.1511481e-16 
    1735    72.679529        9 1.0325701e-15            4            1            4 1.1505722e-16 
    1740    73.046903        9 1.0357169e-15            4            1            4 1.1499966e-16 
    1745    73.412291        9 1.0388749e-15            4            1            4 1.1494213e-16 
    1750    73.798991        9 1.0420441e-15            4            1            4 1.1488462e-16 
    1755    74.199503        9 1.0452247e-15            4            1            4 1.1482714e-16 
    1760    74.603644        9 1.0484167e-15            4            1            4 1.147697e-16 
    1765    74.896981        9  1.05162e-15            4            1            4 1.1471228e-16 
    1770    75.191289        9 1.0548347e-15            4            1            4 1.1465489e-16 
    1775     75.44162        9 1.0580609e-15            4            1            4 1.1459753e-16 
    1780    75.755107        9 1.0612986e-15            4            1            4 1.1454019e-16 
    1785    76.029551        9 1.0645478e-15            4            1            4 1.1448289e-16 
    1790    76.406228        9 1.0678086e-15            4            1            4 1.1442561e-16 
    1795    76.791653        9 1.0710811e-15            4            1            4 1.1436837e-16 
    1800    77.182856        9 1.0743651e-15            4            1            4 1.1431115e-16 
    1805    77.561004        9 1.077661e-15            4            1            4 1.1425396e-16 
    1810    77.961517        9 1.0809685e-15            4            1            4 1.141968e-16 
    1815    78.346637        9 1.0842878e-15            4            1            4 1.1413966e-16 
    1820     78.81375        9 1.087619e-15            4            1            4 1.1408256e-16 
    1825    79.182912        9 1.090962e-15            4            1            4 1.1402549e-16 
    1830    79.502856        9 1.0943169e-15            4            1            4 1.1396844e-16 
    1835    79.844038       10 1.0976838e-15            4            1            5 1.1391142e-16 
    1840     80.15984       10 1.1010627e-15            4            1            5 1.1385443e-16 
    1845    80.456992       10 1.1044536e-15            4            1            5 1.1379747e-16 
    1850    80.787183       10 1.1078566e-15            4            1            5 1.1374054e-16 
    1855    81.110012       10 1.1112717e-15            4            1            5 1.1368363e-16 
    1860     81.44596       10 1.1146989e-15            4            1            5 1.1362676e-16 
    1865    81.768095       10 1.1181384e-15            4            1            5 1.1356991e-16 
    1870    82.122181       10 1.1215901e-15            4            1            5 1.1351309e-16 
    1875    82.468203       10 1.1250541e-15            4            1            5 1.134563e-16 
    1880    82.828012       10 1.1285304e-15            4            1            5 1.1339954e-16 
    1885    83.242001       10 1.1320191e-15            4            1            5 1.1334281e-16 
    1890    83.661618       10 1.1355202e-15            4            1            5 1.132861e-16 
    1895     84.01867       10 1.1390338e-15            4            1            5 1.1322943e-16 
    1900    84.401654       10 1.1425599e-15            4            1            5 1.1317278e-16 
    1905    84.804683       11 1.1460985e-15            5            1            5 1.1311616e-16 
    1910    85.222253       11 1.1496497e-15            5            1            5 1.1305957e-16 
    1915    85.670302       11 1.1532136e-15            5            1            5  1.13003e-16 
    1920    86.091233       11 1.1567901e-15            5            1            5 1.1294647e-16 
    1925     86.53409       11 1.1603794e-15            5            1            5 1.1288996e-16 
    1930    86.973393       11 1.1639814e-15            5            1            5 1.1283348e-16 
    1935    87.371119       11 1.1675962e-15            5            1            5 1.1277703e-16 
    1940    87.793122       11 1.1712239e-15            5            1            5 1.1272061e-16 
    1945    88.247164       11 1.1748645e-15            5            1            5 1.1266422e-16 
    1950    88.645504       11 1.178518e-15            5            1            5 1.1260785e-16 
    1955    89.057897       11 1.1821845e-15            5            1            5 1.1255151e-16 
    1960    89.492236       11 1.1858641e-15            5            1            5 1.124952e-16 
    1965    89.889351       11 1.1895567e-15            5            1            5 1.1243892e-16 
    1970    90.270251       11 1.1932625e-15            5            1            5 1.1238267e-16 
    1975     90.61446       11 1.1969814e-15            5            1            5 1.1232645e-16 
    1980      90.9548       11 1.2007136e-15            5            1            5 1.1227025e-16 
    1985    91.278523       11 1.204459e-15            5            1            5 1.1221408e-16 
    1990    91.572314       11 1.2082178e-15            5            1            5 1.1215794e-16 
    1995    91.861171       11 1.2119898e-15            5            1            5 1.1210183e-16 
    2000    92.160358       11 1.2157753e-15            5            1            5 1.1204574e-16 
    2005    92.513584       11 1.2195743e-15            5            1            5 1.1198969e-16 
    2010    92.821043       11 1.2233867e-15            5            1            5 1.1193366e-16 
    2015    93.201916       11 1.2272127e-15            5            1            5 1.1187766e-16 
    2020    93.630432       12 1.2310523e-15            6            1            5 1.1182169e-16 
    2025    94.055425       12 1.2349055e-15            6            1            5 1.1176575e-16 
    2030    94.506044       12 1.2387725e-15            6            1            5 1.1170983e-16 
    2035    94.937837       12 1.2426531e-15            6            1            5 1.1165394e-16 
    2040    95.375882       12 1.2465475e-15            6            1            5 1.1159808e-16 
    2045    95.786811       12 1.2504558e-15            6            1            5 1.1154225e-16 
    2050    96.211585       13 1.2543779e-15            7            1            5 1.1148645e-16 
    2055    96.650751       13 1.258314e-15            7            1            5 1.1143067e-16 
    2060    97.045809       13 1.2622641e-15            7            1            5 1.1137492e-16 
    2065    97.431851       13 1.2662281e-15            7            1            5 1.113192e-16 
    2070    97.707455       13 1.2702063e-15            7            1            5 1.1126351e-16 
    2075     98.01197       13 1.2741985e-15            7            1            5 1.1120784e-16 
    2080    98.344963       13 1.278205e-15            7            1            5 1.1115221e-16 
    2085    98.658995       13 1.2822256e-15            7            1            5 1.110966e-16 
    2090    99.039041       13 1.2862606e-15            7            1            5 1.1104102e-16 
    2095    99.371914       13 1.2903098e-15            7            1            5 1.1098546e-16 
    2100    99.692604       13 1.2943735e-15            7            1            5 1.1092994e-16 
    2105    99.978252       13 1.2984515e-15            7            1            5 1.1087444e-16 
    2110    100.28649       13 1.302544e-15            7            1            5 1.1081897e-16 
    2115    100.61981       13 1.3066511e-15            7            1            5 1.1076353e-16 
    2120    100.97009       13 1.3107727e-15            7            1            5 1.1070812e-16 
    2125    101.31736       13 1.3149089e-15            7            1            5 1.1065273e-16 
    2130    101.68402       14 1.3190598e-15            7            1            6 1.1059737e-16 
    2135    102.05693       14 1.3232255e-15            7            1            6 1.1054204e-16 
    2140    102.46888       14 1.3274059e-15            7            1            6 1.1048674e-16 
    2145    102.84086       14 1.3316011e-15            7            1            6 1.1043146e-16 
    2150    103.22352       14 1.3358112e-15            7            1            6 1.1037621e-16 
    2155    103.60241       14 1.3400363e-15            7            1            6 1.1032099e-16 
    2160    104.00839       14 1.3442763e-15            7            1            6 1.102658e-16 
    2165    104.39785       14 1.3485314e-15            7            1            6 1.1021063e-16 
    2170    104.76717       14 1.3528016e-15            7            1            6 1.101555e-16 
    2175    105.09177       14 1.3570869e-15            7            1            6 1.1010039e-16 
    2180    105.43417       14 1.3613874e-15            7            1            6 1.100453e-16 
    2185    105.77091       14 1.3657031e-15            7            1            6 1.0999025e-16 
    2190    106.11276       14 1.3700342e-15            7            1            6 1.0993522e-16 
    2195    106.45939       14 1.3743806e-15            7            1            6 1.0988022e-16 
    2200    106.83139       14 1.3787424e-15            7            1            6 1.0982525e-16 
    2205    107.14442       14 1.3831197e-15            7            1            6 1.097703e-16 
    2210    107.47669       15 1.3875124e-15            7            1            7 1.0971539e-16 
    2215    107.91629       15 1.3919208e-15            7            1            7 1.096605e-16 
    2220    108.24114       15 1.3963448e-15            7            1            7 1.0960564e-16 
    2225    108.57955       15 1.4007844e-15            7            1            7 1.095508e-16 
    2230    108.92812       15 1.4052398e-15            7            1            7 1.0949599e-16 
    2235    109.29745       15 1.409711e-15            7            1            7 1.0944121e-16 
    2240    109.63974       15 1.414198e-15            7            1            7 1.0938646e-16 
    2245    109.97669       15 1.4187009e-15            7            1            7 1.0933174e-16 
    2250    110.31184       15 1.4232198e-15            7            1            7 1.0927704e-16 
    2255     110.6964       15 1.4277547e-15            7            1            7 1.0922237e-16 
    2260    111.04855       15 1.4323056e-15            7            1            7 1.0916773e-16 
    2265    111.39495       15 1.4368727e-15            7            1            7 1.0911311e-16 
    2270    111.74447       15 1.441456e-15            7            1            7 1.0905852e-16 
    2275    112.05123       15 1.4460554e-15            7            1            7 1.0900396e-16 
    2280    112.35663       15 1.4506712e-15            7            1            7 1.0894943e-16 
    2285    112.73465       15 1.4553033e-15            7            1            7 1.0889492e-16 
    2290     113.0462       15 1.4599519e-15            7            1            7 1.0884044e-16 
    2295     113.3714       15 1.4646168e-15            7            1            7 1.0878599e-16 
    2300    113.74345       15 1.4692983e-15            7            1            7 1.0873157e-16 
    2305    114.09826       15 1.4739964e-15            7            1            7 1.0867717e-16 
    2310    114.46164       15 1.4787111e-15            7            1            7 1.086228e-16 
    2315    114.78856       15 1.4834425e-15            7            1            7 1.0856846e-16 
    2320     115.1067       15 1.4881907e-15            7            1            7 1.0851414e-16 
    2325    115.45912       15 1.4929557e-15            7            1            7 1.0845985e-16 
    2330    115.77268       15 1.4977375e-15            7            1            7 1.0840559e-16 
    2335    116.12284       15 1.5025363e-15            7            1            7 1.0835136e-16 
    2340    116.51442       15 1.507352e-15            7            1            7 1.0829715e-16 
    2345    116.86319       15 1.5121848e-15            7            1            7 1.0824297e-16 
    2350    117.18779       15 1.5170347e-15            7            1            7 1.0818882e-16 
    2355    117.54678       15 1.5219018e-15            7            1            7 1.0813469e-16 
    2360    117.92973       15 1.526786e-15            7            1            7 1.0808059e-16 
    2365    118.32121       15 1.5316876e-15            7            1            7 1.0802652e-16 
    2370    118.69207       15 1.5366065e-15            7            1            7 1.0797248e-16 
    2375    119.00438       15 1.5415428e-15            7            1            7 1.0791846e-16 
    2380    119.38245       15 1.5464966e-15            7            1            7 1.0786447e-16 
    2385    119.76754       15 1.5514679e-15            7            1            7 1.0781051e-16 
    2390    120.14551       15 1.5564568e-15            7            1            7 1.0775657e-16 
    2395    120.47965       15 1.5614634e-15            7            1            7 1.0770266e-16 
    2400    120.80677       15 1.5664876e-15            7            1            7 1.0764878e-16 
    2405    121.13149       15 1.5715297e-15            7            1            7 1.0759492e-16 
    2410     121.4901       15 1.5765895e-15            7            1            7 1.075411e-16 
    2415    121.83749       15 1.5816673e-15            7            1            7 1.0748729e-16 
    2420    122.15733       15 1.586763e-15            7            1            7 1.0743352e-16 
    2425    122.53997       15 1.5918768e-15            7            1            7 1.0737977e-16 
    2430     122.9397       15 1.5970086e-15            7            1            7 1.0732605e-16 
    2435    123.26651       15 1.6021586e-15            7            1            7 1.0727236e-16 
    2440    123.64731       15 1.6073268e-15            7            1            7 1.0721869e-16 
    2445    124.05077       15 1.6125132e-15            7            1            7 1.0716505e-16 
    2450    124.46327       15 1.617718e-15            7            1            7 1.0711144e-16 
    2455    124.89054       15 1.6229412e-15            7            1            7 1.0705785e-16 
    2460    125.25458       15 1.6281829e-15            7            1            7 1.0700429e-16 
    2465    125.67452       15 1.6334431e-15            7            1            7 1.0695076e-16 
    2470    126.08844       15 1.6387219e-15            7            1            7 1.0689725e-16 
    2475    126.50606       15 1.6440194e-15            7            1            7 1.0684378e-16 
    2480    126.88322       16 1.6493356e-15            8            1            7 1.0679032e-16 
    2485    127.23239       16 1.6546706e-15            8            1            7 1.067369e-16 
    2490    127.65066       16 1.6600244e-15            8            1            7 1.066835e-16 
    2495    128.04587       16 1.6653971e-15            8            1            7 1.0663013e-16 
    2500    128.39424       16 1.6707889e-15            8            1            7 1.0657678e-16 
    2505    128.84654       16 1.6761997e-15            8            1            7 1.0652346e-16 
    2510    129.32442       16 1.6816296e-15            8            1            7 1.0647017e-16 
    2515    129.78877       16 1.6870787e-15            8            1            7 1.0641691e-16 
    2520    130.29801       16 1.6925471e-15            8            1            7 1.0636367e-16 
    2525    130.75791       16 1.6980348e-15            8            1            7 1.0631046e-16 
    2530    131.10984       16 1.7035419e-15            8            1            7 1.0625727e-16 
    2535    131.51411       16 1.7090684e-15            8            1            7 1.0620411e-16 
    2540    131.98627       16 1.7146145e-15            8            1            7 1.0615098e-16 
    2545    132.41997       16 1.7201801e-15            8            1            7 1.0609788e-16 
    2550    132.88521       16 1.7257655e-15            8            1            7 1.060448e-16 
    2555    133.36815       16 1.7313705e-15            8            1            7 1.0599175e-16 
    2560    133.83891       16 1.7369954e-15            8            1            7 1.0593872e-16 
    2565     134.3966       16 1.7426401e-15            8            1            7 1.0588572e-16 
    2570    134.97044       16 1.7483047e-15            8            1            7 1.0583275e-16 
    2575    135.42231       16 1.7539894e-15            8            1            7 1.057798e-16 
    2580    135.77224       16 1.7596942e-15            8            1            7 1.0572688e-16 
    2585    136.08428       16 1.765419e-15            8            1            7 1.0567399e-16 
    2590    136.37029       16 1.7711642e-15            8            1            7 1.0562112e-16 
    2595    136.66537       16 1.7769296e-15            8            1            7 1.0556828e-16 
    2600    136.94993       16 1.7827153e-15            8            1            7 1.0551547e-16 
    2605    137.23805       16 1.7885215e-15            8            1            7 1.0546268e-16 
    2610    137.53583       16 1.7943482e-15            8            1            7 1.0540992e-16 
    2615    137.82421       16 1.8001955e-15            8            1            7 1.0535719e-16 
    2620    138.11948       16 1.8060634e-15            8            1            7 1.0530448e-16 
    2625    138.41124       16 1.811952e-15            8            1            7 1.052518e-16 
    2630    138.70421       16 1.8178614e-15            8            1            7 1.0519915e-16 
    2635    138.99472       16 1.8237917e-15            8            1            7 1.0514652e-16 
    2640    139.29171       16 1.8297429e-15            8            1            7 1.0509392e-16 
    2645    139.58872       16 1.8357151e-15            8            1            7 1.0504134e-16 
    2650    139.88565       16 1.8417084e-15            8            1            7 1.0498879e-16 
    2655    140.18424       16 1.8477229e-15            8            1            7 1.0493627e-16 
    2660    140.48427       16 1.8537586e-15            8            1            7 1.0488377e-16 
    2665    140.78309       16 1.8598155e-15            8            1            7 1.048313e-16 
    2670    141.08416       16 1.8658939e-15            8            1            7 1.0477885e-16 
    2675    141.39004       16 1.8719937e-15            8            1            7 1.0472644e-16 
    2680    141.68808       16 1.8781151e-15            8            1            7 1.0467404e-16 
    2685    142.01673       16 1.884258e-15            8            1            7 1.0462168e-16 
    2690    142.34715       16 1.8904226e-15            8            1            7 1.0456934e-16 
    2695    142.65272       16 1.896609e-15            8            1            7 1.0451703e-16 
    2700     142.9635       16 1.9028172e-15            8            1            7 1.0446474e-16 
    2705    143.27168       16 1.9090473e-15            8            1            7 1.0441248e-16 
    2710    143.57792       16 1.9152994e-15            8            1            7 1.0436024e-16 
    2715    143.90919       16 1.9215736e-15            8            1            7 1.0430804e-16 
    2720    144.22989       16 1.9278699e-15            8            1            7 1.0425585e-16 
    2725    144.55921       17 1.9341884e-15            8            1            8 1.042037e-16 
    2730     144.8764       17 1.9405291e-15            8            1            8 1.0415157e-16 
    2735     145.1913       17 1.9468923e-15            8            1            8 1.0409946e-16 
    2740    145.51192       17 1.9532779e-15            8            1            8 1.0404739e-16 
    2745    145.82871       17 1.959686e-15            8            1            8 1.0399534e-16 
    2750    146.14116       17 1.9661168e-15            8            1            8 1.0394331e-16 
    2755    146.45741       17 1.9725702e-15            8            1            8 1.0389131e-16 
    2760    146.77504       17 1.9790464e-15            8            1            8 1.0383934e-16 
    2765    147.10104       17 1.9855454e-15            8            1            8 1.0378739e-16 
    2770    147.41412       17 1.9920673e-15            8            1            8 1.0373547e-16 
    2775     147.7301       17 1.9986122e-15            8            1            8 1.0368357e-16 
    2780    148.05232       17 2.0051803e-15            8            1            8 1.036317e-16 
    2785    148.38925       17 2.0117714e-15            8            1            8 1.0357986e-16 
    2790    148.71207       17 2.0183859e-15            8            1            8 1.0352804e-16 
    2795    149.03031       17 2.0250236e-15            8            1            8 1.0347625e-16 
    2800     149.3507       17 2.0316848e-15            8            1            8 1.0342449e-16 
    2805    149.67639       17 2.0383694e-15            8            1            8 1.0337275e-16 
    2810    150.01153       17 2.0450776e-15            8            1            8 1.0332103e-16 
    2815      150.336       17 2.0518094e-15            8            1            8 1.0326935e-16 
    2820    150.67375       18 2.058565e-15            9            1            8 1.0321768e-16 
    2825    151.80004       19 2.0653445e-15            9            1            9 1.0316605e-16 
    2830    151.94883       19 2.0721478e-15            9            1            9 1.0311444e-16 
    2835    152.19773       19 2.0789751e-15            9            1            9 1.0306285e-16 
    2840    152.51177       19 2.0858265e-15            9            1            9 1.0301129e-16 
    2845    152.84157       19 2.092702e-15            9            1            9 1.0295976e-16 
    2850    153.19727       19 2.0996017e-15            9            1            9 1.0290826e-16 
    2855    153.53155       19 2.1065258e-15            9            1            9 1.0285677e-16 
    2860    153.86375       19 2.1134743e-15            9            1            9 1.0280532e-16 
    2865    154.18989       19 2.1204473e-15            9            1            9 1.0275389e-16 
    2870    154.52074       19 2.1274448e-15            9            1            9 1.0270249e-16 
    2875    154.84816       19 2.1344671e-15            9            1            9 1.0265111e-16 
    2880    155.17639       20 2.141514e-15            9            1           10 1.0259976e-16 
    2885    155.51894       20 2.1485858e-15            9            1           10 1.0254843e-16 
    2890    155.85656       20 2.1556825e-15            9            1           10 1.0249713e-16 
    2895    156.19644       20 2.1628043e-15            9            1           10 1.0244586e-16 
    2900    156.53594       20 2.1699511e-15            9            1           10 1.0239461e-16 
    2905    156.87765       20 2.1771231e-15            9            1           10 1.0234338e-16 
    2910    157.21036       20 2.1843204e-15            9            1           10 1.0229219e-16 
    2915    157.55269       20 2.191543e-15            9            1           10 1.0224101e-16 
    2920      157.889       21 2.1987911e-15           10            1           10 1.0218987e-16 
    2925    158.23354       21 2.2060647e-15           10            1           10 1.0213875e-16 
    2930    158.57181       21 2.2133639e-15           10            1           10 1.0208765e-16 
    2935    159.66617       22 2.2206889e-15           11            1           10 1.0203658e-16 
    2940    159.78444       22 2.2280397e-15           11            1           10 1.0198554e-16 
    2945    159.93561       22 2.2354164e-15           11            1           10 1.0193452e-16 
    2950    160.19404       22 2.242819e-15           11            1           10 1.0188353e-16 
    2955     160.4595       22 2.2502478e-15           11            1           10 1.0183256e-16 
    2960     160.7463       22 2.2577027e-15           11            1           10 1.0178162e-16 
    2965    161.03076       22 2.2651838e-15           11            1           10 1.017307e-16 
    2970    161.31291       22 2.2726914e-15           11            1           10 1.0167981e-16 
    2975    161.63823       22 2.2802253e-15           11            1           10 1.0162895e-16 
    2980    162.02416       22 2.2877858e-15           11            1           10 1.0157811e-16 
    2985    162.42833       22 2.295373e-15           11            1           10 1.0152729e-16 
    2990    162.81521       22 2.3029868e-15           11            1           10 1.014765e-16 
    2995    163.30464       23 2.3106275e-15           11            1           11 1.0142574e-16 
    3000     163.7817       24 2.318295e-15           12            1           11  1.01375e-16 
    3005    164.21331       24 2.3259896e-15           12            1           11 1.0132429e-16 
    3010    164.66744       24 2.3337113e-15           12            1           11 1.012736e-16 
    3015    165.09267       24 2.3414601e-15           12            1           11 1.0122294e-16 
    3020    165.52809       24 2.3492363e-15           12            1           11 1.0117231e-16 
    3025    165.95737       24 2.3570398e-15           12            1           11 1.011217e-16 
    3030    166.40261       24 2.3648708e-15           12            1           11 1.0107111e-16 
    3035    166.81743       24 2.3727293e-15           12            1           11 1.0102055e-16 
    3040    167.21164       24 2.3806156e-15           12            1           11 1.0097002e-16 
    3045    167.61609       24 2.3885296e-15           12            1           11 1.0091951e-16 
    3050     168.0296       25 2.3964714e-15           13            1           11 1.0086902e-16 
    3055    168.41894       25 2.4044413e-15           13            1           11 1.0081856e-16 
    3060    168.85544       25 2.4124391e-15           13            1           11 1.0076813e-16 
    3065    169.28458       25 2.4204652e-15           13            1           11 1.0071772e-16 
    3070    169.90453       25 2.4285195e-15           13            1           11 1.0066734e-16 
    3075    170.53633       26 2.4366021e-15           14            1           11 1.0061698e-16 
    3080    171.14773       26 2.4447132e-15           14            1           11 1.0056665e-16 
    3085    171.78502       26 2.4528528e-15           14            1           11 1.0051634e-16 
    3090    172.42696       26 2.4610211e-15           14            1           11 1.0046606e-16 
    3095    173.06739       26 2.4692182e-15           14            1           11 1.0041581e-16 
    3100    173.69074       26 2.4774441e-15           14            1           11 1.0036557e-16 
    3105    174.32488       26 2.4856989e-15           14            1           11 1.0031537e-16 
    3110    174.96044       26 2.4939828e-15           14            1           11 1.0026519e-16 
    3115    175.61861       26 2.5022959e-15           14            1           11 1.0021503e-16 
    3120    176.27649       26 2.5106382e-15           14            1           11 1.001649e-16 
    3125     176.9254       26 2.5190098e-15           14            1           11 1.001148e-16 
    3130    177.55292       26 2.527411e-15           14            1           11 1.0006472e-16 
    3135    178.19267       26 2.5358416e-15           14            1           11 1.0001466e-16 
    3140    178.83833       26 2.544302e-15           14            1           11 9.996463e-17 
    3145    179.47586       26 2.5527921e-15           14            1           11 9.9914625e-17 
    3150    180.12575       27 2.5613121e-15           14            1           12 9.9864645e-17 
    3155    180.77723       27 2.5698621e-15           14            1           12 9.981469e-17 
    3160    181.43205       27 2.5784421e-15           14            1           12 9.9764761e-17 
    3165    182.09484       27 2.5870524e-15           14            1           12 9.9714856e-17 
    3170    182.75469       27 2.5956929e-15           14            1           12 9.9664976e-17 
    3175    183.40131       27 2.6043639e-15           14            1           12 9.9615122e-17 
    3180    184.05455       27 2.6130653e-15           14            1           12 9.9565292e-17 
    3185    184.72948       27 2.6217974e-15           14            1           12 9.9515488e-17 
    3190    185.37421       27 2.6305602e-15           14            1           12 9.9465708e-17 
    3195    186.04511       27 2.6393538e-15           14            1           12 9.9415953e-17 
    3200    186.69551       27 2.6481783e-15           14            1           12 9.9366224e-17 
    3205    187.36279       27 2.6570339e-15           14            1           12 9.9316519e-17 
    3210    187.87163       27 2.6659206e-15           14            1           12 9.9266839e-17 
    3215    188.26292       27 2.6748386e-15           14            1           12 9.9217184e-17 
    3220    188.65238       27 2.683788e-15           14            1           12 9.9167555e-17 
    3225    189.08836       27 2.6927688e-15           14            1           12 9.911795e-17 
    3230    189.47987       28 2.7017812e-15           15            1           12 9.9068369e-17 
    3235    189.87358       28 2.7108254e-15           15            1           12 9.9018814e-17 
    3240    190.27007       28 2.7199013e-15           15            1           12 9.8969284e-17 
    3245    190.66762       28 2.7290092e-15           15            1           12 9.8919778e-17 
    3250    191.06869       28 2.738149e-15           15            1           12 9.8870298e-17 
    3255    191.46338       28 2.7473211e-15           15            1           12 9.8820842e-17 
    3260    191.87572       28 2.7565254e-15           15            1           12 9.8771411e-17 
    3265    192.27636       28 2.765762e-15           15            1           12 9.8722005e-17 
    3270     192.6741       28 2.7750311e-15           15            1           12 9.8672623e-17 
    3275    193.08897       28 2.7843329e-15           15            1           12 9.8623267e-17 
    3280    193.49629       28 2.7936673e-15           15            1           12 9.8573935e-17 
    3285    193.90479       28 2.8030346e-15           15            1           12 9.8524628e-17 
    3290    194.30038       28 2.8124348e-15           15            1           12 9.8475346e-17 
    3295    194.72357       28 2.821868e-15           15            1           12 9.8426088e-17 
    3300    195.12529       28 2.8313345e-15           15            1           12 9.8376855e-17 
    3305    195.55872       28 2.8408342e-15           15            1           12 9.8327647e-17 
    3310    196.97258       30 2.8503673e-15           15            1           14 9.8278464e-17 
    3315    197.15245       30 2.8599339e-15           15            1           14 9.8229305e-17 
    3320    197.42478       30 2.8695342e-15           15            1           14 9.8180171e-17 
    3325    197.82325       30 2.8791683e-15           15            1           14 9.8131062e-17 
    3330     198.2201       30 2.8888362e-15           15            1           14 9.8081977e-17 
    3335    198.62312       30 2.8985381e-15           15            1           14 9.8032917e-17 
    3340    199.03325       30 2.9082741e-15           15            1           14 9.7983882e-17 
    3345    199.45665       30 2.9180443e-15           15            1           14 9.7934871e-17 
    3350    199.86308       30 2.9278489e-15           15            1           14 9.7885885e-17 
    3355    200.27888       30 2.9376879e-15           15            1           14 9.7836923e-17 
    3360    200.71076       30 2.9475615e-15           15            1           14 9.7787986e-17 
    3365     201.1278       30 2.9574699e-15           15            1           14 9.7739074e-17 
    3370    201.54884       30 2.967413e-15           15            1           14 9.7690186e-17 
    3375    201.97534       30 2.9773911e-15           15            1           14 9.7641323e-17 
    3380    202.40853       30 2.9874043e-15           15            1           14 9.7592484e-17 
    3385    202.82245       30 2.9974527e-15           15            1           14 9.754367e-17 
    3390    203.24623       30 3.0075364e-15           15            1           14 9.749488e-17 
    3395    203.67797       30 3.0176556e-15           15            1           14 9.7446115e-17 
    3400    204.11031       30 3.0278103e-15           15            1           14 9.7397375e-17 
    3405    204.53493       30 3.0380007e-15           15            1           14 9.7348658e-17 
    3410    204.96914       30 3.0482269e-15           15            1           14 9.7299967e-17 
    3415    205.40056       30 3.058489e-15           15            1           14 9.7251299e-17 
    3420    205.84888       30 3.0687872e-15           15            1           14 9.7202657e-17 
    3425    206.27713       30 3.0791216e-15           15            1           14 9.7154038e-17 
    3430     206.7113       30 3.0894923e-15           15            1           14 9.7105444e-17 
    3435    207.13718       30 3.0998995e-15           15            1           14 9.7056875e-17 
    3440     207.5718       30 3.1103432e-15           15            1           14 9.700833e-17 
    3445    208.02633       30 3.1208237e-15           15            1           14 9.6959809e-17 
    3450    208.47187       30 3.1313409e-15           15            1           14 9.6911313e-17 
    3455    208.92672       30 3.1418951e-15           15            1           14 9.6862841e-17 
    3460    209.36448       30 3.1524864e-15           15            1           14 9.6814393e-17 
    3465    209.80838       30 3.1631149e-15           15            1           14 9.676597e-17 
    3470    210.24837       30 3.1737808e-15           15            1           14 9.6717571e-17 
    3475     210.7022       30 3.1844841e-15           15            1           14 9.6669196e-17 
    3480     211.1604       30 3.1952251e-15           15            1           14 9.6620846e-17 
    3485    211.60656       30 3.2060037e-15           15            1           14 9.657252e-17 
    3490    212.06582       30 3.2168203e-15           15            1           14 9.6524218e-17 
    3495    212.52822       30 3.2276748e-15           15            1           14 9.6475941e-17 
    3500    212.99465       30 3.2385675e-15           15            1           14 9.6427688e-17 
    3505    213.45127       30 3.2494984e-15           15            1           14 9.6379459e-17 
    3510    213.93281       30 3.2604678e-15           15            1           14 9.6331254e-17 
    3515    214.40194       30 3.2714757e-15           15            1           14 9.6283074e-17 
    3520    214.87457       30 3.2825222e-15           15            1           14 9.6234918e-17 
    3525    215.35309       31 3.2936076e-15           15            1           15 9.6186786e-17 
    3530    215.82511       31 3.3047319e-15           15            1           15 9.6138678e-17 
    3535    216.28483       31 3.3158952e-15           15            1           15 9.6090594e-17 
    3540    216.74546       31 3.3270978e-15           15            1           15 9.6042535e-17 
    3545    217.22099       31 3.3383398e-15           15            1           15  9.59945e-17 
    3550    217.69872       31 3.3496212e-15           15            1           15 9.5946489e-17 
    3555    218.18758       31 3.3609422e-15           15            1           15 9.5898502e-17 
    3560    218.68056       31 3.372303e-15           15            1           15 9.5850539e-17 
    3565    219.19767       31 3.3837038e-15           15            1           15  9.58026e-17 
    3570    219.69135       31 3.3951445e-15           15            1           15 9.5754686e-17 
    3575    220.19943       31 3.4066255e-15           15            1           15 9.5706795e-17 
    3580      220.695       31 3.4181467e-15           15            1           15 9.5658929e-17 
    3585     221.1791       31 3.4297084e-15           15            1           15 9.5611086e-17 
    3590    221.64821       31 3.4413108e-15           15            1           15 9.5563268e-17 
    3595    222.12205       31 3.4529538e-15           15            1           15 9.5515474e-17 
    3600    222.60138       32 3.4646378e-15           15            1           16 9.5467704e-17 
    3605    223.06567       32 3.4763628e-15           15            1           16 9.5419958e-17 
    3610    223.54898       32 3.488129e-15           15            1           16 9.5372235e-17 
    3615    224.03748       32 3.4999365e-15           15            1           16 9.5324537e-17 
    3620    224.51693       32 3.5117854e-15           15            1           16 9.5276863e-17 
    3625    225.01089       32 3.523676e-15           15            1           16 9.5229213e-17 
    3630    225.52014       33 3.5356083e-15           15            1           17 9.5181587e-17 
    3635    226.01707       33 3.5475825e-15           15            1           17 9.5133985e-17 
    3640    226.50518       33 3.5595988e-15           15            1           17 9.5086406e-17 
    3645    226.99373       33 3.5716572e-15           15            1           17 9.5038852e-17 
    3650    227.50095       33 3.583758e-15           15            1           17 9.4991322e-17 
    3655     228.0415       34 3.5959013e-15           16            1           17 9.4943815e-17 
    3660    228.53268       34 3.6080872e-15           16            1           17 9.4896333e-17 
    3665    229.02643       34 3.6203159e-15           16            1           17 9.4848874e-17 
    3670    229.51735       34 3.6325876e-15           16            1           17 9.4801439e-17 
    3675    230.01789       34 3.6449023e-15           16            1           17 9.4754029e-17 
    3680    230.51924       34 3.6572603e-15           16            1           17 9.4706642e-17 
    3685    231.07936       34 3.6696616e-15           16            1           17 9.4659278e-17 
    3690    231.59854       34 3.6821065e-15           16            1           17 9.4611939e-17 
    3695    232.11195       34 3.6945951e-15           16            1           17 9.4564624e-17 
    3700    232.63005       34 3.7071275e-15           16            1           17 9.4517332e-17 
    3705     233.1732       34 3.7197039e-15           16            1           17 9.4470064e-17 
    3710    233.67618       34 3.7323245e-15           16            1           17 9.442282e-17 
    3715     234.2045       34 3.7449893e-15           16            1           17  9.43756e-17 
    3720    234.71857       34 3.7576987e-15           16            1           17 9.4328403e-17 
    3725     235.2373       35 3.7704526e-15           17            1           17 9.4281231e-17 
    3730    235.75891       35 3.7832513e-15           17            1           17 9.4234082e-17 
    3735    236.28966       35 3.796095e-15           17            1           17 9.4186956e-17 
    3740    236.82955       35 3.8089837e-15           17            1           17 9.4139855e-17 
    3745    237.36936       36 3.8219176e-15           18            1           17 9.4092777e-17 
    3750    237.90569       37 3.834897e-15           19            1           17 9.4045723e-17 
    3755     238.4326       37 3.8479219e-15           19            1           17 9.3998693e-17 
    3760    238.97135       37 3.8609926e-15           19            1           17 9.3951686e-17 
    3765    239.51128       37 3.8741091e-15           19            1           17 9.3904703e-17 
    3770    240.05707       37 3.8872716e-15           19            1           17 9.3857744e-17 
    3775    240.58131       37 3.9004804e-15           19            1           17 9.3810808e-17 
    3780    241.13892       37 3.9137355e-15           19            1           17 9.3763896e-17 
    3785    241.65965       37 3.9270371e-15           19            1           17 9.3717008e-17 
    3790    242.18694       37 3.9403855e-15           19            1           17 9.3670143e-17 
    3795    242.71345       37 3.9537806e-15           19            1           17 9.3623302e-17 
    3800    243.24641       37 3.9672228e-15           19            1           17 9.3576484e-17 
    3805    243.81977       37 3.9807121e-15           19            1           17 9.352969e-17 
    3810    244.36457       37 3.9942488e-15           19            1           17 9.348292e-17 
    3815    244.93288       38 4.007833e-15           20            1           17 9.3436173e-17 
    3820    245.47824       38 4.0214649e-15           20            1           17 9.338945e-17 
    3825    246.01582       39 4.0351446e-15           21            1           17 9.334275e-17 
    3830    246.56415       39 4.0488723e-15           21            1           17 9.3296074e-17 
    3835    247.11933       39 4.0626482e-15           21            1           17 9.3249422e-17 
    3840    247.66355       39 4.0764724e-15           21            1           17 9.3202793e-17 
    3845    248.23978       39 4.0903451e-15           21            1           17 9.3156187e-17 
    3850    248.79492       40 4.1042665e-15           22            1           17 9.3109605e-17 
    3855    249.42393       40 4.1182368e-15           22            1           17 9.3063046e-17 
    3860    250.01264       40 4.1322561e-15           22            1           17 9.3016511e-17 
    3865    250.56733       40 4.1463246e-15           22            1           17 9.2969999e-17 
    3870    251.11878       40 4.1604424e-15           22            1           17 9.2923511e-17 
    3875    251.67069       40 4.1746098e-15           22            1           17 9.2877046e-17 
    3880    252.23018       40 4.1888269e-15           22            1           17 9.2830605e-17 
    3885    252.79598       40 4.2030938e-15           22            1           17 9.2784187e-17 
    3890    253.35193       40 4.2174108e-15           22            1           17 9.2737793e-17 
    3895    253.91593       41 4.2317781e-15           22            1           18 9.2691422e-17 
    3900    257.00752       41 4.2461958e-15           22            1           18 9.2645074e-17 
    3905    261.42276       42 4.260664e-15           23            1           18 9.259875e-17 
[...]
    4050    298.24325       44 4.7030627e-15           23            1           20 9.1265467e-17 
    4055    298.80504       44 4.7191336e-15           23            1           20 9.1219839e-17 
    4060     303.1795       44 4.7352609e-15           23            1           20 9.1174234e-17 
    4065    303.36487       44 4.7514447e-15           23            1           20 9.1128653e-17 
    4070    303.57289       44 4.7676854e-15           23            1           20 9.1083094e-17 
    4075     303.9201       44 4.783983e-15           23            1           20 9.1037559e-17 
    4080     304.3384       44 4.8003377e-15           23            1           20 9.0992046e-17 
    4085    304.81151       45 4.8167498e-15           24            1           20 9.0946556e-17 
    4090    305.34401       45 4.8332195e-15           24            1           20 9.090109e-17 
    4095    305.84141       45 4.8497469e-15           24            1           20 9.0855646e-17 
    4100    306.36347       45 4.8663323e-15           24            1           20 9.0810225e-17 
    4105    306.87753       45 4.8829759e-15           24            1           20 9.0764828e-17 
    4110    307.41587       46 4.8996778e-15           24            1           21 9.0719453e-17 
    4115    307.95295       46 4.9164382e-15           24            1           21 9.0674101e-17 
    4120    308.50017       46 4.9332575e-15           24            1           21 9.0628773e-17 
    4125    309.11834       46 4.9501357e-15           24            1           21 9.0583467e-17 
    4130    309.66669       47 4.9670731e-15           24            1           22 9.0538184e-17 
    4135    310.21153       49 4.9840699e-15           24            1           24 9.0492924e-17 
    4140    311.95256       50 5.0011263e-15           25            1           24 9.0447686e-17 
    4145    312.54153       50 5.0182425e-15           25            1           24 9.0402472e-17 
    4150    313.14074       51 5.0354187e-15           26            1           24 9.0357281e-17 
    4155    313.73809       51 5.0526551e-15           26            1           24 9.0312112e-17 
    4160    314.34825       51 5.0699519e-15           26            1           24 9.0266966e-17 
    4165    314.95245       51 5.0873094e-15           26            1           24 9.0221844e-17 
    4170    315.56076       51 5.1047277e-15           26            1           24 9.0176744e-17 
    4175    316.18564       51 5.1222071e-15           26            1           24 9.0131666e-17 
    4180    316.79712       53 5.1397478e-15           28            1           24 9.0086612e-17 
    4185    317.41294       53  5.15735e-15           28            1           24 9.004158e-17 
    4190    318.02874       53 5.1750139e-15           28            1           24 8.9996572e-17 
    4195    318.66089       53 5.1927398e-15           28            1           24 8.9951586e-17 
    4200    319.29345       53 5.2105278e-15           28            1           24 8.9906622e-17 
    4205    319.92667       53 5.2283781e-15           28            1           24 8.9861682e-17 
    4210    320.56001       53 5.246291e-15           28            1           24 8.9816764e-17 
    4215    321.21054       53 5.2642668e-15           28            1           24 8.9771869e-17 
    4220    321.84433       54 5.2823055e-15           28            1           25 8.9726997e-17 
    4225    322.50637       55 5.3004075e-15           29            1           25 8.9682148e-17 
    4230    323.16588       55 5.318573e-15           29            1           25 8.9637321e-17 
    4235    323.81646       55 5.3368021e-15           29            1           25 8.9592517e-17 
    4240    324.47203       55 5.3550951e-15           29            1           25 8.9547736e-17 
    4245    325.12242       55 5.3734523e-15           29            1           25 8.9502977e-17 
    4250    325.77217       55 5.3918738e-15           29            1           25 8.9458241e-17 
    4255    326.43697       55 5.4103599e-15           29            1           25 8.9413528e-17 
    4260    327.09827       55 5.4289108e-15           29            1           25 8.9368837e-17 
    4265    327.75772       55 5.4475267e-15           29            1           25 8.9324169e-17 
    4270    328.42449       55 5.4662079e-15           29            1           25 8.9279524e-17 
    4275    329.09753       55 5.4849546e-15           29            1           25 8.9234901e-17 
    4280    329.77206       55 5.5037669e-15           29            1           25 8.9190301e-17 
    4285    330.46225       55 5.5226453e-15           29            1           25 8.9145723e-17 
    4290    331.14712       55 5.5415898e-15           29            1           25 8.9101168e-17 
    4295    331.84156       55 5.5606007e-15           29            1           25 8.9056636e-17 
    4300     332.5354       55 5.5796782e-15           29            1           25 8.9012126e-17 
    4305    333.21419       55 5.5988226e-15           29            1           25 8.8967639e-17 
    4310    333.89192       55 5.6180341e-15           29            1           25 8.8923175e-17 
    4315    334.58432       56 5.6373129e-15           29            1           26 8.8878733e-17 
    4320    335.28546       56 5.6566594e-15           29            1           26 8.8834313e-17 
    4325    335.96364       56 5.6760736e-15           29            1           26 8.8789916e-17 
    4330    336.65415       56 5.6955559e-15           29            1           26 8.8745542e-17 
    4335    337.35932       57 5.7151064e-15           30            1           26 8.870119e-17 
    4340    338.05374       57 5.7347255e-15           30            1           26 8.865686e-17 
    4345     338.7538       57 5.7544133e-15           30            1           26 8.8612553e-17 
    4350    339.45628       57 5.7741702e-15           30            1           26 8.8568269e-17 
    4355    340.19645       57 5.7939963e-15           30            1           26 8.8524007e-17 
    4360    340.93053       57 5.8138919e-15           30            1           26 8.8479768e-17 
    4365    341.65627       57 5.8338572e-15           30            1           26 8.8435551e-17 
    4370    342.37184       57 5.8538924e-15           30            1           26 8.8391356e-17 
    4375    343.08044       57 5.8739979e-15           30            1           26 8.8347184e-17 
    4380     343.7838       57 5.8941739e-15           30            1           26 8.8303034e-17 
    4385    344.49499       57 5.9144205e-15           30            1           26 8.8258907e-17 
    4390    345.21362       57 5.9347381e-15           30            1           26 8.8214802e-17 
    4395    345.94253       57 5.955127e-15           30            1           26 8.8170719e-17 
    4400    346.67593       57 5.9755872e-15           30            1           26 8.8126659e-17 
    4405     347.4054       57 5.9961192e-15           30            1           26 8.8082622e-17 
    4410    348.21369       57 6.0167231e-15           30            1           26 8.8038606e-17 
    4415    348.92829       57 6.0373993e-15           30            1           26 8.7994613e-17 
    4420    349.65174       59 6.0581479e-15           31            1           27 8.7950643e-17 
    4425    350.38968       59 6.0789691e-15           31            1           27 8.7906694e-17 
    4430    351.13914       59 6.0998634e-15           31            1           27 8.7862768e-17 
    4435    351.87249       59 6.1208309e-15           31            1           27 8.7818865e-17 
    4440    352.62736       59 6.1418718e-15           31            1           27 8.7774983e-17 
    4445    353.39772       59 6.1629865e-15           31            1           27 8.7731124e-17 
    4450    354.14049       59 6.1841752e-15           31            1           27 8.7687288e-17 
    4455    354.89229       59 6.2054381e-15           31            1           27 8.7643473e-17 
    4460    355.66423       59 6.2267755e-15           31            1           27 8.7599681e-17 
    4465    356.42499       61 6.2481877e-15           32            1           28 8.7555911e-17 
    4470     357.1798       61 6.2696749e-15           32            1           28 8.7512164e-17 
    4475    357.95091       61 6.2912375e-15           32            1           28 8.7468438e-17 
    4480    358.73275       61 6.3128755e-15           32            1           28 8.7424735e-17 
    4485    359.49196       61 6.3345894e-15           32            1           28 8.7381054e-17 
    4490    360.25877       61 6.3563794e-15           32            1           28 8.7337396e-17 
    4495    361.06078       61 6.3782457e-15           32            1           28 8.7293759e-17 
    4500    361.87306       61 6.4001886e-15           32            1           28 8.7250145e-17 
    4505     362.6743       61 6.4222084e-15           32            1           28 8.7206553e-17 
    4510    363.47114       61 6.4443054e-15           32            1           28 8.7162983e-17 
    4515    364.25685       61 6.4664798e-15           32            1           28 8.7119435e-17 
    4520    365.03001       61 6.4887319e-15           32            1           28 8.707591e-17 
    4525    365.82317       61 6.5110619e-15           32            1           28 8.7032406e-17 
    4530    366.62943       61 6.5334702e-15           32            1           28 8.6988925e-17 
    4535    367.43238       61 6.555957e-15           32            1           28 8.6945466e-17 
    4540    368.24402       61 6.5785225e-15           32            1           28 8.6902029e-17 
    4545    369.10028       61 6.6011672e-15           32            1           28 8.6858615e-17 
    4550    369.89392       62 6.6238911e-15           32            1           29 8.6815222e-17 
    4555    371.55188       63 6.6466947e-15           32            1           30 8.6771851e-17 
    4560    372.19339       64 6.6695781e-15           33            1           30 8.6728503e-17 
    4565    372.96174       65 6.6925417e-15           34            1           30 8.6685176e-17 
    4570    373.76606       65 6.7155858e-15           34            1           30 8.6641872e-17 
    4575     374.5629       66 6.7387106e-15           34            1           31 8.659859e-17 
    4580    375.37586       66 6.7619164e-15           34            1           31 8.655533e-17 
    4585    376.18125       66 6.7852034e-15           34            1           31 8.6512091e-17 
    4590    377.01266       66 6.8085721e-15           34            1           31 8.6468875e-17 
    4595    377.83089       66 6.8320226e-15           34            1           31 8.6425681e-17 
    4600    378.65714       66 6.8555553e-15           34            1           31 8.6382509e-17 
    4605    379.47999       66 6.8791705e-15           34            1           31 8.6339359e-17 
    4610    380.32751       66 6.9028683e-15           34            1           31 8.6296231e-17 
    4615    381.18126       67 6.9266492e-15           35            1           31 8.6253125e-17 
    4620    382.05656       67 6.9505134e-15           35            1           31 8.6210041e-17 
    4625    382.96717       67 6.9744611e-15           35            1           31 8.6166979e-17 
    4630    383.86789       67 6.9984928e-15           35            1           31 8.6123939e-17 
    4635    384.79299       67 7.0226086e-15           35            1           31 8.6080921e-17 
    4640    385.66049       67 7.046809e-15           35            1           31 8.6037925e-17 
    4645    386.51501       67 7.0710941e-15           35            1           31 8.5994951e-17 
    4650    387.35242       67 7.0954642e-15           35            1           31 8.5951998e-17 
    4655    388.22017       67 7.1199198e-15           35            1           31 8.5909068e-17 
    4660    389.09352       67 7.1444609e-15           35            1           31 8.5866159e-17 
    4665    389.98092       67 7.1690881e-15           35            1           31 8.5823273e-17 
    4670    390.85402       67 7.1938015e-15           35            1           31 8.5780408e-17 
    4675     391.8031       68 7.2186015e-15           35            1           32 8.5737566e-17 
    4680    392.72778       69 7.2434884e-15           35            1           33 8.5694745e-17 
    4685    398.22741       69 7.2684624e-15           35            1           33 8.5651946e-17 
    4690    403.03549       69 7.2935239e-15           35            1           33 8.5609169e-17 
    4695    407.59527       69 7.3186732e-15           35            1           33 8.5566413e-17 
    4700    411.17331       69 7.3439105e-15           35            1           33 8.552368e-17 
    4705    411.34669       69 7.3692363e-15           35            1           33 8.5480968e-17 
    4710    411.83787       69 7.3946508e-15           35            1           33 8.5438279e-17 
    4715    412.45147       69 7.4201543e-15           35            1           33 8.5395611e-17 
    4720    413.13363       70 7.4457472e-15           36            1           33 8.5352965e-17 
    4725    413.84835       70 7.4714297e-15           36            1           33 8.531034e-17 
    4730    414.57189       70 7.4972022e-15           36            1           33 8.5267738e-17 
    4735    415.31904       70 7.5230649e-15           36            1           33 8.5225157e-17 
    4740    417.17108       71 7.5490182e-15           36            1           34 8.5182598e-17 
    4745    417.80967       71 7.5750623e-15           36            1           34 8.5140061e-17 
    4750    418.52773       71 7.6011977e-15           36            1           34 8.5097546e-17 
    4755    419.31721       71 7.6274246e-15           36            1           34 8.5055052e-17 
    4760    420.18145       71 7.6537434e-15           36            1           34 8.501258e-17 
    4765    421.04333       71 7.6801543e-15           36            1           34 8.497013e-17 
    4770    421.92349       72 7.7066578e-15           37            1           34 8.4927702e-17 
    4775    422.82648       72 7.733254e-15           37            1           34 8.4885295e-17 
    4780      423.715       72 7.7599435e-15           37            1           34 8.484291e-17 
    4785    424.61076       73 7.7867263e-15           37            1           35 8.4800547e-17 
    4790    425.51325       74 7.813603e-15           38            1           35 8.4758205e-17 
    4795      426.406       74 7.8405738e-15           38            1           35 8.4715885e-17 
    4800    427.31274       74 7.8676391e-15           38            1           35 8.4673587e-17 
    4805     428.2215       74 7.8947991e-15           38            1           35 8.4631311e-17 
    4810    429.21807       74 7.9220543e-15           38            1           35 8.4589056e-17 
    4815    430.18136       74 7.9494049e-15           38            1           35 8.4546823e-17 
    4820    431.14125       74 7.9768513e-15           38            1           35 8.4504611e-17 
    4825    432.09268       74 8.0043938e-15           38            1           35 8.4462421e-17 
    4830    433.03314       74 8.0320328e-15           38            1           35 8.4420253e-17 
    4835    433.95807       75 8.0597685e-15           39            1           35 8.4378106e-17 
    4840    434.88137       75 8.0876014e-15           39            1           35 8.4335981e-17 
    4845      435.814       75 8.1155318e-15           39            1           35 8.4293878e-17 
    4850    436.77245       75 8.1435599e-15           39            1           35 8.4251796e-17 
    4855    437.70416       75 8.1716862e-15           39            1           35 8.4209735e-17 
    4860    438.64059       75 8.199911e-15           39            1           35 8.4167697e-17 
    4865     439.5868       75 8.2282347e-15           39            1           35 8.4125679e-17 
    4870    440.67707       75 8.2566575e-15           39            1           35 8.4083684e-17 
    4875    441.75915       75 8.2851798e-15           39            1           35 8.404171e-17 
    4880    442.85046       77 8.313802e-15           41            1           35 8.3999757e-17 
    4885    444.00472       78 8.3425245e-15           42            1           35 8.3957826e-17 
    4890     445.1195       78 8.3713475e-15           42            1           35 8.3915917e-17 
    4895    446.35444       78 8.4002715e-15           42            1           35 8.3874029e-17 
    4900    447.47964       79 8.4292967e-15           43            1           35 8.3832163e-17 
    4905     448.6175       79 8.4584236e-15           43            1           35 8.3790318e-17 
    4910    449.80117       81 8.4876524e-15           44            1           36 8.3748495e-17 
    4915    450.89933       82 8.5169836e-15           44            1           37 8.3706693e-17 
    4920    452.00982       82 8.5464175e-15           44            1           37 8.3664912e-17 
    4925     453.1668       83 8.5759545e-15           44            1           38 8.3623153e-17 
    4930    454.28668       83 8.6055949e-15           44            1           38 8.3581416e-17 
    4935    455.45912       83 8.635339e-15           44            1           38  8.35397e-17 
    4940     456.5963       84 8.6651874e-15           44            1           39 8.3498005e-17 
    4945    457.75617       84 8.6951402e-15           44            1           39 8.3456332e-17 
    4950     459.8342       84 8.7251979e-15           44            1           39 8.3414681e-17 
    4955    465.00415       84 8.7553608e-15           44            1           39 8.337305e-17 
    4960    469.78045       84 8.7856294e-15           44            1           39 8.3331442e-17 
    4965    474.40842       84 8.8160038e-15           44            1           39 8.3289854e-17 
    4970    479.02077       84 8.8464846e-15           44            1           39 8.3248288e-17 
    4975    483.69313       86 8.8770721e-15           45            1           40 8.3206744e-17 
    4980    488.36453       87 8.9077667e-15           46            1           40 8.316522e-17 
    4985    488.82288       87 8.9385688e-15           46            1           40 8.3123719e-17 
    4990    489.77662       87 8.9694788e-15           46            1           40 8.3082238e-17 
    4995     490.6737       87 9.0004969e-15           46            1           40 8.3040779e-17 
    5000    491.62731       87 9.0316237e-15           46            1           40 8.2999341e-17 
Loop time of 491.627 on 1 procs for 5000 steps with 87 atoms

Performance: 31633717.410 tau/day, 10.170 timesteps/s
98.7% CPU use with 1 MPI tasks x no OpenMP threads

MPI task timing breakdown:
Section |  min time  |  avg time  |  max time  |%varavg| %total
---------------------------------------------------------------
Pair    | 0.045098   | 0.045098   | 0.045098   |   0.0 |  0.01
Neigh   | 10.523     | 10.523     | 10.523     |   0.0 |  2.14
Comm    | 0.066296   | 0.066296   | 0.066296   |   0.0 |  0.01
Output  | 0.040637   | 0.040637   | 0.040637   |   0.0 |  0.01
Modify  | 480.93     | 480.93     | 480.93     |   0.0 | 97.82
Other   |            | 0.02485    |            |       |  0.01

Nlocal:    87 ave 87 max 87 min
Histogram: 1 0 0 0 0 0 0 0 0 0
Nghost:    0 ave 0 max 0 min
Histogram: 1 0 0 0 0 0 0 0 0 0
Neighs:    372 ave 372 max 372 min
Histogram: 1 0 0 0 0 0 0 0 0 0

Total # of neighbors = 372
Ave neighs/atom = 4.27586
Neighbor list builds = 5000
Dangerous builds = 0


Total wall time: 0:08:14
