ITEM: TIMESTEP
0
ITEM: NUMBER OF ATOMS
5
ITEM: BOX BOUNDS ff ff ff
0 8e-05
0 8e-05
0 8e-05
type diameter mass x y z MR.HET MR.AOB MR.NOB MR.EPS
Floc 
