LAMMPS (5 Nov 2016)
# NUFEB simulation

atom_style	bio
atom_modify	map array sort 1000 5.0e-7
boundary	ff ff ff
newton		off
#processors  2 1 1

comm_modify	vel yes
read_data_bio atom.in
  orthogonal box = (0 0 0) to (0.0001 0.0001 0.0001)
  1 by 1 by 1 MPI processor grid
  reading atoms ...
  12 atoms
  10 nutrients

group AOB type 1
4 atoms in group AOB
group NOB type 2
4 atoms in group NOB
group COMM type 3
4 atoms in group COMM

neighbor	5.0e-7 bin
neigh_modify	delay 0 one 5000

#pair_style none
pair_style  gran/hooke/history 0.000200 NULL 0.000050 NULL 0.0 1

pair_coeff  * *
timestep 36

fix 1 all nve/limit 1e-8

#fix	 2 all gravity 1.47 vector 0 0 -1 # spherical 90.0 -180.0
#fix     3 all fdrag
fix 10 all viscous 0.1


fix xw all wall/gran hooke/history 2000 NULL 500.0 NULL 1.5 0 xplane  0.0   1.0e-04
fix yw all wall/gran hooke/history 2000 NULL 500.0 NULL 1.5 0 yplane  0.0   1.0e-04
fix zw all wall/gran hooke/history 2000 NULL 500.0 NULL 1.5 0 zplane  0.0   1.0e-04

variable kanc equal 50

fix xwa all walladh v_kanc xplane  0.0   1.0e-04
fix ywa all walladh v_kanc yplane  0.0   1.0e-04
fix zwa all walladh v_kanc zplane  0.0   1.0e-04

##############Ibm Variable Definitions##############

#Defining EPS density and ratio variables
variable EPSdens equal 30
variable EPSratio equal 1.25

variable ke equal 5e+10

#Defining kinetics variables
variable temp equal 298.15
variable gasTran equal 0.08205746
variable gvol equal 8e-14
variable rth equal 0.0083144
variable pressure equal 1
variable ph equal 7.0

#Defining diffusion variables
variable diffT equal 1e-3
variable tol equal 1e-8

##############Ibm functions##############

fix k1 all kinetics 25 25 25 v_temp v_rth v_gvol v_gasTran v_ph
fix g1 all diffusion exp v_diffT v_tol pp pp nd
fix ki3 all kinetics/ph 1
fix ki2 all kinetics/thermo 1 fix open v_pressure
fix ki1 all kinetics/monod 1 v_EPSdens
fix d1 all divide 1 v_EPSdens 1 3123

#fix j1 all epsadh 1 v_ke 1
#fix e1 HET eps_extract 16 v_EPSratio v_EPSdens 1242242

##############Ibm compute##############

compute myMass all biomass
compute myNtypes all ntypes

##############Simulation outputs##############

dump		id all custom 250 snapshot.bubblemd id type diameter x y z
dump            d0 all bio 500 Conc DGRAn DGRCat ph biomass gas
thermo_style    custom step cpu atoms biomass c_myNtypes[*]
thermo		10
thermo_modify	lost ignore

run  10000
Neighbor list info ...
  2 neighbor list requests
  update every 1 steps, delay 0 steps, check yes
  max neighbors/atom: 5000, page size: 100000
  master list distance cutoff = 1.466e-06
  ghost atom cutoff = 1.466e-06
  binsize = 7.33e-07 -> bins = 137 137 137
Memory usage per processor = 20.2453 Mbytes
Step CPU Atoms biomass c_myNtypes[1] c_myNtypes[2] c_myNtypes[3] 
       0            0       12 1.6425146e-15            4            4            4 
      10    5.1572762       12 1.651372e-15            4            4            4 
      20    5.9990802       12 1.6602536e-15            4            4            4 
      30     6.843668       12 1.6691922e-15            4            4            4 
      40    7.6741321       12 1.6782016e-15            4            4            4 
      50    8.5024612       12 1.6872697e-15            4            4            4 
      60    9.3772831       12 1.6963963e-15            4            4            4 
      70    10.190432       12 1.7055826e-15            4            4            4 
      80    11.012925       12 1.7148278e-15            4            4            4 
      90    11.843893       12 1.7241336e-15            4            4            4 
     100    12.696209       12 1.7334984e-15            4            4            4 
     110    13.551375       12 1.7429258e-15            4            4            4 
     120     14.44093       12 1.7524141e-15            4            4            4 
     130    15.274811       12 1.7619631e-15            4            4            4 
     140      16.1605       12 1.7715743e-15            4            4            4 
     150    17.073689       16 1.7812501e-15            8            4            4 
     160    17.896641       20 1.7909886e-15            8            4            8 
     170    18.738342       20 1.8007916e-15            8            4            8 
     180     19.57841       20 1.8106661e-15            8            4            8 
     190    20.456032       20 1.8206049e-15            8            4            8 
     200     21.33107       20 1.8306081e-15            8            4            8 
     210    22.220465       20 1.8406762e-15            8            4            8 
     220    23.063316       20 1.8508096e-15            8            4            8 
     230    23.889749       20 1.8610092e-15            8            4            8 
     240    24.715605       20 1.8712779e-15            8            4            8 
     250    25.563133       20 1.881614e-15            8            4            8 
     260    26.395023       20 1.8920177e-15            8            4            8 
     270    27.221174       20 1.9024891e-15            8            4            8 
     280    28.101526       20 1.9130287e-15            8            4            8 
     290    28.927445       20 1.9236371e-15            8            4            8 
     300    29.756063       20 1.9343145e-15            8            4            8 
     310    30.601072       20 1.9450616e-15            8            4            8 
     320    31.425033       20 1.9558788e-15            8            4            8 
     330    32.267564       20 1.9667665e-15            8            4            8 
     340     33.16193       20 1.9777253e-15            8            4            8 
     350    33.999229       20 1.9887555e-15            8            4            8 
     360    34.817888       20 1.9998603e-15            8            4            8 
     370    35.635536       20 2.0110421e-15            8            4            8 
     380    36.433357       20 2.0222975e-15            8            4            8 
     390    37.305762       20 2.0336265e-15            8            4            8 
     400    38.104241       20 2.0450297e-15            8            4            8 
     410    38.905212       20 2.0565074e-15            8            4            8 
     420    39.710005       20 2.0680602e-15            8            4            8 
     430    40.511976       20 2.0796885e-15            8            4            8 
     440    41.393262       20 2.0913929e-15            8            4            8 
     450    42.278744       20 2.1031738e-15            8            4            8 
     460    43.139164       20 2.1150318e-15            8            4            8 
     470    44.002001       24 2.1269673e-15            8            8            8 
     480    44.825098       24 2.1389809e-15            8            8            8 
     490    45.653736       24 2.151073e-15            8            8            8 
     500    46.686844       24 2.1632442e-15            8            8            8 
     510    47.485849       24 2.1754951e-15            8            8            8 
     520    48.283367       24 2.1878261e-15            8            8            8 
     530    49.083245       24 2.2002378e-15            8            8            8 
     540    49.890324       24 2.2127307e-15            8            8            8 
     550    50.683919       24 2.2253053e-15            8            8            8 
     560    51.470578       24 2.2379623e-15            8            8            8 
     570    52.261255       24 2.250702e-15            8            8            8 
     580    53.058433       24 2.2635252e-15            8            8            8 
     590    53.858461       24 2.2764323e-15            8            8            8 
     600    54.664659       24 2.289424e-15            8            8            8 
     610    55.493136       24 2.3025007e-15            8            8            8 
     620    56.341179       24 2.315663e-15            8            8            8 
     630    57.171868       24 2.3289115e-15            8            8            8 
     640    58.019748       24 2.3422469e-15            8            8            8 
     650    58.852135       24 2.3556712e-15            8            8            8 
     660    59.686801       24 2.3691848e-15            8            8            8 
     670    60.554968       24 2.382789e-15            8            8            8 
     680    61.413973       24 2.3964827e-15            8            8            8 
     690    62.274912       24 2.4102662e-15            8            8            8 
     700    63.122616       24 2.4241403e-15            8            8            8 
     710    63.988246       24 2.4381053e-15            8            8            8 
     720    64.832044       24 2.4521619e-15            8            8            8 
     730    65.691844       24 2.4663108e-15            8            8            8 
     740    66.558411       24 2.4805525e-15            8            8            8 
     750    79.807331       26 2.7628847e-15            8           10            8 
     760    80.656351       26 2.7779631e-15            8           10            8 
     770    81.468889       26 2.7931261e-15            8           10            8 
     780    82.275914       26 2.8083719e-15            8           10            8 
     790    83.078628       26 2.8236971e-15            8           10            8 
     800     83.87587       26 2.8390983e-15            8           10            8 
     810    84.665782       26 2.8545679e-15            8           10            8 
     820    85.457353       26 2.8701036e-15            8           10            8 
     830    86.239585       26 2.8856954e-15            8           10            8 
     840     87.04786       26 2.9013477e-15            8           10            8 
     850    87.811102       26 2.917059e-15            8           10            8 
     860    88.584647       26 2.9328484e-15            8           10            8 
     870     89.36063       26 2.9486881e-15            8           10            8 
     880    90.120276       27 2.9645902e-15            9           10            8 
     890    90.886355       28 2.9805456e-15           10           10            8 
     900      91.6541       28 2.9965847e-15           10           10            8 
     910    92.422974       29 3.0127025e-15           11           10            8 
     920    93.211185       29 3.0289087e-15           11           10            8 
     930    93.954663       29 3.0452035e-15           11           10            8 
     940    94.708642       29 3.0615708e-15           11           10            8 
     950    95.462773       29 3.0780398e-15           11           10            8 
     960    96.208614       30 3.0945855e-15           11           10            9 
     970    96.935542       30 3.1112667e-15           11           10            9 
     980     97.69025       30 3.1280129e-15           11           10            9 
     990    98.491197       30 3.1449288e-15           11           10            9 
    1000    99.492655       30 3.162037e-15           11           10            9 
    1010    100.22583       30 3.1790516e-15           11           10            9 
    1020    100.95635       31 3.1961819e-15           11           10           10 
    1030    101.65979       31 3.213404e-15           11           10           10 
    1040    102.39128       32 3.230774e-15           11           10           11 
    1050     103.1003       32 3.2482396e-15           11           10           11 
    1060    103.90378       33 3.2658538e-15           12           10           11 
    1070    104.62015       33 3.2835655e-15           12           10           11 
    1080    105.32222       33 3.3013541e-15           12           10           11 
    1090    106.07631       33 3.319386e-15           12           10           11 
    1100    106.76299       33 3.3374695e-15           12           10           11 
    1110     107.4747       33 3.3556282e-15           12           10           11 
    1120    108.19614       33 3.3740375e-15           12           10           11 
    1130    108.88392       34 3.3925012e-15           12           10           12 
    1140      109.596       34 3.4110908e-15           12           10           12 
    1150    110.33268       34 3.4298304e-15           12           10           12 
    1160    111.03004       34 3.4486826e-15           12           10           12 
    1170     111.7219       34 3.4676636e-15           12           10           12 
    1180    112.42972       34 3.4867741e-15           12           10           12 
    1190    113.15741       34 3.5060149e-15           12           10           12 
    1200    113.88655       34 3.5253352e-15           12           10           12 
    1210    114.61913       35 3.5449187e-15           13           10           12 
    1220    115.32832       35 3.564565e-15           13           10           12 
    1230    116.05677       37 3.5843455e-15           13           11           13 
    1240    116.74303       37 3.6042611e-15           13           11           13 
    1250    117.45742       37 3.6243127e-15           13           11           13 
    1260    118.17811       37 3.6445013e-15           13           11           13 
    1270    118.93583       37 3.6648501e-15           13           11           13 
    1280    119.67585       37 3.6853247e-15           13           11           13 
    1290    120.35946       37 3.7059394e-15           13           11           13 
    1300    121.05296       37 3.726695e-15           13           11           13 
    1310    121.73519       37 3.7475925e-15           13           11           13 
    1320    122.43299       37 3.7686329e-15           13           11           13 
    1330    123.18032       38 3.7898172e-15           13           11           14 
    1340    123.89808       38 3.811166e-15           13           11           14 
    1350    124.60652       38 3.8326507e-15           13           11           14 
    1360    125.29647       39 3.8542827e-15           13           11           15 
    1370    125.98554       39 3.8760628e-15           13           11           15 
    1380    126.68251       39 3.897992e-15           13           11           15 
    1390    127.39269       40 3.9200713e-15           14           11           15 
    1400    128.11004       40 3.9423017e-15           14           11           15 
    1410    128.82809       41 3.9646844e-15           15           11           15 
    1420    129.58773       41 3.987242e-15           15           11           15 
    1430    130.32599       43 4.0099427e-15           16           11           16 
    1440    131.02446       43 4.032799e-15           16           11           16 
    1450    131.72803       43 4.0558119e-15           16           11           16 
    1460    132.44043       43 4.0789826e-15           16           11           16 
    1470    133.14406       43 4.102312e-15           16           11           16 
    1480     133.8707       43 4.1258014e-15           16           11           16 
    1490    134.63764       43 4.1493912e-15           16           11           16 
    1500    135.59637       43 4.1732843e-15           16           11           16 
    1510    136.30027       43 4.1972714e-15           16           11           16 
    1520    137.00595       43 4.2214231e-15           16           11           16 
    1530    137.72473       43 4.2457406e-15           16           11           16 
    1540    138.42387       43 4.2702249e-15           16           11           16 
    1550    139.14387       43 4.2948771e-15           16           11           16 
    1560    139.84631       43 4.3196985e-15           16           11           16 
    1570    140.55393       43 4.3446902e-15           16           11           16 
    1580    141.29517       43 4.3697905e-15           16           11           16 
    1590    142.02915       43 4.3952071e-15           16           11           16 
    1600    142.73083       43 4.4207288e-15           16           11           16 
    1610    143.43631       44 4.4464259e-15           17           11           16 
    1620     144.1433       44 4.4722994e-15           17           11           16 
    1630    144.85748       44 4.4983506e-15           17           11           16 
    1640    145.56519       44 4.5245807e-15           17           11           16 
    1650    146.28883       44 4.5509909e-15           17           11           16 
    1660     147.0303       44 4.5775824e-15           17           11           16 
    1670    147.72747       45 4.6043565e-15           18           11           16 
    1680    148.46146       45 4.6313271e-15           18           11           16 
    1690    149.16317       45 4.6584828e-15           18           11           16 
    1700     149.9086       45 4.6858252e-15           18           11           16 
    1710    150.61648       45 4.7133555e-15           18           11           16 
    1720     151.3349       45 4.741075e-15           18           11           16 
    1730    152.03773       45 4.7689849e-15           18           11           16 
    1740    152.73727       46 4.7970866e-15           18           11           17 
    1750    153.44246       46 4.8253813e-15           18           11           17 
    1760    154.14178       46 4.8538704e-15           18           11           17 
    1770    154.86432       46 4.8825589e-15           18           11           17 
    1780    155.54954       47 4.9114531e-15           18           11           18 
    1790    156.24076       48 4.9405463e-15           19           11           18 
    1800    156.93889       48 4.9698395e-15           19           11           18 
    1810    157.63754       48 4.9993341e-15           19           11           18 
    1820    158.33445       48 5.0290314e-15           19           11           18 
    1830    159.01948       48 5.0589327e-15           19           11           18 
    1840    159.74046       48 5.0890395e-15           19           11           18 
    1850    160.45604       48 5.1193532e-15           19           11           18 
    1860    161.26099       48 5.1498745e-15           19           11           18 
    1870    161.99771       48 5.1806191e-15           19           11           18 
    1880    162.71324       48 5.2115757e-15           19           11           18 
    1890    163.42217       49 5.2427451e-15           20           11           18 
    1900     164.1403       49 5.2741289e-15           20           11           18 
    1910    164.83383       49 5.3057282e-15           20           11           18 
    1920    165.53309       49 5.3375447e-15           20           11           18 
    1930    166.27605       49 5.3695798e-15           20           11           18 
    1940    166.98589       49 5.4018349e-15           20           11           18 
    1950     167.7656       49 5.4343047e-15           20           11           18 
    1960    168.50852       49 5.4670182e-15           20           11           18 
    1970    169.26951       49 5.4999573e-15           20           11           18 
    1980    169.98289       49 5.5331229e-15           20           11           18 
    1990     170.6843       51 5.5665163e-15           21           11           19 
    2000     171.6234       51 5.6001391e-15           21           11           19 
    2010    172.31057       52 5.6339928e-15           22           11           19 
    2020    172.99567       52 5.6680789e-15           22           11           19 
    2030    173.70004       52 5.7023176e-15           22           11           19 
    2040    174.43693       52 5.7369707e-15           22           11           19 
    2050    175.13657       53 5.7717865e-15           22           11           20 
    2060    175.82461       53 5.8068419e-15           22           11           20 
    2070    176.53714       53 5.8421381e-15           22           11           20 
    2080    177.21614       53 5.8776767e-15           22           11           20 
    2090    177.89536       54 5.9134592e-15           23           11           20 
    2100    178.57778       54 5.9494872e-15           23           11           20 
    2110    179.27457       54 5.9857624e-15           23           11           20 
    2120     179.9549       54 6.0222864e-15           23           11           20 
    2130    180.64055       55 6.0590608e-15           23           11           21 
    2140     181.3202       55 6.0960873e-15           23           11           21 
    2150     182.0675       55 6.1332964e-15           23           11           21 
    2160    182.81407       56 6.1709477e-15           23           11           22 
    2170    183.51728       56 6.2087652e-15           23           11           22 
    2180    184.20671       57 6.2468426e-15           24           11           22 
    2190    184.90632       58 6.2851811e-15           25           11           22 
    2200    185.61633       58 6.3237825e-15           25           11           22 
    2210    186.31687       58 6.3626483e-15           25           11           22 
    2220    187.01213       59 6.4017802e-15           25           11           23 
    2230    187.74445       59 6.4411801e-15           25           11           23 
    2240    188.43723       60 6.4808497e-15           25           11           24 
    2250     189.1714       60 6.5207746e-15           25           11           24 
    2260    189.87846       60 6.5610056e-15           25           11           24 
    2270    190.56407       60 6.6015135e-15           25           11           24 
    2280    191.24348       61 6.642299e-15           25           11           25 
    2290    191.92931       61 6.6833637e-15           25           11           25 
    2300    192.66336       61 6.7246804e-15           25           11           25 
    2310    193.42582       61 6.7664934e-15           25           11           25 
    2320    194.12265       62 6.8084543e-15           25           11           26 
    2330    194.80411       63 6.8507037e-15           25           11           27 
    2340    195.48821       63 6.8932425e-15           25           11           27 
    2350    196.17525       64 6.936072e-15           25           11           28 
    2360    196.86556       67 6.9791942e-15           27           11           29 
    2370    197.55024       70 7.0226108e-15           29           11           30 
    2380    198.23671       72 7.0663236e-15           31           11           30 
    2390    198.92514       72 7.1103347e-15           31           11           30 
    2400    199.62355       72 7.1546458e-15           31           11           30 
    2410     200.3291       73 7.199259e-15           32           11           30 
    2420    201.02418       75 7.2441762e-15           34           11           30 
    2430    201.78563       75 7.2894395e-15           34           11           30 
    2440     202.4941       75 7.3350462e-15           34           11           30 
    2450    203.27493       75 7.3811891e-15           34           11           30 
    2460    204.06561       75 7.4276693e-15           34           11           30 
    2470     204.8637       75 7.4744907e-15           34           11           30 
    2480    205.63139       76 7.5216516e-15           34           12           30 
    2490    206.39338       76 7.5691528e-15           34           12           30 
    2500    207.37657       76 7.6169972e-15           34           12           30 
    2510    208.16171       76 7.6651857e-15           34           12           30 
    2520    208.93619       76 7.7137194e-15           34           12           30 
    2530    209.69758       76 7.7625971e-15           34           12           30 
    2540    210.47317       77 7.8118123e-15           34           12           31 
    2550     211.3072       77 7.8613724e-15           34           12           31 
    2560    212.09201       78 7.9112724e-15           34           12           32 
    2570    212.85167       78 7.9614957e-15           34           12           32 
    2580    213.62782       78 8.0120815e-15           34           12           32 
    2590    214.38765       80 8.063022e-15           34           13           33 
    2600    215.16115       80 8.1143401e-15           34           13           33 
    2610    215.93917       80 8.1659899e-15           34           13           33 
    2620     216.7146       80 8.2180035e-15           34           13           33 
    2630    217.48978       81 8.2703239e-15           34           13           34 
    2640     218.2709       81 8.3230121e-15           34           13           34 
    2650     219.0088       83 8.3760595e-15           36           13           34 
    2660    219.70926       83 8.429463e-15           36           13           34 
    2670    220.41621       83 8.4832246e-15           36           13           34 
    2680    221.16915       83 8.5373155e-15           36           13           34 
    2690      221.892       84 8.5918971e-15           36           14           34 
    2700    222.65239       84 8.6468049e-15           36           14           34 
    2710    223.37418       84 8.7021187e-15           36           14           34 
    2720     224.1233       85 8.757829e-15           36           15           34 
    2730    224.80043       85 8.8138575e-15           36           15           34 
    2740    225.47062       85 8.8702618e-15           36           15           34 
    2750    226.19942       86 8.9270023e-15           37           15           34 
    2760    226.93893       86 8.9842988e-15           37           15           34 
    2770    227.69791       86 9.0419719e-15           37           15           34 
    2780    228.44155       86 9.0999421e-15           37           15           34 
    2790    229.22942       86 9.1584523e-15           37           15           34 
    2800    229.97092       86 9.2173061e-15           37           15           34 
    2810     230.7185       86 9.2765813e-15           37           15           34 
    2820     231.4546       86 9.3362173e-15           37           15           34 
    2830    232.20556       86 9.3963121e-15           37           15           34 
    2840    232.97755       86 9.4568163e-15           37           15           34 
    2850    233.75742       86 9.5177381e-15           37           15           34 
    2860     234.5419       87 9.5790796e-15           37           16           34 
    2870    235.33394       88 9.6408407e-15           38           16           34 
    2880    236.11811       89 9.7030228e-15           39           16           34 
    2890    236.90995       91  9.76563e-15           39           16           36 
    2900     237.7032       92 9.8286647e-15           40           16           36 
    2910    238.50424       94 9.8921362e-15           41           16           37 
    2920    239.30088       94 9.9560405e-15           41           16           37 
    2930    240.12845       94 1.0020379e-14           41           16           37 
    2940    240.93097       95 1.0085153e-14           42           16           37 
    2950    241.73907       95 1.0150365e-14           42           16           37 
    2960    242.54774       96 1.0216016e-14           42           16           38 
    2970    243.35939       96 1.0282113e-14           42           16           38 
    2980    244.16766       97 1.0348656e-14           43           16           38 
    2990     244.9683       97 1.0415646e-14           43           16           38 
    3000    246.01322       98 1.0483089e-14           43           17           38 
    3010    246.82657       98 1.0550986e-14           43           17           38 
    3020    247.63375       98 1.0619339e-14           43           17           38 
    3030    248.44955       99 1.068815e-14           44           17           38 
    3040     249.2798       99 1.0757421e-14           44           17           38 
    3050    250.08817       99 1.0827154e-14           44           17           38 
    3060    250.90411       99 1.0897352e-14           44           17           38 
    3070    251.74108      101 1.0968018e-14           44           17           40 
    3080    252.54382      104 1.1039154e-14           45           18           41 
    3090    253.39736      104 1.1110763e-14           45           18           41 
    3100     254.2826      106 1.1182988e-14           45           18           43 
    3110    255.11744      106 1.125589e-14           45           18           43 
    3120    255.93569      109 1.1329282e-14           47           18           44 
    3130    256.75864      112 1.1403168e-14           49           18           45 
    3140    257.63266      112 1.1477549e-14           49           18           45 
    3150    258.48887      113 1.155243e-14           50           18           45 
    3160     259.3205      116 1.1627813e-14           52           18           46 
    3170    260.13265      117 1.1703702e-14           52           18           47 
    3180    260.96869      118 1.1780099e-14           52           18           48 
    3190    261.78803      118 1.1857009e-14           52           18           48 
    3200    262.60825      119 1.1934433e-14           52           18           49 
    3210    263.41265      120 1.2012374e-14           53           18           49 
    3220    264.22347      121 1.2090833e-14           54           18           49 
    3230    265.03532      121 1.2169814e-14           54           18           49 
    3240    265.85375      121 1.224932e-14           54           18           49 
    3250     266.6639      121 1.2329355e-14           54           18           49 
    3260    267.49065      122 1.2409921e-14           55           18           49 
    3270    268.30399      122 1.2491024e-14           55           18           49 
    3280    269.11389      124 1.2572664e-14           55           19           50 
    3290    269.95006      125 1.2654847e-14           55           19           51 
    3300    270.75811      125 1.2737576e-14           55           19           51 
    3310    271.56667      126 1.2820853e-14           55           19           52 
    3320    272.37511      126 1.2904683e-14           55           19           52 
    3330    273.19123      128 1.2989069e-14           57           19           52 
    3340    274.01148      128 1.3074015e-14           57           19           52 
    3350    274.84084      130 1.3159522e-14           58           19           53 
    3360    275.71389      130 1.3245596e-14           58           19           53 
    3370    276.53814      130 1.333224e-14           58           19           53 
    3380    277.36468      130 1.3419458e-14           58           19           53 
    3390    278.19067      131 1.3507254e-14           59           19           53 
    3400    279.03353      131 1.3595631e-14           59           19           53 
    3410    279.86509      134 1.3684594e-14           60           19           55 
    3420    280.69214      136 1.3774147e-14           61           20           55 
    3430      281.519      136 1.3864294e-14           61           20           55 
    3440    282.34623      137 1.3955038e-14           61           20           56 
    3450    283.17146      137 1.4046383e-14           61           20           56 
    3460    284.04115      138 1.4138334e-14           62           20           56 
    3470    284.86339      139 1.4230894e-14           63           20           56 
    3480    285.69909      140 1.4324068e-14           64           20           56 
    3490     286.5348      140 1.4417857e-14           64           20           56 
    3500    287.59558      140 1.4512268e-14           64           20           56 
    3510    288.44834      140 1.4607305e-14           64           20           56 
    3520    289.28882      140 1.4702971e-14           64           20           56 
    3530    290.12966      142 1.4799272e-14           64           20           58 
    3540    290.97215      143 1.4896211e-14           64           20           59 
    3550     291.8121      143 1.4993793e-14           64           20           59 
    3560    292.65195      145 1.5092022e-14           64           21           60 
    3570    293.49354      145 1.5190903e-14           64           21           60 
    3580    294.33242      147 1.5290439e-14           66           21           60 
    3590    295.17175      149 1.5390636e-14           66           21           62 
    3600       296.06      149 1.5491498e-14           66           21           62 
    3610    296.91465      151 1.5593031e-14           68           21           62 
    3620    297.80507      152 1.5695237e-14           69           21           62 
    3630     298.6612      152 1.5798121e-14           69           21           62 
    3640    299.52062      156 1.5901687e-14           71           21           64 
    3650    300.37348      158 1.6005942e-14           73           21           64 
    3660    301.22318      160 1.6110889e-14           74           21           65 
    3670    302.06836      161 1.6216534e-14           75           21           65 
    3680     302.9244      161 1.6322881e-14           75           21           65 
    3690    303.77687      161 1.6429935e-14           75           21           65 
    3700    304.67908      162 1.6537635e-14           76           21           65 
    3710    305.52558      162 1.6646673e-14           76           21           65 
    3720    306.37593      163 1.6756418e-14           76           21           66 
    3730    307.22665      163 1.6866893e-14           76           21           66 
    3740    308.08757      164 1.6978107e-14           76           21           67 
    3750    308.94946      164 1.7090066e-14           76           21           67 
    3760    309.78951      165 1.7202776e-14           77           21           67 
    3770    310.62984      165 1.7316241e-14           77           21           67 
    3780    311.54686      168 1.7430468e-14           79           21           68 
    3790     312.3989      168 1.7545465e-14           79           21           68 
    3800    313.24291      170 1.7661233e-14           80           22           68 
    3810    314.09024      170 1.777778e-14           80           22           68 
    3820    314.93997      170 1.7895108e-14           80           22           68 
    3830    315.82258      171 1.8013224e-14           80           22           69 
    3840    316.71757      173 1.8132648e-14           82           22           69 
    3850    317.70995      175 1.8253616e-14           82           23           70 
    3860    318.70312      175 1.8375392e-14           82           23           70 
    3870    319.69653      178 1.8497985e-14           83           23           72 
    3880    320.72568      179 1.8621401e-14           84           23           72 
    3890    321.72837      180 1.8745645e-14           84           23           73 
    3900    322.73225      181 1.8870726e-14           84           23           74 
    3910    323.73672      181 1.8996649e-14           84           23           74 
    3920    324.73791      183 1.9123421e-14           84           23           76 
    3930    325.74342      184 1.925105e-14           85           23           76 
    3940    326.80921      188 1.9379541e-14           85           24           79 
    3950    327.80958      189 1.9508901e-14           85           24           80 
    3960    328.81572      190 1.9639136e-14           86           24           80 
    3970    329.81783      190 1.9770251e-14           86           24           80 
    3980    330.84817      192 1.9902252e-14           87           24           81 
    3990    331.85401      192 2.0035146e-14           87           24           81 
    4000    333.10764      193 2.0168937e-14           88           24           81 
    4010    334.16086      194 2.0303632e-14           88           25           81 
    4020    335.16759      194 2.0439239e-14           88           25           81 
    4030    336.16336      195 2.0575766e-14           89           25           81 
    4040    337.15767      196 2.0713216e-14           89           25           82 
    4050    338.15011      197 2.0851597e-14           90           25           82 
    4060    339.14145      199 2.0990914e-14           91           25           83 
    4070    340.13357      200 2.1131175e-14           92           25           83 
    4080    341.13386      200 2.1272385e-14           92           25           83 
    4090    342.17035      202 2.1414551e-14           93           25           84 
    4100    343.23149      202 2.1557679e-14           93           25           84 
    4110    344.27197      202 2.1701775e-14           93           25           84 
    4120    345.27212      205 2.1846847e-14           95           25           85 
    4130    346.31719      206 2.1992902e-14           96           25           85 
    4140    347.35045      209 2.2139947e-14           98           25           86 
    4150    348.39066      211 2.2287988e-14           99           25           87 
    4160    349.43526      213 2.243707e-14          100           25           88 
    4170      350.497      214 2.2587223e-14          100           25           89 
    4180    351.64928      216 2.2738464e-14          101           25           90 
    4190     352.7431      216 2.2890823e-14          101           25           90 
    4200    353.83866      218 2.3044169e-14          101           25           92 
    4210    354.92318      219 2.3198737e-14          102           25           92 
    4220      356.015      220 2.3354312e-14          102           25           93 
    4230    357.11332      221 2.3510998e-14          103           25           93 
    4240    358.20989      222 2.3668802e-14          103           25           94 
    4250    359.36746      222 2.3827737e-14          103           25           94 
    4260    360.46941      224 2.3987808e-14          104           25           95 
    4270    361.60177      225 2.414901e-14          105           25           95 
    4280    362.70735      229 2.431135e-14          109           25           95 
    4290    363.85162      232 2.447483e-14          111           25           96 
    4300    364.95269      235 2.4639454e-14          113           26           96 
    4310    366.07326      238 2.4805222e-14          115           26           97 
    4320    367.18718      240 2.4972141e-14          115           26           99 
    4330    368.32639      241 2.5140216e-14          116           26           99 
    4340    369.44129      243 2.5309446e-14          116           26          101 
    4350    370.54714      243 2.5479829e-14          116           26          101 
    4360    371.65854      246 2.5651373e-14          118           27          101 
    4370     372.7888      246 2.582409e-14          118           27          101 
    4380    373.91348      248 2.5997989e-14          119           27          102 
    4390    375.03122      250 2.6173077e-14          120           27          103 
    4400    376.17293      253 2.6349435e-14          122           27          104 
    4410    377.28775      257 2.6527032e-14          124           27          106 
    4420    378.42506      260 2.6705941e-14          126           27          107 
    4430    379.56678      261 2.688604e-14          127           27          107 
    4440     380.6648      263 2.7067514e-14          127           27          109 
    4450    381.73466      263 2.7250242e-14          127           27          109 
    4460    382.80878      265 2.7434192e-14          129           27          109 
    4470    383.88164      267 2.761951e-14          129           27          111 
    4480    384.96614      267 2.7806135e-14          129           27          111 
    4490    386.05982      268 2.7994099e-14          129           27          112 
    4500    387.36064      271 2.8183402e-14          130           27          114 
    4510    388.50176      272 2.8374034e-14          130           27          115 
    4520    389.61877      273 2.856604e-14          131           27          115 
    4530    390.70107      276 2.8759397e-14          132           28          116 
    4540    391.78854      279 2.8954114e-14          134           28          117 
    4550    392.87675      279 2.9150226e-14          134           28          117 
    4560    393.96547      283 2.9347838e-14          136           29          118 
    4570    395.05917      284 2.9546809e-14          136           30          118 
    4580    396.14777      287 2.9747158e-14          139           30          118 
    4590    397.23521      287 2.9948882e-14          139           30          118 
    4600     398.3365      293 3.0151978e-14          141           32          120 
    4610     399.4395      293 3.0356475e-14          141           32          120 
    4620    400.54069      296 3.0562375e-14          144           32          120 
    4630     401.6396      300 3.0769664e-14          146           32          122 
    4640    402.73891      300 3.0978376e-14          146           32          122 
    4650    403.88786      302 3.1188525e-14          146           32          124 
    4660    405.04905      304 3.1400118e-14          147           32          125 
    4670    406.16416      304 3.1613164e-14          147           32          125 
    4680    407.26439      308 3.1827675e-14          148           33          127 
    4690     408.3586      311 3.2043656e-14          150           33          128 
    4700    409.45925      313 3.2261119e-14          150           33          130 
    4710    410.60705      314  3.24801e-14          150           33          131 
    4720    411.71809      318 3.2700643e-14          151           35          132 
    4730    412.82966      319 3.2922719e-14          151           35          133 
    4740    413.93895      319 3.3146319e-14          151           35          133 
    4750    415.04499      320 3.3371454e-14          151           35          134 
    4760    416.15026      321 3.3598134e-14          152           35          134 
    4770    417.26218      323 3.3826369e-14          153           35          135 
    4780    418.41016      325 3.4056172e-14          153           35          137 
    4790     419.5219      330 3.4287553e-14          157           36          137 
    4800     420.6364      331 3.4520519e-14          157           36          138 
    4810    421.79099      333 3.4755083e-14          158           36          139 
    4820    422.95675      334 3.4991258e-14          159           36          139 
    4830    424.12922      337 3.522905e-14          160           36          141 
    4840    425.32738      338 3.5468485e-14          160           36          142 
    4850    426.46358      341 3.570958e-14          160           36          145 
    4860    427.59652      343 3.5952334e-14          161           37          145 
    4870    428.72397      345 3.6196753e-14          162           37          146 
    4880    429.85299      347 3.644287e-14          164           37          146 
    4890    430.98116      351 3.6690682e-14          166           38          147 
    4900    432.14323      354 3.6940195e-14          168           39          147 
    4910    433.29355      356 3.7191418e-14          168           41          147 
    4920    434.45823      358 3.7444365e-14          169           42          147 
    4930    435.65314      359 3.7699047e-14          170           42          147 
    4940    436.82042      362 3.7955477e-14          171           42          149 
    4950    437.97718      364 3.8213664e-14          171           42          151 
    4960    439.12506      370 3.8473622e-14          176           42          152 
    4970    440.34599      371 3.8735362e-14          177           42          152 
    4980     441.5031      373 3.8998898e-14          178           42          153 
    4990    442.65242      376 3.9264244e-14          179           42          155 
    5000    444.04486      379 3.9531413e-14          181           42          156 
    5010     445.3688      380 3.9800414e-14          181           42          157 
    5020     446.5157      381 4.0071261e-14          182           42          157 
    5030    447.71666      381 4.0343967e-14          182           42          157 
    5040    448.91641      383 4.0618544e-14          182           42          159 
    5050     450.2134      386 4.0895005e-14          184           42          160 
    5060    451.43242      389 4.1173362e-14          186           42          161 
    5070    452.71059      392 4.145363e-14          187           42          163 
    5080    453.88143      395 4.173582e-14          190           42          163 
    5090    455.10729      398 4.2019947e-14          191           42          165 
    5100    456.38483      401 4.2306023e-14          193           42          166 
    5110    457.63477      405 4.2594063e-14          197           42          166 
    5120    458.82356      407 4.2884078e-14          198           42          167 
    5130    459.99107      411 4.3176084e-14          200           42          169 
    5140    461.15591      412 4.3470092e-14          200           42          170 
    5150    462.33386      415 4.3766119e-14          200           43          172 
    5160    463.51502      419 4.4064177e-14          203           43          173 
    5170    464.69555      423 4.436428e-14          205           43          175 
    5180    465.86092      427 4.4666441e-14          206           43          178 
    5190    467.05446      428 4.4970675e-14          207           43          178 
    5200    468.27887      430 4.5276997e-14          209           43          178 
    5210    469.45982      439 4.5585419e-14          213           43          183 
    5220     470.6169      440 4.5895958e-14          213           43          184 
    5230    471.77928      442 4.6208627e-14          214           43          185 
    5240    472.96903      443 4.6523444e-14          214           43          186 
    5250    474.16495      445 4.684042e-14          216           43          186 
    5260    475.33757      451 4.7159572e-14          220           43          188 
    5270    476.55948      452 4.7480914e-14          220           43          189 
    5280    477.78013      458 4.7804461e-14          223           43          192 
    5290    478.96463      463 4.813023e-14          225           44          194 
    5300     480.1482      467 4.8458235e-14          226           45          196 
    5310    481.31859      472 4.8788492e-14          227           45          200 
    5320    482.47646      475 4.9121017e-14          229           46          200 
    5330    483.65596      480 4.9455825e-14          231           47          202 
    5340    484.84633      484 4.979293e-14          232           47          205 
    5350    486.05406      489 5.013235e-14          235           48          206 
    5360    487.31425      491 5.0474099e-14          235           48          208 
    5370    488.60514      494 5.0818195e-14          236           48          210 
    5380    489.87109      496 5.1164654e-14          237           49          210 
    5390    491.14204      500 5.1513492e-14          239           49          212 
    5400    492.44447      504 5.1864725e-14          243           49          212 
    5410    493.72214      505 5.2218369e-14          244           49          212 
    5420    494.99689      510 5.2574439e-14          249           49          212 
    5430    496.27387      513 5.2932954e-14          252           49          212 
    5440    497.58711      516 5.3293931e-14          252           49          215 
    5450    498.97245      518 5.3657385e-14          254           49          215 
    5460    500.38683      519 5.4023334e-14          255           49          215 
    5470    501.74407      521 5.4391796e-14          257           49          215 
    5480    503.05683      524 5.4762788e-14          260           49          215 
    5490     504.4357      525 5.5136327e-14          261           49          215 
    5500    505.94572      528 5.551243e-14          262           49          217 
    5510    507.23818      532 5.5891116e-14          264           49          219 
    5520    508.53412      538 5.6272402e-14          270           49          219 
    5530    509.90969      544 5.6656305e-14          273           49          222 
    5540     511.2613      548 5.7042846e-14          275           49          224 
    5550    512.69639      551 5.7432041e-14          276           51          224 
    5560     514.0632      557 5.7823913e-14          279           51          227 
    5570    515.40069      561 5.8218482e-14          280           51          230 
    5580    516.71212      564 5.8615762e-14          281           52          231 
    5590    518.11751      566 5.901577e-14          282           52          232 
    5600    519.58245      572 5.9418525e-14          285           53          234 
    5610    520.98288      572 5.9824046e-14          285           53          234 
    5620    522.34001      577 6.0232352e-14          288           53          236 
    5630    523.75824      579 6.0643462e-14          288           53          238 
    5640    525.19422      581 6.1057396e-14          288           53          240 
    5650     526.5131      588 6.1474172e-14          291           54          243 
    5660    527.95135      591 6.189381e-14          292           56          243 
    5670    529.26988      594 6.2316331e-14          293           57          244 
    5680    530.63121      596 6.2741752e-14          295           57          244 
    5690    531.90975      603 6.3170095e-14          298           57          248 
    5700    533.22348      608 6.360138e-14          300           57          251 
    5710    534.62576      611 6.4035628e-14          301           57          253 
    5720    535.90587      618 6.447286e-14          305           57          256 
    5730    537.17719      622 6.4913096e-14          306           58          258 
    5740    538.46626      626 6.5356358e-14          308           58          260 
    5750    539.74889      632 6.5802665e-14          308           59          265 
    5760     541.1094      638 6.6252038e-14          310           59          269 
    5770    542.45883      641 6.6704498e-14          312           59          270 
    5780    543.82762      642 6.7160066e-14          312           59          271 
    5790    545.19127      648 6.7618764e-14          315           59          274 
    5800    546.32948      652 6.8082735e-14          318           59          275 
    5810    547.45089      658 6.8549864e-14          321           61          276 
    5820    548.55408      662 6.9020391e-14          321           61          280 
    5830    549.55379      663 6.9495126e-14          322           61          280 
    5840    550.41505      667 6.9974211e-14          326           61          280 
    5850    551.32986      673 7.0455631e-14          328           62          283 
    5860    552.28349      676 7.0940117e-14          328           64          284 
    5870    553.09938      683 7.1429132e-14          334           64          285 
    5880    554.05545      685 7.1920408e-14          336           64          285 
    5890    555.01491      687 7.2414968e-14          336           64          287 
    5900    555.84801      694 7.291431e-14          341           64          289 
    5910    556.92312      700 7.3414802e-14          346           64          290 
    5920    558.18016      703 7.3916991e-14          348           64          291 
    5930    559.53283      706 7.4421983e-14          350           65          291 
    5940    560.79237      712 7.4931378e-14          355           66          291 
    5950    561.99813      717 7.5444799e-14          358           66          293 
    5960    563.02916      724 7.5963316e-14          362           66          296 
    5970    564.08289      727 7.6484943e-14          362           66          299 
    5980    565.07709      732 7.7010652e-14          366           66          300 
    5990    566.17946      738 7.7539225e-14          369           67          302 
    6000    567.35234      740 7.8072768e-14          370           67          303 
    6010    568.12097      748 7.8611234e-14          372           67          309 
    6020    568.90709      752 7.9153384e-14          374           67          311 
    6030    569.68938      758 7.9699273e-14          377           67          314 
    6040    570.48116      764 8.0248947e-14          381           67          316 
    6050    571.26216      771 8.0802409e-14          385           67          319 
    6060    572.07395      777 8.1359688e-14          388           67          322 
    6070    572.89264      784 8.1920812e-14          393           67          324 
    6080    573.71691      787 8.2485809e-14          395           68          324 
    6090    574.55962      796 8.3054707e-14          399           70          327 
    6100    575.40374      803 8.3627531e-14          401           71          331 
    6110    576.24819      811 8.4204308e-14          406           71          334 
    6120    577.07204      815 8.4785067e-14          408           71          336 
    6130    577.84546      820 8.536983e-14          411           72          337 
    6140    578.72168      827 8.5958514e-14          411           72          344 
    6150    579.68639      833 8.6550565e-14          416           73          344 
    6160    580.54525      838 8.7147185e-14          417           73          348 
    6170     581.3868      847 8.7748135e-14          423           73          351 
    6180    582.24602      851 8.8353402e-14          423           73          355 
    6190    583.09826      858 8.8962871e-14          427           74          357 
    6200    583.96189      867 8.9576574e-14          430           76          361 
    6210    584.78046      873 9.019451e-14          431           78          364 
    6220    585.60124      876 9.0816705e-14          432           78          366 
    6230    586.43307      880 9.1443196e-14          435           79          366 
    6240    587.28744      886 9.2074016e-14          440           79          367 
    6250     588.1216      891 9.2709191e-14          443           79          369 
    6260    588.96156      900 9.3348747e-14          447           80          373 
    6270    589.80919      905 9.3992721e-14          449           82          374 
    6280     590.6581      909 9.4641144e-14          451           82          376 
    6290    591.60489      919 9.5294051e-14          454           82          383 
    6300    592.49098      926 9.5951491e-14          459           83          384 
    6310    593.35592      934 9.6613481e-14          464           83          387 
    6320    594.20604      937 9.728005e-14          464           83          390 
    6330    595.04289      942 9.7951223e-14          469           83          390 
    6340    595.87203      948 9.8627039e-14          473           83          392 
    6350    596.76434      955 9.9307525e-14          479           83          393 
    6360    597.69623      960 9.999271e-14          480           83          397 
    6370     598.5952      967 1.0068262e-13          484           83          400 
    6380    599.52728      971 1.0137729e-13          485           84          402 
    6390    600.45845      977 1.0207676e-13          491           84          402 
    6400    601.35558      981 1.0278106e-13          492           85          404 
    6410    602.25782      985 1.0349022e-13          494           85          406 
    6420     603.1192      994 1.0420429e-13          498           85          411 
    6430    604.02597      996 1.0492328e-13          500           85          411 
    6440    604.89627     1004 1.0564724e-13          505           85          414 
    6450    605.77056     1014 1.0637619e-13          511           86          417 
    6460    606.64865     1020 1.0711016e-13          517           86          417 
    6470    607.54369     1028 1.0784919e-13          520           86          422 
    6480    608.41244     1033 1.0859334e-13          521           87          425 
    6490    609.27442     1043 1.0934262e-13          524           89          430 
    6500    610.37471     1052 1.1009708e-13          530           89          433 
    6510    611.24334     1060 1.1085675e-13          536           89          435 
    6520    612.12626     1067 1.1162166e-13          543           89          435 
    6530    613.01267     1076 1.1239185e-13          547           90          439 
    6540     613.9526     1082 1.1316736e-13          551           90          441 
    6550    614.84703     1091 1.1394823e-13          552           92          447 
    6560    615.74288     1096 1.1473448e-13          554           92          450 
    6570    616.61134     1104 1.1552616e-13          557           92          455 
    6580    617.45633     1116 1.163233e-13          563           93          460 
    6590    618.31337     1121 1.1712595e-13          564           93          464 
    6600    619.16826     1132 1.1793413e-13          569           94          469 
    6610    620.04878     1143 1.187479e-13          576           95          472 
    6620    620.96663     1151 1.1956728e-13          580           95          476 
    6630    621.85974     1160 1.2039231e-13          582           97          481 
    6640    622.76051     1167 1.2122303e-13          585           97          485 
    6650    623.62581     1177 1.2205948e-13          590           97          490 
    6660    624.48492     1185 1.229017e-13          595           97          493 
    6670    625.38186     1196 1.2374973e-13          601           98          497 
    6680    626.26895     1203 1.2460359e-13          604          100          499 
    6690    627.16596     1210 1.2546335e-13          608          102          500 
    6700    628.06882     1218 1.2632904e-13          614          103          501 
    6710    628.98576     1226 1.2720071e-13          617          104          505 
    6720    629.90897     1231 1.2807839e-13          618          105          508 
    6730    630.78833     1239 1.2896213e-13          620          106          513 
    6740    631.65198     1249 1.2985197e-13          626          106          517 
    6750    632.50343     1252 1.3074796e-13          628          106          518 
    6760     633.4066     1257 1.3165013e-13          629          107          521 
    6770    634.28349     1268 1.3255851e-13          636          107          525 
    6780    635.18483     1280 1.3347315e-13          643          107          530 
    6790    636.09598     1288 1.3439411e-13          647          108          533 
    6800    636.99878     1298 1.3532144e-13          653          108          537 
    6810    637.92021     1306 1.3625515e-13          659          108          539 
    6820     638.8479     1315 1.3719531e-13          663          109          543 
    6830    639.75109     1324 1.3814195e-13          667          109          548 
    6840    640.68291     1331 1.3909511e-13          672          109          550 
    6850    641.60264     1343 1.4005485e-13          677          109          557 
    6860    642.59075     1352 1.410212e-13          681          109          562 
    6870    643.51309     1366 1.4199421e-13          692          109          565 
    6880    644.42407     1373 1.4297392e-13          695          110          568 
    6890    645.39205     1382 1.4396041e-13          701          111          570 
    6900    646.34488     1388 1.4495369e-13          706          111          571 
    6910    647.26651     1392 1.4595383e-13          709          112          571 
    6920    648.15919     1404 1.4696087e-13          714          112          578 
    6930    649.04951     1413 1.4797485e-13          716          114          583 
    6940     649.9851     1421 1.4899582e-13          721          114          586 
    6950    650.87604     1433 1.5002384e-13          726          116          591 
    6960    651.76933     1442 1.5105894e-13          729          116          597 
    6970    652.64296     1447 1.5210118e-13          731          117          599 
    6980    653.51797     1458 1.531506e-13          737          118          603 
    6990    654.43857     1467 1.5420726e-13          741          118          608 
    7000    655.60835     1478 1.5527119e-13          746          120          612 
    7010    656.50832     1486 1.5634246e-13          749          121          616 
    7020    657.39253     1500 1.5742112e-13          757          124          619 
    7030    658.28911     1514 1.585072e-13          766          126          622 
    7040    659.19976     1527 1.5960078e-13          770          127          630 
    7050    660.10414     1539 1.6070188e-13          776          128          635 
    7060    661.00564     1550 1.6181058e-13          784          130          636 
    7070    661.90258     1565 1.6292691e-13          792          130          643 
    7080    662.79995     1578 1.6405094e-13          798          132          648 
    7090    663.70581     1589 1.6518271e-13          801          134          654 
    7100    664.62352     1600 1.6632227e-13          805          135          660 
    7110    665.62477     1609 1.6746969e-13          813          135          661 
    7120    666.56445     1621 1.6862502e-13          821          135          665 
    7130    667.51138     1637 1.697883e-13          832          135          670 
    7140    668.43758     1644 1.709596e-13          835          136          673 
    7150    669.36611     1654 1.7213896e-13          841          136          677 
    7160    670.30834     1669 1.7332647e-13          846          137          686 
    7170    671.27272     1679 1.7452215e-13          853          139          687 
    7180    672.22651     1685 1.7572606e-13          857          140          688 
    7190    673.24258     1695 1.7693827e-13          861          142          692 
    7200    674.27227     1705 1.7815883e-13          868          142          695 
    7210    675.28463     1717 1.7938779e-13          874          143          700 
    7220    676.25397     1731 1.8062522e-13          883          143          705 
    7230    677.28451     1744 1.8187117e-13          892          143          709 
    7240    678.26744     1754 1.831257e-13          897          144          713 
    7250    679.26719     1767 1.8438886e-13          907          145          715 
    7260      680.242     1777 1.8566073e-13          911          146          720 
    7270    681.23196     1788 1.8694135e-13          916          146          726 
    7280    682.20063     1802 1.8823079e-13          923          148          731 
    7290    683.16264     1821 1.8952911e-13          933          149          739 
    7300    684.17005     1828 1.9083637e-13          938          149          741 
    7310    685.17301     1837 1.9215263e-13          942          149          746 
    7320      686.169     1851 1.9347796e-13          950          150          751 
    7330    687.17122     1867 1.9481241e-13          956          152          759 
    7340    688.18616     1876 1.9615605e-13          961          153          762 
    7350    689.15683     1889 1.9750893e-13          966          153          770 
    7360    690.13775     1903 1.9887113e-13          976          153          774 
    7370    691.23189     1921 2.002427e-13          985          154          782 
    7380    692.32366     1935 2.0162371e-13          994          154          787 
    7390    693.38533     1949 2.0301423e-13         1003          154          792 
    7400    694.43626     1964 2.0441431e-13         1008          155          801 
    7410     695.4805     1979 2.0582403e-13         1012          156          811 
    7420    696.59721     1992 2.0724345e-13         1020          157          815 
    7430    697.64925     2011 2.0867263e-13         1029          157          825 
    7440    698.65093     2025 2.1011165e-13         1038          158          829 
    7450    699.66312     2031 2.1156057e-13         1039          158          834 
    7460    700.74085     2041 2.1301946e-13         1046          158          837 
    7470    701.78907     2056 2.1448839e-13         1057          158          841 
    7480     702.8162     2065 2.1596742e-13         1061          158          846 
    7490    703.90604     2083 2.1745663e-13         1068          161          854 
    7500    705.18303     2098 2.1895609e-13         1073          164          861 
    7510    706.20248     2108 2.2046586e-13         1079          164          865 
    7520    707.27638     2118 2.2198602e-13         1084          166          868 
    7530    708.33015     2130 2.2351664e-13         1091          166          873 
    7540    709.43765     2147 2.2505779e-13         1096          167          884 
    7550    710.48504     2168 2.2660954e-13         1108          168          892 
    7560    711.58081     2181 2.2817196e-13         1116          168          897 
    7570    712.64446     2194 2.2974513e-13         1124          169          901 
    7580    713.69343     2210 2.3132912e-13         1134          170          906 
    7590    714.80944     2224 2.3292399e-13         1140          171          913 
    7600    715.90022     2243 2.3452984e-13         1149          172          922 
    7610     716.9496     2262 2.3614673e-13         1158          173          931 
    7620    717.97133     2281 2.3777473e-13         1167          174          940 
    7630    718.98822     2294 2.3941393e-13         1174          174          946 
    7640     720.0427     2314 2.4106439e-13         1183          176          955 
    7650    721.08168     2335 2.427262e-13         1195          177          963 
    7660    722.15313     2349 2.4439943e-13         1201          180          968 
    7670    723.23799     2358 2.4608416e-13         1205          180          973 
    7680    724.26164     2366 2.4778048e-13         1210          180          976 
    7690    725.36013     2372 2.4948845e-13         1215          181          976 
    7700    726.36974     2387 2.5120816e-13         1223          183          981 
    7710    727.41453     2409 2.5293969e-13         1234          185          990 
    7720    728.45024     2427 2.5468313e-13         1245          187          995 
    7730    729.47319     2441 2.5643854e-13         1256          187          998 
    7740    730.54806     2459 2.5820602e-13         1264          189         1006 
    7750    731.55695     2476 2.5998564e-13         1273          191         1012 
    7760    732.59907     2497 2.6177748e-13         1283          192         1022 
    7770    733.64171     2517 2.6358163e-13         1291          193         1033 
    7780     734.6676     2530 2.6539817e-13         1299          193         1038 
    7790     735.6768     2547 2.6722719e-13         1308          196         1043 
    7800    736.72994     2564 2.6906877e-13         1319          196         1049 
    7810     737.7598     2587  2.70923e-13         1329          198         1060 
    7820    738.78123     2611 2.7278996e-13         1346          199         1066 
    7830     739.8029     2635 2.7466974e-13         1358          202         1075 
    7840    740.90543     2656 2.7656242e-13         1371          202         1083 
    7850    742.00053     2668 2.7846809e-13         1377          204         1087 
    7860    743.09512     2685 2.8038685e-13         1380          205         1100 
    7870    744.14309     2702 2.8231877e-13         1390          205         1107 
    7880    745.23824     2723 2.8426396e-13         1397          207         1119 
    7890    746.31844     2741 2.862225e-13         1410          208         1123 
    7900    747.35493     2767 2.8819448e-13         1423          209         1135 
    7910    748.47295     2785   2.9018e-13         1433          209         1143 
    7920    749.53137     2806 2.9217915e-13         1444          212         1150 
    7930    750.58967     2830 2.9419202e-13         1456          213         1161 
    7940    751.64946     2858 2.9621871e-13         1473          216         1169 
    7950    752.70369     2886 2.982593e-13         1485          217         1184 
    7960    753.80322     2902 3.0031388e-13         1493          219         1190 
    7970    754.88033     2915 3.0238255e-13         1501          221         1193 
    7980    755.95708     2934 3.0446541e-13         1512          221         1201 
    7990    757.05059     2951 3.0656256e-13         1525          222         1204 
    8000    758.43922     2969 3.0867408e-13         1535          223         1211 
    8010    759.57745     2988 3.1080009e-13         1545          224         1219 
    8020    760.74757     3008 3.1294066e-13         1555          226         1227 
    8030    761.92041     3026 3.150959e-13         1565          227         1234 
    8040    763.08364     3040 3.1726593e-13         1571          229         1240 
    8050    764.34936     3066 3.1945084e-13         1591          229         1246 
    8060     765.5367     3083 3.2165072e-13         1597          232         1254 
    8070    766.67464     3100 3.2386567e-13         1608          234         1258 
    8080    767.79429     3122 3.2609581e-13         1620          237         1265 
    8090     768.9262     3144 3.2834123e-13         1633          238         1273 
    8100    770.10586     3163 3.3060204e-13         1644          238         1281 
    8110    771.26839     3185 3.3287834e-13         1654          240         1291 
    8120    772.46607     3213 3.3517024e-13         1667          241         1305 
    8130    773.71657     3231 3.3747783e-13         1676          243         1312 
    8140    774.92906     3257 3.3980123e-13         1693          243         1321 
    8150     776.0784     3280 3.4214053e-13         1702          245         1333 
    8160     777.2167     3304 3.4449585e-13         1715          248         1341 
    8170    778.44204     3325 3.4686731e-13         1722          251         1352 
    8180    779.63797     3347 3.4925501e-13         1737          253         1357 
    8190    780.83612     3363 3.5165906e-13         1748          254         1361 
    8200    782.03154     3394 3.5407956e-13         1762          258         1374 
    8210     783.2213     3411 3.5651664e-13         1770          259         1382 
    8220    784.37456     3432 3.589704e-13         1782          260         1390 
    8230    785.54551     3457 3.6144096e-13         1797          261         1399 
    8240    786.72793     3481 3.6392843e-13         1811          263         1407 
    8250    787.90114     3505 3.6643291e-13         1827          265         1413 
    8260    789.13708     3528 3.6895454e-13         1840          266         1422 
    8270    790.34205     3559 3.7149341e-13         1858          266         1435 
    8280    791.52089     3587 3.7404965e-13         1879          266         1442 
    8290    792.71373     3607 3.7662337e-13         1889          268         1450 
    8300    793.94072     3629 3.792147e-13         1902          268         1459 
    8310    795.11273     3662 3.8182375e-13         1912          271         1479 
    8320    796.30853     3682 3.8445064e-13         1923          272         1487 
    8330    797.51353     3705 3.8709549e-13         1936          272         1497 
    8340    798.70623     3732 3.8975843e-13         1949          273         1510 
    8350    799.89274     3763 3.9243957e-13         1967          275         1521 
    8360    801.09227     3782 3.9513903e-13         1973          276         1533 
    8370    802.32887     3807 3.9785692e-13         1986          279         1542 
    8380    803.56583     3835 4.0059338e-13         1999          282         1554 
    8390    804.80796     3866 4.0334853e-13         2018          284         1564 
    8400    806.02532     3883 4.0612249e-13         2026          285         1572 
    8410    807.22876     3907 4.0891539e-13         2038          287         1582 
    8420    808.43987     3929 4.1172737e-13         2049          287         1593 
    8430    809.68311     3965 4.1455856e-13         2071          288         1606 
    8440    810.89662     3994 4.1740909e-13         2084          291         1619 
    8450    812.16375     4023 4.2027908e-13         2097          293         1633 
    8460    813.37361     4058 4.2316867e-13         2116          294         1648 
    8470    814.55892     4088 4.2607798e-13         2134          295         1659 
    8480    815.79925     4114 4.2900715e-13         2149          296         1669 
    8490    816.99744     4149 4.3195631e-13         2167          299         1683 
    8500    818.42494     4176 4.3492559e-13         2183          302         1691 
    8510    819.62773     4203 4.3791512e-13         2193          303         1707 
    8520    820.84409     4238 4.4092504e-13         2208          305         1725 
    8530    822.07676     4289 4.4395548e-13         2227          310         1752 
    8540    823.38722     4317 4.4700659e-13         2244          311         1762 
    8550    824.65084     4345 4.500785e-13         2259          312         1774 
    8560    825.86825     4370 4.5317135e-13         2274          313         1783 
    8570    827.10372     4388 4.5628529e-13         2283          314         1791 
    8580    828.35943     4411 4.5942045e-13         2296          314         1801 
    8590    829.61243     4438 4.6257696e-13         2310          317         1811 
    8600    830.83999     4471 4.6575499e-13         2325          321         1825 
    8610     832.1001     4500 4.6895467e-13         2342          323         1835 
    8620      833.363     4520 4.7217615e-13         2357          325         1838 
    8630     834.5955     4549 4.7541957e-13         2378          325         1846 
    8640    835.84038     4570 4.7868508e-13         2389          327         1854 
    8650    837.08985     4605 4.819728e-13         2405          327         1873 
    8660    838.34865     4647 4.8528289e-13         2430          329         1888 
    8670    839.61383     4674 4.886155e-13         2447          331         1896 
    8680    840.92436     4707 4.919708e-13         2464          332         1911 
    8690    842.19331     4738 4.9534891e-13         2479          336         1923 
    8700    843.55539     4758 4.9875002e-13         2493          337         1928 
    8710    844.86933     4789 5.0217424e-13         2509          338         1942 
    8720    846.16172     4826 5.0562175e-13         2529          342         1955 
    8730    847.50371     4849 5.0909268e-13         2544          343         1962 
    8740    848.85057     4891 5.1258718e-13         2562          345         1984 
    8750    850.21129     4909 5.1610541e-13         2571          346         1992 
    8760    851.53282     4942 5.1964756e-13         2586          348         2008 
    8770    852.90907     4968 5.2321378e-13         2602          349         2017 
    8780    854.33265     5011 5.2680425e-13         2624          350         2037 
    8790    855.67091     5059 5.304191e-13         2653          353         2053 
    8800    857.05595     5093 5.340585e-13         2677          354         2062 
    8810    858.39961     5129 5.3772261e-13         2693          357         2079 
    8820    859.72687     5166 5.4141159e-13         2715          361         2090 
    8830     861.0528     5196 5.451256e-13         2733          363         2100 
    8840    862.38771     5228 5.4886482e-13         2750          368         2110 
    8850    863.72538     5270 5.526294e-13         2772          372         2126 
    8860    865.07432     5312 5.5641952e-13         2797          374         2141 
    8870    866.43951     5340 5.6023535e-13         2816          375         2149 
    8880    867.77965     5373 5.6407704e-13         2834          376         2163 
    8890    869.14927     5409 5.6794479e-13         2856          376         2177 
    8900    870.49742     5458 5.7183872e-13         2879          377         2202 
    8910    871.90999     5501 5.7575903e-13         2905          380         2216 
    8920    873.30558     5545 5.7970587e-13         2933          381         2231 
    8930    874.67753     5577 5.8367943e-13         2947          382         2248 
    8940    876.05625     5614 5.876799e-13         2967          382         2265 
    8950    877.41719     5660 5.9170744e-13         2991          382         2287 
    8960     878.7933     5711 5.9576226e-13         3016          388         2307 
    8970    880.20063     5747 5.9984451e-13         3036          394         2317 
    8980    881.60402     5787 6.0395437e-13         3057          395         2335 
    8990    882.99223     5833 6.0809202e-13         3079          397         2357 
    9000    884.61466     5879 6.1225766e-13         3106          398         2375 
    9010    885.99142     5927 6.1645149e-13         3129          401         2397 
    9020    887.36692     5960 6.2067365e-13         3147          402         2411 
    9030    888.74876     5992 6.2492433e-13         3164          404         2424 
    9040    890.12062     6035 6.2920372e-13         3188          409         2438 
    9050     891.5444     6078 6.3351202e-13         3212          412         2454 
    9060    892.94236     6118 6.3784939e-13         3234          415         2469 
    9070    894.31784     6159 6.4221602e-13         3254          419         2486 
    9080    895.69563     6201 6.4661213e-13         3277          422         2502 
    9090    897.10525     6246 6.5103791e-13         3298          424         2524 
    9100    898.51747     6288 6.5549354e-13         3316          426         2546 
    9110     899.9331     6329 6.5997921e-13         3342          428         2559 
    9120    901.35052     6368 6.6449511e-13         3364          431         2573 
    9130    902.79809     6418 6.6904143e-13         3391          431         2596 
    9140    904.26215     6460 6.7361838e-13         3413          435         2612 
    9150    905.70498     6518 6.7822614e-13         3444          442         2632 
    9160    907.14971     6562 6.8286492e-13         3469          443         2650 
    9170    908.60221     6606 6.8753493e-13         3490          448         2668 
    9180    910.08166     6654 6.9223637e-13         3513          452         2689 
    9190     911.5665     6699 6.9696944e-13         3539          456         2704 
    9200    913.07945     6755 7.0173435e-13         3568          457         2730 
    9210    914.55216     6803 7.0653128e-13         3592          464         2747 
    9220    916.07669     6847 7.1136045e-13         3613          468         2766 
    9230    917.60494     6894 7.1622205e-13         3641          469         2784 
    9240    919.14495     6956 7.2111628e-13         3683          474         2799 
    9250    920.66803     6997 7.2604338e-13         3707          477         2813 
    9260    922.19729     7043 7.3100357e-13         3732          479         2832 
    9270    923.73265     7082 7.3599705e-13         3752          483         2847 
    9280    925.23152     7126 7.4102406e-13         3772          489         2865 
    9290    926.73965     7168 7.460848e-13         3797          490         2881 
    9300    928.28819     7216 7.5117945e-13         3822          495         2899 
    9310    929.88743     7271 7.5630824e-13         3852          500         2919 
    9320    931.42673     7309 7.6147137e-13         3875          501         2933 
    9330    933.03537     7354 7.6666907e-13         3903          503         2948 
    9340    934.58969     7394 7.7190158e-13         3924          504         2966 
    9350     936.1645     7445 7.7716911e-13         3954          507         2984 
    9360    937.72694     7508 7.824719e-13         3982          508         3018 
    9370    939.32436     7554 7.8781014e-13         4015          511         3028 
    9380    940.87205     7597 7.9318407e-13         4041          512         3044 
    9390    942.46014     7638 7.9859391e-13         4067          514         3057 
    9400    944.08173     7686 8.0403986e-13         4094          518         3074 
    9410    945.72107     7735 8.0952217e-13         4126          520         3089 
    9420    947.30047     7795 8.1504106e-13         4159          523         3113 
    9430    948.89183     7847 8.2059678e-13         4181          525         3141 
    9440    950.47108     7895 8.2618957e-13         4206          528         3161 
    9450    952.07943     7944 8.3181963e-13         4229          530         3185 
    9460    953.70916     7997 8.3748717e-13         4259          533         3205 
    9470    955.36025     8063 8.4319247e-13         4297          539         3227 
    9480    957.02267     8111 8.4893577e-13         4324          541         3246 
    9490     958.6643     8186 8.5471726e-13         4364          543         3279 
    9500    960.54772     8250 8.605372e-13         4400          549         3301 
    9510    962.20102     8301 8.663958e-13         4429          552         3320 
    9520    963.89346     8355 8.7229328e-13         4459          555         3341 
    9530    965.59157     8421 8.7822987e-13         4493          556         3372 
    9540    967.29482     8470 8.8420585e-13         4519          558         3393 
    9550    969.02451     8528 8.9022147e-13         4558          562         3408 
    9560    970.74501     8584 8.9627696e-13         4584          566         3434 
    9570    972.46799     8647 9.0237258e-13         4612          570         3465 
    9580     974.2045     8707 9.0850857e-13         4644          573         3490 
    9590    975.96289     8751 9.1468517e-13         4666          575         3510 
    9600      977.755     8805 9.2090268e-13         4698          576         3531 
    9610    979.52106     8868 9.2716132e-13         4734          579         3555 
    9620    981.29941     8926 9.3346134e-13         4773          579         3574 
    9630    983.11781     8992 9.3980301e-13         4811          581         3600 
    9640     984.9795     9068 9.4618656e-13         4849          585         3634 
    9650    986.75376     9126 9.5261221e-13         4874          588         3664 
    9660    988.55232     9185 9.5908024e-13         4905          592         3688 
    9670    990.39034     9258 9.6559092e-13         4945          595         3718 
    9680    992.19643     9312 9.7214447e-13         4977          597         3738 
    9690    993.99047     9365 9.7874113e-13         5014          598         3753 
    9700    995.83825     9420 9.8538118e-13         5046          603         3771 
    9710    997.66686     9482 9.9206484e-13         5075          607         3800 
    9720    999.56446     9539 9.9879243e-13         5108          615         3816 
    9730      1001.39     9597 1.0055642e-12         5134          617         3846 
    9740    1003.2403     9664 1.0123803e-12         5170          623         3871 
    9750     1005.146     9725 1.0192412e-12         5200          629         3896 
    9760         1007     9795 1.026147e-12         5239          633         3923 
    9770    1008.8276     9872 1.0330981e-12         5282          641         3949 
    9780    1010.6647     9938 1.0400946e-12         5318          644         3976 
    9790    1012.5017    10016 1.0471369e-12         5362          649         4005 
    9800     1014.319    10084 1.0542253e-12         5404          652         4028 
    9810    1016.1462    10146 1.0613599e-12         5437          658         4051 
    9820    1017.9981    10224 1.068541e-12         5484          658         4082 
    9830    1019.8468    10299 1.0757689e-12         5527          662         4110 
    9840    1021.7033    10366 1.083044e-12         5565          663         4138 
    9850    1023.5915    10438 1.0903663e-12         5605          665         4168 
    9860    1025.4518    10514 1.0977362e-12         5645          670         4199 
    9870    1027.3327    10582 1.1051541e-12         5678          677         4227 
    9880    1029.2235    10646  1.11262e-12         5714          679         4253 
    9890    1031.1027    10717 1.1201344e-12         5754          682         4281 
    9900    1032.9931    10796 1.1276975e-12         5787          686         4323 
    9910    1034.9003    10870 1.1353096e-12         5827          690         4353 
    9920    1036.8478    10947 1.1429708e-12         5866          694         4387 
    9930    1038.7591    11030 1.1506816e-12         5911          697         4422 
    9940    1040.6777    11094 1.1584423e-12         5951          702         4441 
    9950    1042.6065    11170 1.1662531e-12         5995          706         4469 
    9960     1044.538    11244 1.1741142e-12         6038          708         4498 
    9970    1046.5856    11321 1.1820259e-12         6077          710         4534 
    9980    1048.5413    11405 1.1899886e-12         6131          715         4559 
    9990     1050.512    11479 1.1980024e-12         6172          718         4589 
   10000      1052.74    11550 1.2060677e-12         6216          720         4614 
Loop time of 1052.74 on 1 procs for 10000 steps with 11550 atoms

Performance: 29545754.820 tau/day, 9.499 timesteps/s
99.4% CPU use with 1 MPI tasks x no OpenMP threads

MPI task timing breakdown:
Section |  min time  |  avg time  |  max time  |%varavg| %total
---------------------------------------------------------------
Pair    | 7.5124     | 7.5124     | 7.5124     |   0.0 |  0.71
Neigh   | 38.608     | 38.608     | 38.608     |   0.0 |  3.67
Comm    | 0.23871    | 0.23871    | 0.23871    |   0.0 |  0.02
Output  | 4.6305     | 4.6305     | 4.6305     |   0.0 |  0.44
Modify  | 1001.5     | 1001.5     | 1001.5     |   0.0 | 95.13
Other   |            | 0.2594     |            |       |  0.02

Nlocal:    11550 ave 11550 max 11550 min
Histogram: 1 0 0 0 0 0 0 0 0 0
Nghost:    0 ave 0 max 0 min
Histogram: 1 0 0 0 0 0 0 0 0 0
Neighs:    119250 ave 119250 max 119250 min
Histogram: 1 0 0 0 0 0 0 0 0 0

Total # of neighbors = 119250
Ave neighs/atom = 10.3247
Neighbor list builds = 10000
Dangerous builds = 0


