/*--------------------------------*- C++ -*----------------------------------*\
| =========                 |                                                 |
| \\      /  F ield         | OpenFOAM: The Open Source CFD Toolbox           |
|  \\    /   O peration     | Version:  2.3.0                                 |
|   \\  /    A nd           | Web:      www.OpenFOAM.org                      |
|    \\/     M anipulation  |                                                 |
\*---------------------------------------------------------------------------*/
FoamFile
{
    version     2.0;
    format      ascii;
    class       volVectorField;
    location    "0.0006";
    object      Ub;
}
// * * * * * * * * * * * * * * * * * * * * * * * * * * * * * * * * * * * * * //

dimensions      [0 1 -1 0 0 0 0];

internalField   nonuniform List<vector> 
5000
(
(-6.30837e-05 1.07346e-06 0)
(-6.61151e-05 -4.81215e-07 0)
(-6.52664e-05 -2.23951e-08 0)
(-6.49415e-05 6.57005e-08 0)
(-6.49812e-05 1.77964e-08 0)
(-6.48881e-05 -5.29769e-08 0)
(-6.44996e-05 -1.34403e-07 0)
(-6.3802e-05 -2.07848e-07 0)
(-6.28697e-05 -2.50908e-07 0)
(-6.18938e-05 -2.38535e-07 0)
(-6.12152e-05 -1.47879e-07 0)
(-6.122e-05 4.13362e-09 0)
(-6.20683e-05 1.50089e-07 0)
(-6.35167e-05 2.25979e-07 0)
(-6.50399e-05 2.04914e-07 0)
(-6.61266e-05 1.05628e-07 0)
(-6.6583e-05 -3.9136e-09 0)
(-6.65742e-05 -7.29137e-08 0)
(-6.63005e-05 -1.06697e-07 0)
(-6.58086e-05 -1.1068e-07 0)
(-6.51411e-05 -8.56705e-08 0)
(-6.43953e-05 -5.78746e-08 0)
(-6.36484e-05 -5.02249e-08 0)
(-6.29386e-05 -6.42972e-08 0)
(-6.22982e-05 -8.47885e-08 0)
(-6.17695e-05 -9.03888e-08 0)
(-6.13709e-05 -7.7981e-08 0)
(-6.11447e-05 -3.70512e-08 0)
(-6.12718e-05 5.51709e-08 0)
(-6.19079e-05 1.64974e-07 0)
(-6.29497e-05 2.39629e-07 0)
(-6.4135e-05 2.62226e-07 0)
(-6.51431e-05 1.99428e-07 0)
(-6.55583e-05 3.6583e-08 0)
(-6.51343e-05 -1.51989e-07 0)
(-6.41115e-05 -2.71573e-07 0)
(-6.30585e-05 -2.81554e-07 0)
(-6.24336e-05 -2.07102e-07 0)
(-6.23401e-05 -9.87834e-08 0)
(-6.26506e-05 1.27233e-08 0)
(-6.3259e-05 1.18906e-07 0)
(-6.41033e-05 1.86011e-07 0)
(-6.50236e-05 1.85643e-07 0)
(-6.57459e-05 1.08486e-07 0)
(-6.6024e-05 -6.51657e-09 0)
(-6.58521e-05 -9.10016e-08 0)
(-6.54829e-05 -1.02063e-07 0)
(-6.52432e-05 -3.69967e-08 0)
(-6.53288e-05 6.18349e-08 0)
(-6.56387e-05 1.17324e-07 0)
(-6.58377e-05 8.99512e-08 0)
(-6.566e-05 9.44314e-09 0)
(-6.50546e-05 -7.922e-08 0)
(-6.41218e-05 -1.3943e-07 0)
(-6.30677e-05 -1.49248e-07 0)
(-6.21875e-05 -1.00519e-07 0)
(-6.17643e-05 -8.96384e-09 0)
(-6.1901e-05 8.59601e-08 0)
(-6.25095e-05 1.62946e-07 0)
(-6.34331e-05 2.1299e-07 0)
(-6.4481e-05 2.28291e-07 0)
(-6.54335e-05 2.03874e-07 0)
(-6.61249e-05 1.55439e-07 0)
(-6.65906e-05 1.18479e-07 0)
(-6.69662e-05 8.68689e-08 0)
(-6.71923e-05 2.55506e-08 0)
(-6.70302e-05 -6.29579e-08 0)
(-6.63895e-05 -1.3783e-07 0)
(-6.54549e-05 -1.72376e-07 0)
(-6.45275e-05 -1.63708e-07 0)
(-6.38241e-05 -1.23996e-07 0)
(-6.33569e-05 -8.01286e-08 0)
(-6.30544e-05 -3.07284e-08 0)
(-6.30367e-05 5.68642e-08 0)
(-6.35677e-05 1.69037e-07 0)
(-6.4678e-05 2.35641e-07 0)
(-6.59888e-05 2.01809e-07 0)
(-6.69958e-05 8.67661e-08 0)
(-6.73663e-05 -7.53529e-08 0)
(-6.70119e-05 -2.23022e-07 0)
(-6.61444e-05 -2.84756e-07 0)
(-6.52028e-05 -2.36074e-07 0)
(-6.46347e-05 -1.03385e-07 0)
(-6.46654e-05 4.10978e-08 0)
(-6.51298e-05 1.08018e-07 0)
(-6.56141e-05 7.99053e-08 0)
(-6.58379e-05 8.60209e-09 0)
(-6.57869e-05 -5.16044e-08 0)
(-6.55816e-05 -6.4382e-08 0)
(-6.53577e-05 -2.71207e-08 0)
(-6.52042e-05 3.04488e-08 0)
(-6.51286e-05 6.9242e-08 0)
(-6.50348e-05 6.20696e-08 0)
(-6.47315e-05 -1.08493e-09 0)
(-6.40086e-05 -1.05802e-07 0)
(-6.27604e-05 -2.16309e-07 0)
(-6.11148e-05 -2.85215e-07 0)
(-5.9613e-05 -1.89104e-07 0)
(-5.88385e-05 3.49843e-07 0)
(-5.60392e-05 8.39418e-09 0)
(-9.24462e-05 -4.81913e-06 0)
(-9.51921e-05 -2.13411e-06 0)
(-9.42457e-05 -3.55586e-07 0)
(-9.41353e-05 2.72055e-07 0)
(-9.45474e-05 3.05455e-07 0)
(-9.48813e-05 4.78879e-08 0)
(-9.48732e-05 -3.4891e-07 0)
(-9.44332e-05 -7.37043e-07 0)
(-9.3635e-05 -9.45024e-07 0)
(-9.27646e-05 -8.29533e-07 0)
(-9.22896e-05 -3.46879e-07 0)
(-9.2708e-05 3.95796e-07 0)
(-9.42727e-05 1.14898e-06 0)
(-9.67529e-05 1.62549e-06 0)
(-9.9488e-05 1.62999e-06 0)
(-0.000101707 1.17003e-06 0)
(-0.000102951 4.61914e-07 0)
(-0.000103255 -2.1473e-07 0)
(-0.000102857 -6.60067e-07 0)
(-0.000101946 -8.12557e-07 0)
(-0.000100721 -7.58313e-07 0)
(-9.93733e-05 -6.76052e-07 0)
(-9.79734e-05 -7.05662e-07 0)
(-9.65158e-05 -8.48331e-07 0)
(-9.50507e-05 -9.89939e-07 0)
(-9.37103e-05 -1.00242e-06 0)
(-9.26156e-05 -8.06881e-07 0)
(-9.1915e-05 -3.70259e-07 0)
(-9.19013e-05 2.86126e-07 0)
(-9.28047e-05 1.02335e-06 0)
(-9.45084e-05 1.60842e-06 0)
(-9.66123e-05 1.796e-06 0)
(-9.85477e-05 1.41532e-06 0)
(-9.96135e-05 5.1405e-07 0)
(-9.9345e-05 -5.89477e-07 0)
(-9.79494e-05 -1.45753e-06 0)
(-9.61907e-05 -1.76834e-06 0)
(-9.48575e-05 -1.45863e-06 0)
(-9.43676e-05 -6.88438e-07 0)
(-9.47934e-05 2.86958e-07 0)
(-9.60769e-05 1.20171e-06 0)
(-9.80699e-05 1.80469e-06 0)
(-0.000100416 1.92892e-06 0)
(-0.000102572 1.55473e-06 0)
(-0.000104024 8.87011e-07 0)
(-0.000104616 2.48824e-07 0)
(-0.000104622 -8.75977e-08 0)
(-0.00010451 -6.01401e-08 0)
(-0.0001046 1.36254e-07 0)
(-0.000104784 1.86267e-07 0)
(-0.0001046 -1.10127e-07 0)
(-0.000103653 -6.91357e-07 0)
(-0.000101877 -1.305e-06 0)
(-9.94972e-05 -1.69019e-06 0)
(-9.69323e-05 -1.71695e-06 0)
(-9.4666e-05 -1.39629e-06 0)
(-9.31193e-05 -8.123e-07 0)
(-9.2518e-05 -8.59125e-08 0)
(-9.2864e-05 6.36027e-07 0)
(-9.40126e-05 1.22529e-06 0)
(-9.57002e-05 1.58984e-06 0)
(-9.75738e-05 1.68532e-06 0)
(-9.92796e-05 1.5251e-06 0)
(-0.000100624 1.15373e-06 0)
(-0.00010154 6.21018e-07 0)
(-0.000101866 -1.25144e-08 0)
(-0.000101372 -6.49682e-07 0)
(-0.000100044 -1.17147e-06 0)
(-9.81669e-05 -1.48205e-06 0)
(-9.61677e-05 -1.52543e-06 0)
(-9.44371e-05 -1.29449e-06 0)
(-9.31824e-05 -8.31004e-07 0)
(-9.24906e-05 -1.91035e-07 0)
(-9.25574e-05 5.58326e-07 0)
(-9.36253e-05 1.26182e-06 0)
(-9.56376e-05 1.67956e-06 0)
(-9.80676e-05 1.61718e-06 0)
(-0.000100183 1.04773e-06 0)
(-0.000101391 1.49096e-07 0)
(-0.000101451 -6.99759e-07 0)
(-0.000100637 -1.11077e-06 0)
(-9.96315e-05 -9.19736e-07 0)
(-9.91374e-05 -2.80576e-07 0)
(-9.95126e-05 4.29614e-07 0)
(-0.000100562 8.29036e-07 0)
(-0.000101698 7.56434e-07 0)
(-0.000102409 3.41649e-07 0)
(-0.000102554 -1.02361e-07 0)
(-0.0001023 -3.05369e-07 0)
(-0.000101919 -2.2457e-07 0)
(-0.000101584 -4.37115e-08 0)
(-0.000101247 -5.08947e-09 0)
(-0.000100687 -2.41094e-07 0)
(-9.96289e-05 -7.3761e-07 0)
(-9.78544e-05 -1.38466e-06 0)
(-9.52743e-05 -1.98502e-06 0)
(-9.20803e-05 -2.21728e-06 0)
(-8.89573e-05 -1.64093e-06 0)
(-8.65441e-05 2.02661e-07 0)
(-8.19793e-05 3.02278e-06 0)
(-4.06016e-05 -9.33128e-06 0)
(-4.17785e-05 -3.35933e-06 0)
(-4.13345e-05 -3.20648e-07 0)
(-4.16747e-05 8.12244e-07 0)
(-4.24565e-05 9.92888e-07 0)
(-4.32921e-05 6.49695e-07 0)
(-4.39759e-05 2.2872e-08 0)
(-4.44062e-05 -6.21975e-07 0)
(-4.46111e-05 -9.66847e-07 0)
(-4.47773e-05 -7.53429e-07 0)
(-4.52046e-05 8.69582e-08 0)
(-4.62009e-05 1.37518e-06 0)
(-4.79379e-05 2.70333e-06 0)
(-5.03075e-05 3.56996e-06 0)
(-5.29049e-05 3.5998e-06 0)
(-5.51791e-05 2.75249e-06 0)
(-5.66972e-05 1.35758e-06 0)
(-5.73298e-05 -7.89702e-08 0)
(-5.7177e-05 -1.13422e-06 0)
(-5.64217e-05 -1.64834e-06 0)
(-5.52815e-05 -1.75699e-06 0)
(-5.39333e-05 -1.76234e-06 0)
(-5.24427e-05 -1.90364e-06 0)
(-5.0818e-05 -2.18637e-06 0)
(-4.91205e-05 -2.41313e-06 0)
(-4.74966e-05 -2.3545e-06 0)
(-4.61247e-05 -1.86158e-06 0)
(-4.52098e-05 -8.88504e-07 0)
(-4.49969e-05 4.78664e-07 0)
(-4.56427e-05 1.96507e-06 0)
(-4.70612e-05 3.13456e-06 0)
(-4.89243e-05 3.52016e-06 0)
(-5.07327e-05 2.83474e-06 0)
(-5.19107e-05 1.19242e-06 0)
(-5.20607e-05 -8.48368e-07 0)
(-5.12378e-05 -2.5072e-06 0)
(-4.99306e-05 -3.15658e-06 0)
(-4.87766e-05 -2.59984e-06 0)
(-4.82848e-05 -1.07938e-06 0)
(-4.87357e-05 9.08786e-07 0)
(-5.01934e-05 2.8011e-06 0)
(-5.25098e-05 4.09015e-06 0)
(-5.53125e-05 4.44573e-06 0)
(-5.80806e-05 3.83384e-06 0)
(-6.03175e-05 2.59809e-06 0)
(-6.17744e-05 1.29606e-06 0)
(-6.25229e-05 4.13963e-07 0)
(-6.28171e-05 8.6611e-08 0)
(-6.28572e-05 2.55243e-08 0)
(-6.25954e-05 -2.48248e-07 0)
(-6.17698e-05 -1.0424e-06 0)
(-6.01557e-05 -2.26104e-06 0)
(-5.77458e-05 -3.47787e-06 0)
(-5.47671e-05 -4.23067e-06 0)
(-5.16017e-05 -4.27405e-06 0)
(-4.86751e-05 -3.61744e-06 0)
(-4.63632e-05 -2.40817e-06 0)
(-4.49261e-05 -8.60474e-07 0)
(-4.44756e-05 7.47288e-07 0)
(-4.49779e-05 2.13765e-06 0)
(-4.62493e-05 3.08932e-06 0)
(-4.79785e-05 3.46804e-06 0)
(-4.97812e-05 3.23865e-06 0)
(-5.13056e-05 2.4527e-06 0)
(-5.22869e-05 1.25117e-06 0)
(-5.25219e-05 -1.56202e-07 0)
(-5.18936e-05 -1.52872e-06 0)
(-5.04673e-05 -2.63992e-06 0)
(-4.84919e-05 -3.31078e-06 0)
(-4.6322e-05 -3.41764e-06 0)
(-4.43363e-05 -2.91894e-06 0)
(-4.285e-05 -1.87784e-06 0)
(-4.20896e-05 -4.40229e-07 0)
(-4.2228e-05 1.17614e-06 0)
(-4.33387e-05 2.64148e-06 0)
(-4.52805e-05 3.5467e-06 0)
(-4.76497e-05 3.56361e-06 0)
(-4.99017e-05 2.62825e-06 0)
(-5.15561e-05 1.06172e-06 0)
(-5.2382e-05 -4.6569e-07 0)
(-5.25327e-05 -1.26616e-06 0)
(-5.24675e-05 -1.03334e-06 0)
(-5.26808e-05 -1.44171e-08 0)
(-5.3438e-05 1.15705e-06 0)
(-5.46409e-05 1.83305e-06 0)
(-5.59066e-05 1.70348e-06 0)
(-5.68419e-05 9.44998e-07 0)
(-5.72673e-05 7.44764e-08 0)
(-5.72459e-05 -4.39616e-07 0)
(-5.69562e-05 -5.05778e-07 0)
(-5.65149e-05 -4.18165e-07 0)
(-5.58767e-05 -5.77618e-07 0)
(-5.48706e-05 -1.20128e-06 0)
(-5.33146e-05 -2.24663e-06 0)
(-5.11002e-05 -3.49882e-06 0)
(-4.82345e-05 -4.60465e-06 0)
(-4.49282e-05 -5.03948e-06 0)
(-4.16614e-05 -4.18139e-06 0)
(-3.87093e-05 -1.4999e-06 0)
(-3.41961e-05 3.04852e-06 0)
(6.71431e-05 -9.61885e-06 0)
(6.74372e-05 -3.25008e-06 0)
(6.72404e-05 1.30474e-07 0)
(6.65769e-05 1.58287e-06 0)
(6.56694e-05 1.96605e-06 0)
(6.4608e-05 1.67434e-06 0)
(6.34756e-05 9.78506e-07 0)
(6.23313e-05 2.18763e-07 0)
(6.11858e-05 -1.88241e-07 0)
(6.00027e-05 9.97969e-08 0)
(5.87173e-05 1.1812e-06 0)
(5.7268e-05 2.83458e-06 0)
(5.56275e-05 4.53649e-06 0)
(5.38281e-05 5.6273e-06 0)
(5.19847e-05 5.60547e-06 0)
(5.02908e-05 4.39936e-06 0)
(4.89662e-05 2.41911e-06 0)
(4.8173e-05 3.18733e-07 0)
(4.79601e-05 -1.34501e-06 0)
(4.82731e-05 -2.3367e-06 0)
(4.90053e-05 -2.78129e-06 0)
(5.00483e-05 -3.01817e-06 0)
(5.13108e-05 -3.32675e-06 0)
(5.27126e-05 -3.7146e-06 0)
(5.41691e-05 -3.94526e-06 0)
(5.55683e-05 -3.74069e-06 0)
(5.67541e-05 -2.92134e-06 0)
(5.75553e-05 -1.4395e-06 0)
(5.78452e-05 5.63175e-07 0)
(5.75859e-05 2.68563e-06 0)
(5.68488e-05 4.32728e-06 0)
(5.58206e-05 4.87943e-06 0)
(5.4765e-05 3.99202e-06 0)
(5.39427e-05 1.83259e-06 0)
(5.35278e-05 -8.56624e-07 0)
(5.35485e-05 -3.03913e-06 0)
(5.38692e-05 -3.87217e-06 0)
(5.42171e-05 -3.07491e-06 0)
(5.42529e-05 -9.53737e-07 0)
(5.36862e-05 1.82921e-06 0)
(5.2393e-05 4.50485e-06 0)
(5.04549e-05 6.37361e-06 0)
(4.81125e-05 6.96969e-06 0)
(4.56753e-05 6.22745e-06 0)
(4.3444e-05 4.56321e-06 0)
(4.1649e-05 2.68324e-06 0)
(4.04221e-05 1.21198e-06 0)
(3.9816e-05 3.44738e-07 0)
(3.98427e-05 -2.33421e-07 0)
(4.05035e-05 -1.06512e-06 0)
(4.17937e-05 -2.47999e-06 0)
(4.36832e-05 -4.328e-06 0)
(4.60897e-05 -6.07346e-06 0)
(4.88622e-05 -7.13498e-06 0)
(5.17816e-05 -7.18557e-06 0)
(5.45854e-05 -6.21581e-06 0)
(5.70119e-05 -4.41609e-06 0)
(5.8845e-05 -2.09071e-06 0)
(5.99427e-05 3.67049e-07 0)
(6.02614e-05 2.54882e-06 0)
(5.98792e-05 4.10753e-06 0)
(5.89926e-05 4.81109e-06 0)
(5.78915e-05 4.57437e-06 0)
(5.69005e-05 3.46564e-06 0)
(5.63018e-05 1.70196e-06 0)
(5.6271e-05 -3.92754e-07 0)
(5.68544e-05 -2.44607e-06 0)
(5.79809e-05 -4.1061e-06 0)
(5.94882e-05 -5.09607e-06 0)
(6.11501e-05 -5.22995e-06 0)
(6.27027e-05 -4.45141e-06 0)
(6.38729e-05 -2.86296e-06 0)
(6.44341e-05 -6.92453e-07 0)
(6.42798e-05 1.72341e-06 0)
(6.34521e-05 3.911e-06 0)
(6.20992e-05 5.31696e-06 0)
(6.04299e-05 5.50919e-06 0)
(5.86806e-05 4.41266e-06 0)
(5.70569e-05 2.45306e-06 0)
(5.56747e-05 4.84308e-07 0)
(5.45357e-05 -6.13715e-07 0)
(5.35529e-05 -4.33834e-07 0)
(5.26095e-05 7.38545e-07 0)
(5.16233e-05 2.12438e-06 0)
(5.05889e-05 2.90775e-06 0)
(4.9583e-05 2.68277e-06 0)
(4.87273e-05 1.64769e-06 0)
(4.81358e-05 4.16683e-07 0)
(4.78793e-05 -4.46402e-07 0)
(4.79834e-05 -8.16551e-07 0)
(4.84515e-05 -1.02331e-06 0)
(4.9292e-05 -1.52979e-06 0)
(5.05324e-05 -2.58794e-06 0)
(5.22059e-05 -4.13359e-06 0)
(5.43087e-05 -5.87874e-06 0)
(5.67475e-05 -7.36609e-06 0)
(5.93209e-05 -7.97317e-06 0)
(6.18183e-05 -7.08847e-06 0)
(6.44175e-05 -4.5231e-06 0)
(6.83317e-05 -1.24894e-06 0)
(0.000207957 -7.08756e-06 0)
(0.000208919 -2.16879e-06 0)
(0.000208283 8.51094e-07 0)
(0.00020753 2.44587e-06 0)
(0.000206723 3.05565e-06 0)
(0.000205718 2.93773e-06 0)
(0.000204477 2.34398e-06 0)
(0.000203009 1.63457e-06 0)
(0.00020135 1.25744e-06 0)
(0.000199585 1.58449e-06 0)
(0.000197829 2.72994e-06 0)
(0.000196208 4.46335e-06 0)
(0.000194811 6.22582e-06 0)
(0.000193639 7.308e-06 0)
(0.000192613 7.16866e-06 0)
(0.000191643 5.72162e-06 0)
(0.000190728 3.39155e-06 0)
(0.000189965 8.68212e-07 0)
(0.000189483 -1.2512e-06 0)
(0.000189362 -2.68718e-06 0)
(0.000189629 -3.51907e-06 0)
(0.000190247 -4.05124e-06 0)
(0.000191109 -4.54434e-06 0)
(0.000192076 -5.00103e-06 0)
(0.000193046 -5.18661e-06 0)
(0.000193946 -4.82518e-06 0)
(0.000194689 -3.74248e-06 0)
(0.000195196 -1.90826e-06 0)
(0.00019546 4.90481e-07 0)
(0.000195536 2.97972e-06 0)
(0.000195484 4.88447e-06 0)
(0.000195347 5.55209e-06 0)
(0.000195139 4.62922e-06 0)
(0.000194815 2.31799e-06 0)
(0.000194334 -5.66176e-07 0)
(0.000193738 -2.89325e-06 0)
(0.000193135 -3.74026e-06 0)
(0.000192593 -2.78684e-06 0)
(0.000192042 -3.51827e-07 0)
(0.000191332 2.84307e-06 0)
(0.000190362 5.94031e-06 0)
(0.000189129 8.14666e-06 0)
(0.000187693 8.92208e-06 0)
(0.000186117 8.16541e-06 0)
(0.000184478 6.29066e-06 0)
(0.000182928 4.03334e-06 0)
(0.000181703 2.05802e-06 0)
(0.00018106 6.01509e-07 0)
(0.00018117 -6.0825e-07 0)
(0.000182018 -2.06991e-06 0)
(0.000183431 -4.063e-06 0)
(0.000185199 -6.39121e-06 0)
(0.000187175 -8.4865e-06 0)
(0.000189287 -9.73949e-06 0)
(0.000191477 -9.79323e-06 0)
(0.000193655 -8.61967e-06 0)
(0.000195698 -6.42523e-06 0)
(0.000197476 -3.56778e-06 0)
(0.000198882 -5.11799e-07 0)
(0.000199847 2.24981e-06 0)
(0.000200367 4.28187e-06 0)
(0.000200513 5.27823e-06 0)
(0.000200423 5.11336e-06 0)
(0.000200285 3.86284e-06 0)
(0.000200274 1.78825e-06 0)
(0.000200495 -7.16427e-07 0)
(0.000200963 -3.19073e-06 0)
(0.000201644 -5.19139e-06 0)
(0.000202471 -6.36712e-06 0)
(0.000203348 -6.48934e-06 0)
(0.000204158 -5.49723e-06 0)
(0.000204753 -3.52352e-06 0)
(0.000205001 -8.5346e-07 0)
(0.00020487 2.09857e-06 0)
(0.000204436 4.77646e-06 0)
(0.000203791 6.55874e-06 0)
(0.000202961 6.97622e-06 0)
(0.000201918 5.95924e-06 0)
(0.00020062 3.96964e-06 0)
(0.00019907 1.90347e-06 0)
(0.000197384 6.83414e-07 0)
(0.000195764 7.50956e-07 0)
(0.0001944 1.8363e-06 0)
(0.000193372 3.15091e-06 0)
(0.000192617 3.85088e-06 0)
(0.000191987 3.50417e-06 0)
(0.000191373 2.29328e-06 0)
(0.000190796 8.19308e-07 0)
(0.000190399 -3.5775e-07 0)
(0.000190361 -1.09762e-06 0)
(0.000190784 -1.70039e-06 0)
(0.000191648 -2.60154e-06 0)
(0.000192863 -4.03516e-06 0)
(0.000194337 -5.9198e-06 0)
(0.00019598 -7.93784e-06 0)
(0.00019766 -9.59981e-06 0)
(0.000199233 -1.02859e-05 0)
(0.000200706 -9.47166e-06 0)
(0.000202507 -7.19305e-06 0)
(0.000205367 -4.64971e-06 0)
(0.000364942 -4.02741e-06 0)
(0.000365787 -8.03057e-07 0)
(0.000365001 1.66639e-06 0)
(0.000364337 3.30485e-06 0)
(0.000363736 4.13065e-06 0)
(0.000362935 4.24867e-06 0)
(0.000361817 3.86563e-06 0)
(0.000360356 3.32034e-06 0)
(0.000358605 3.03699e-06 0)
(0.000356713 3.36777e-06 0)
(0.000354897 4.42364e-06 0)
(0.000353376 5.98952e-06 0)
(0.000352295 7.54325e-06 0)
(0.000351643 8.42503e-06 0)
(0.000351247 8.13126e-06 0)
(0.000350872 6.57469e-06 0)
(0.000350369 4.13563e-06 0)
(0.000349756 1.44709e-06 0)
(0.000349168 -9.24379e-07 0)
(0.00034876 -2.68511e-06 0)
(0.000348645 -3.85787e-06 0)
(0.000348839 -4.67043e-06 0)
(0.000349243 -5.32603e-06 0)
(0.000349713 -5.81801e-06 0)
(0.000350147 -5.94167e-06 0)
(0.000350507 -5.45715e-06 0)
(0.000350779 -4.21891e-06 0)
(0.000350976 -2.22825e-06 0)
(0.000351177 2.95781e-07 0)
(0.000351479 2.86606e-06 0)
(0.000351918 4.82246e-06 0)
(0.00035243 5.55076e-06 0)
(0.000352844 4.7406e-06 0)
(0.000352924 2.60842e-06 0)
(0.000352497 -6.32198e-08 0)
(0.000351588 -2.20387e-06 0)
(0.000350424 -2.93205e-06 0)
(0.00034928 -1.92288e-06 0)
(0.000348313 5.40974e-07 0)
(0.000347543 3.7703e-06 0)
(0.000346928 6.92004e-06 0)
(0.000346409 9.19592e-06 0)
(0.000345897 1.00488e-05 0)
(0.000345271 9.35185e-06 0)
(0.000344446 7.46225e-06 0)
(0.000343484 5.04576e-06 0)
(0.000342625 2.72264e-06 0)
(0.000342187 7.48458e-07 0)
(0.000342397 -1.05933e-06 0)
(0.000343242 -3.07865e-06 0)
(0.0003445 -5.49776e-06 0)
(0.0003459 -8.0973e-06 0)
(0.00034728 -1.03427e-05 0)
(0.000348618 -1.16671e-05 0)
(0.000349968 -1.1727e-05 0)
(0.000351372 -1.04823e-05 0)
(0.000352828 -8.1337e-06 0)
(0.000354303 -5.05182e-06 0)
(0.000355744 -1.72302e-06 0)
(0.000357088 1.32852e-06 0)
(0.000358279 3.62919e-06 0)
(0.000359283 4.83606e-06 0)
(0.0003601 4.79873e-06 0)
(0.000360758 3.5875e-06 0)
(0.000361303 1.47584e-06 0)
(0.000361757 -1.11623e-06 0)
(0.000362123 -3.69376e-06 0)
(0.000362401 -5.77575e-06 0)
(0.000362606 -6.97684e-06 0)
(0.000362754 -7.05092e-06 0)
(0.000362854 -5.9367e-06 0)
(0.000362893 -3.7777e-06 0)
(0.000362851 -8.85466e-07 0)
(0.000362755 2.29103e-06 0)
(0.000362669 5.17704e-06 0)
(0.000362607 7.16149e-06 0)
(0.000362467 7.80042e-06 0)
(0.000362054 7.03766e-06 0)
(0.000361181 5.30958e-06 0)
(0.000359791 3.43802e-06 0)
(0.000358046 2.26455e-06 0)
(0.000356289 2.2041e-06 0)
(0.000354863 3.03709e-06 0)
(0.000353939 4.07116e-06 0)
(0.000353442 4.55037e-06 0)
(0.000353133 4.07482e-06 0)
(0.000352785 2.78387e-06 0)
(0.000352347 1.18752e-06 0)
(0.000351967 -2.26756e-07 0)
(0.000351874 -1.31804e-06 0)
(0.000352206 -2.31635e-06 0)
(0.000352938 -3.5713e-06 0)
(0.000353926 -5.26557e-06 0)
(0.000355013 -7.30666e-06 0)
(0.000356063 -9.38369e-06 0)
(0.000356949 -1.10338e-05 0)
(0.000357607 -1.1713e-05 0)
(0.000358179 -1.10232e-05 0)
(0.000359167 -9.12175e-06 0)
(0.000361005 -7.14936e-06 0)
(0.000526955 -1.77022e-06 0)
(0.000527295 3.79443e-07 0)
(0.000526564 2.46632e-06 0)
(0.00052607 4.13299e-06 0)
(0.000525686 5.14578e-06 0)
(0.000525124 5.49915e-06 0)
(0.000524233 5.35291e-06 0)
(0.000522972 5.00581e-06 0)
(0.000521405 4.82927e-06 0)
(0.000519705 5.12739e-06 0)
(0.000518111 5.99462e-06 0)
(0.000516864 7.24486e-06 0)
(0.000516114 8.43502e-06 0)
(0.000515842 9.01235e-06 0)
(0.000515854 8.55632e-06 0)
(0.000515872 6.98873e-06 0)
(0.000515689 4.61652e-06 0)
(0.000515261 1.96598e-06 0)
(0.000514694 -4.70861e-07 0)
(0.000514153 -2.41118e-06 0)
(0.00051378 -3.82543e-06 0)
(0.00051362 -4.85276e-06 0)
(0.000513607 -5.62534e-06 0)
(0.000513624 -6.12603e-06 0)
(0.000513594 -6.19266e-06 0)
(0.000513509 -5.63818e-06 0)
(0.000513407 -4.35813e-06 0)
(0.000513366 -2.3878e-06 0)
(0.000513501 4.04083e-08 0)
(0.000513915 2.47209e-06 0)
(0.000514613 4.32241e-06 0)
(0.000515464 5.06728e-06 0)
(0.000516206 4.46246e-06 0)
(0.000516526 2.71849e-06 0)
(0.0005162 5.159e-07 0)
(0.000515241 -1.22978e-06 0)
(0.000513901 -1.75732e-06 0)
(0.000512536 -7.67326e-07 0)
(0.000511433 1.51636e-06 0)
(0.00051073 4.49508e-06 0)
(0.000510445 7.40853e-06 0)
(0.000510496 9.53086e-06 0)
(0.000510714 1.03535e-05 0)
(0.00051088 9.7375e-06 0)
(0.000510823 7.95717e-06 0)
(0.00051053 5.55497e-06 0)
(0.000510183 3.05678e-06 0)
(0.000510064 7.15901e-07 0)
(0.000510379 -1.54794e-06 0)
(0.000511123 -3.96489e-06 0)
(0.000512097 -6.62221e-06 0)
(0.000513056 -9.29761e-06 0)
(0.000513859 -1.15287e-05 0)
(0.000514519 -1.28312e-05 0)
(0.000515146 -1.29029e-05 0)
(0.000515862 -1.17006e-05 0)
(0.000516753 -9.40633e-06 0)
(0.00051786 -6.37235e-06 0)
(0.000519181 -3.06635e-06 0)
(0.000520667 2.28814e-09 0)
(0.000522236 2.36695e-06 0)
(0.000523784 3.68378e-06 0)
(0.000525208 3.79478e-06 0)
(0.000526422 2.75789e-06 0)
(0.000527363 8.32146e-07 0)
(0.000527991 -1.5759e-06 0)
(0.000528292 -3.98447e-06 0)
(0.000528296 -5.92271e-06 0)
(0.000528068 -7.00957e-06 0)
(0.000527703 -7.00393e-06 0)
(0.000527301 -5.847e-06 0)
(0.000526947 -3.6776e-06 0)
(0.000526706 -8.03665e-07 0)
(0.000526641 2.33306e-06 0)
(0.000526792 5.19095e-06 0)
(0.000527111 7.22211e-06 0)
(0.000527424 8.04394e-06 0)
(0.000527468 7.6143e-06 0)
(0.000527005 6.30464e-06 0)
(0.000525956 4.79608e-06 0)
(0.000524484 3.78113e-06 0)
(0.000522947 3.61107e-06 0)
(0.000521715 4.12847e-06 0)
(0.000520982 4.7894e-06 0)
(0.000520693 4.98734e-06 0)
(0.000520605 4.3891e-06 0)
(0.000520476 3.08394e-06 0)
(0.000520219 1.45845e-06 0)
(0.000519945 -1.03505e-07 0)
(0.000519856 -1.47075e-06 0)
(0.000520082 -2.79085e-06 0)
(0.000520599 -4.30617e-06 0)
(0.000521263 -6.1354e-06 0)
(0.000521905 -8.1807e-06 0)
(0.000522385 -1.0162e-05 0)
(0.000522609 -1.16798e-05 0)
(0.000522584 -1.23007e-05 0)
(0.000522514 -1.17567e-05 0)
(0.000522865 -1.02568e-05 0)
(0.000523861 -8.7676e-06 0)
(0.000687264 -6.2668e-07 0)
(0.000687104 1.20714e-06 0)
(0.000686509 3.19786e-06 0)
(0.000686184 4.9343e-06 0)
(0.000685978 6.10229e-06 0)
(0.000685631 6.64363e-06 0)
(0.000684985 6.69165e-06 0)
(0.000684002 6.50956e-06 0)
(0.000682754 6.41043e-06 0)
(0.000681403 6.64145e-06 0)
(0.000680171 7.27547e-06 0)
(0.00067927 8.15981e-06 0)
(0.000678827 8.94341e-06 0)
(0.000678819 9.19652e-06 0)
(0.000679065 8.59462e-06 0)
(0.000679307 7.07429e-06 0)
(0.000679335 4.8667e-06 0)
(0.000679075 2.3803e-06 0)
(0.000678592 1.57262e-08 0)
(0.000678026 -1.97187e-06 0)
(0.000677508 -3.51384e-06 0)
(0.000677097 -4.67051e-06 0)
(0.000676763 -5.50862e-06 0)
(0.000676433 -6.00181e-06 0)
(0.000676063 -6.03012e-06 0)
(0.000675671 -5.46162e-06 0)
(0.000675325 -4.23509e-06 0)
(0.000675131 -2.4129e-06 0)
(0.000675209 -2.21582e-07 0)
(0.000675643 1.94375e-06 0)
(0.000676412 3.60087e-06 0)
(0.000677355 4.33466e-06 0)
(0.000678194 3.96881e-06 0)
(0.000678616 2.69175e-06 0)
(0.000678404 1.05324e-06 0)
(0.000677563 -2.20314e-07 0)
(0.000676326 -5.20074e-07 0)
(0.000675045 4.07099e-07 0)
(0.000674043 2.39565e-06 0)
(0.000673516 4.96034e-06 0)
(0.000673518 7.46398e-06 0)
(0.00067397 9.28858e-06 0)
(0.000674683 9.99431e-06 0)
(0.00067541 9.44174e-06 0)
(0.000675948 7.82064e-06 0)
(0.000676235 5.53955e-06 0)
(0.00067638 3.01508e-06 0)
(0.000676582 4.83374e-07 0)
(0.000676995 -2.04809e-06 0)
(0.000677618 -4.67586e-06 0)
(0.000678302 -7.39964e-06 0)
(0.000678863 -1.00061e-05 0)
(0.000679206 -1.21161e-05 0)
(0.000679364 -1.33403e-05 0)
(0.000679471 -1.34305e-05 0)
(0.000679683 -1.23484e-05 0)
(0.000680135 -1.02521e-05 0)
(0.000680915 -7.45725e-06 0)
(0.000682052 -4.38626e-06 0)
(0.000683514 -1.50205e-06 0)
(0.000685207 7.67953e-07 0)
(0.000686993 2.10527e-06 0)
(0.000688713 2.35836e-06 0)
(0.000690212 1.57107e-06 0)
(0.000691365 -2.87885e-08 0)
(0.000692092 -2.07606e-06 0)
(0.000692367 -4.13532e-06 0)
(0.00069223 -5.7786e-06 0)
(0.000691775 -6.65668e-06 0)
(0.000691138 -6.54947e-06 0)
(0.000690469 -5.40338e-06 0)
(0.000689911 -3.34336e-06 0)
(0.000689574 -6.51283e-07 0)
(0.000689537 2.27068e-06 0)
(0.000689818 4.94666e-06 0)
(0.000690336 6.9158e-06 0)
(0.000690895 7.86737e-06 0)
(0.00069123 7.76854e-06 0)
(0.000691109 6.90951e-06 0)
(0.000690453 5.81198e-06 0)
(0.000689399 5.00352e-06 0)
(0.000688254 4.75984e-06 0)
(0.000687341 4.98087e-06 0)
(0.000686838 5.27582e-06 0)
(0.000686713 5.1983e-06 0)
(0.00068677 4.49281e-06 0)
(0.000686798 3.20716e-06 0)
(0.000686703 1.60998e-06 0)
(0.000686552 -1.80519e-08 0)
(0.000686489 -1.56139e-06 0)
(0.000686611 -3.09444e-06 0)
(0.000686899 -4.75969e-06 0)
(0.000687234 -6.6153e-06 0)
(0.000687468 -8.56259e-06 0)
(0.000687487 -1.03644e-05 0)
(0.000687237 -1.17e-05 0)
(0.000686771 -1.22511e-05 0)
(0.000686304 -1.18592e-05 0)
(0.000686215 -1.07429e-05 0)
(0.00068658 -9.66605e-06 0)
(0.000842056 -3.21137e-07 0)
(0.000841667 1.70701e-06 0)
(0.0008412 3.82417e-06 0)
(0.000840992 5.67735e-06 0)
(0.000840901 6.96727e-06 0)
(0.000840712 7.62775e-06 0)
(0.000840287 7.79445e-06 0)
(0.000839596 7.71357e-06 0)
(0.000838703 7.64855e-06 0)
(0.000837748 7.79167e-06 0)
(0.000836911 8.19326e-06 0)
(0.000836356 8.73202e-06 0)
(0.000836179 9.14281e-06 0)
(0.00083635 9.1088e-06 0)
(0.00083672 8.39351e-06 0)
(0.000837074 6.94986e-06 0)
(0.000837226 4.94511e-06 0)
(0.000837096 2.68257e-06 0)
(0.000836714 4.74432e-07 0)
(0.000836182 -1.45966e-06 0)
(0.000835605 -3.02821e-06 0)
(0.000835047 -4.23318e-06 0)
(0.000834504 -5.09138e-06 0)
(0.000833947 -5.5699e-06 0)
(0.000833365 -5.58404e-06 0)
(0.000832795 -5.04967e-06 0)
(0.000832319 -3.94279e-06 0)
(0.000832042 -2.34178e-06 0)
(0.000832071 -4.52977e-07 0)
(0.000832465 1.39757e-06 0)
(0.000833185 2.83241e-06 0)
(0.000834071 3.5401e-06 0)
(0.000834871 3.4012e-06 0)
(0.000835312 2.5726e-06 0)
(0.000835213 1.47415e-06 0)
(0.000834574 6.50585e-07 0)
(0.000833592 5.60715e-07 0)
(0.000832572 1.40284e-06 0)
(0.000831814 3.05813e-06 0)
(0.000831523 5.15214e-06 0)
(0.000831768 7.17918e-06 0)
(0.000832483 8.641e-06 0)
(0.000833494 9.17602e-06 0)
(0.000834569 8.65302e-06 0)
(0.000835509 7.19086e-06 0)
(0.000836223 5.07994e-06 0)
(0.000836752 2.6362e-06 0)
(0.000837216 7.03701e-08 0)
(0.00083771 -2.5491e-06 0)
(0.000838233 -5.21963e-06 0)
(0.000838686 -7.87793e-06 0)
(0.000838952 -1.03259e-05 0)
(0.000838979 -1.22613e-05 0)
(0.000838818 -1.33832e-05 0)
(0.000838603 -1.34985e-05 0)
(0.0008385 -1.25786e-05 0)
(0.00083866 -1.07576e-05 0)
(0.000839188 -8.30667e-06 0)
(0.000840133 -5.5897e-06 0)
(0.000841472 -3.00685e-06 0)
(0.000843113 -9.29124e-07 0)
(0.000844909 3.64944e-07 0)
(0.000846681 7.39104e-07 0)
(0.00084825 2.24037e-07 0)
(0.000849463 -9.90922e-07 0)
(0.000850223 -2.59627e-06 0)
(0.000850496 -4.22013e-06 0)
(0.000850321 -5.49467e-06 0)
(0.000849802 -6.1177e-06 0)
(0.000849086 -5.89902e-06 0)
(0.000848343 -4.79203e-06 0)
(0.000847732 -2.90353e-06 0)
(0.000847383 -4.76594e-07 0)
(0.000847374 2.14429e-06 0)
(0.000847711 4.56263e-06 0)
(0.000848304 6.40735e-06 0)
(0.000848968 7.43425e-06 0)
(0.00084947 7.61412e-06 0)
(0.00084961 7.15694e-06 0)
(0.000849318 6.43812e-06 0)
(0.000848695 5.83676e-06 0)
(0.000847974 5.55786e-06 0)
(0.000847405 5.54585e-06 0)
(0.000847134 5.53991e-06 0)
(0.000847144 5.23366e-06 0)
(0.000847297 4.44402e-06 0)
(0.000847428 3.19206e-06 0)
(0.000847455 1.65337e-06 0)
(0.000847404 2.3589e-08 0)
(0.000847364 -1.59904e-06 0)
(0.000847396 -3.23493e-06 0)
(0.000847484 -4.94882e-06 0)
(0.000847539 -6.75104e-06 0)
(0.000847453 -8.54598e-06 0)
(0.000847144 -1.01418e-05 0)
(0.000846596 -1.12962e-05 0)
(0.000845883 -1.17905e-05 0)
(0.000845201 -1.15463e-05 0)
(0.000844832 -1.07659e-05 0)
(0.000844752 -1.00233e-05 0)
(0.000989296 -3.19046e-07 0)
(0.000989055 2.01706e-06 0)
(0.000988678 4.29797e-06 0)
(0.000988515 6.24866e-06 0)
(0.000988463 7.61089e-06 0)
(0.000988367 8.33175e-06 0)
(0.000988123 8.56023e-06 0)
(0.000987705 8.53374e-06 0)
(0.000987156 8.47683e-06 0)
(0.000986582 8.53554e-06 0)
(0.000986112 8.73984e-06 0)
(0.000985866 8.99446e-06 0)
(0.000985906 9.10582e-06 0)
(0.000986201 8.8494e-06 0)
(0.000986632 8.06032e-06 0)
(0.000987033 6.70715e-06 0)
(0.000987252 4.909e-06 0)
(0.000987214 2.886e-06 0)
(0.000986926 8.75327e-07 0)
(0.000986454 -9.39921e-07 0)
(0.000985879 -2.45982e-06 0)
(0.000985257 -3.64979e-06 0)
(0.000984608 -4.49395e-06 0)
(0.000983933 -4.95615e-06 0)
(0.000983247 -4.97822e-06 0)
(0.000982601 -4.51235e-06 0)
(0.000982073 -3.56147e-06 0)
(0.000981762 -2.20926e-06 0)
(0.00098175 -6.34069e-07 0)
(0.000982074 9.05237e-07 0)
(0.000982689 2.12378e-06 0)
(0.000983453 2.79627e-06 0)
(0.000984155 2.8448e-06 0)
(0.000984579 2.39212e-06 0)
(0.000984584 1.74479e-06 0)
(0.000984173 1.29384e-06 0)
(0.000983498 1.36891e-06 0)
(0.000982806 2.1152e-06 0)
(0.000982349 3.44724e-06 0)
(0.000982308 5.08544e-06 0)
(0.000982753 6.64427e-06 0)
(0.000983634 7.73812e-06 0)
(0.000984804 8.08081e-06 0)
(0.000986066 7.55534e-06 0)
(0.000987242 6.22867e-06 0)
(0.000988229 4.29939e-06 0)
(0.000989019 2.0015e-06 0)
(0.000989666 -4.82595e-07 0)
(0.000990221 -3.05043e-06 0)
(0.000990678 -5.63727e-06 0)
(0.000990979 -8.14246e-06 0)
(0.00099106 -1.03862e-05 0)
(0.000990904 -1.21305e-05 0)
(0.000990575 -1.31476e-05 0)
(0.000990199 -1.32932e-05 0)
(0.000989933 -1.25492e-05 0)
(0.000989922 -1.10283e-05 0)
(0.000990275 -8.95611e-06 0)
(0.000991045 -6.6354e-06 0)
(0.000992216 -4.39932e-06 0)
(0.000993704 -2.55739e-06 0)
(0.00099537 -1.34333e-06 0)
(0.00099704 -8.7433e-07 0)
(0.000998537 -1.13077e-06 0)
(0.000999708 -1.96219e-06 0)
(0.00100045 -3.11777e-06 0)
(0.00100073 -4.29349e-06 0)
(0.00100059 -5.18672e-06 0)
(0.00100011 -5.54739e-06 0)
(0.000999441 -5.21799e-06 0)
(0.000998748 -4.15971e-06 0)
(0.000998186 -2.46025e-06 0)
(0.000997881 -3.19781e-07 0)
(0.000997904 1.97994e-06 0)
(0.000998257 4.12121e-06 0)
(0.000998856 5.81367e-06 0)
(0.000999545 6.86807e-06 0)
(0.00100013 7.25481e-06 0)
(0.00100046 7.11502e-06 0)
(0.00100046 6.70517e-06 0)
(0.00100022 6.28561e-06 0)
(0.000999873 6.00295e-06 0)
(0.000999615 5.83195e-06 0)
(0.000999551 5.60946e-06 0)
(0.000999675 5.13712e-06 0)
(0.000999895 4.29178e-06 0)
(0.00100009 3.081e-06 0)
(0.0010002 1.61608e-06 0)
(0.00100022 3.06993e-08 0)
(0.00100019 -1.59296e-06 0)
(0.00100015 -3.24086e-06 0)
(0.00100008 -4.92499e-06 0)
(0.000999931 -6.62347e-06 0)
(0.000999622 -8.24716e-06 0)
(0.000999108 -9.6461e-06 0)
(0.000998398 -1.06453e-05 0)
(0.000997574 -1.11033e-05 0)
(0.000996795 -1.09931e-05 0)
(0.00099626 -1.04872e-05 0)
(0.000995884 -1.00006e-05 0)
(0.00112801 -8.89055e-08 0)
(0.0011282 2.30673e-06 0)
(0.00112788 4.57419e-06 0)
(0.00112771 6.49455e-06 0)
(0.00112764 7.8516e-06 0)
(0.00112759 8.60309e-06 0)
(0.00112749 8.88925e-06 0)
(0.00112731 8.92027e-06 0)
(0.00112707 8.88184e-06 0)
(0.00112683 8.8851e-06 0)
(0.00112667 8.94732e-06 0)
(0.00112668 8.99556e-06 0)
(0.00112689 8.89247e-06 0)
(0.00112727 8.48429e-06 0)
(0.00112773 7.6611e-06 0)
(0.00112815 6.40499e-06 0)
(0.0011284 4.80167e-06 0)
(0.00112843 3.01011e-06 0)
(0.00112822 1.20875e-06 0)
(0.00112782 -4.5283e-07 0)
(0.00112728 -1.87667e-06 0)