 NUFEB Simulation

     9 atoms 
     2 atom types 
     9 bacilli

  0.0e-4   1.00e-04  xlo xhi 
  0.0e-4   1.00e-04  ylo yhi 
  0.0e-4   1.00e-05  zlo zhi 

 Atoms 

     1 1 1 370 2.05e-05 8.42e-05 1e-06 1
     2 1 1 370 5.42e-05 8.86e-05 1e-06 1
     3 1 1 370 1.56e-05 1.33e-05 1e-06 1
     4 1 1 370 2.14e-05 3.62e-06 1e-06 1
     5 1 1 370 1.20e-05 6.41e-06 1e-06 1
     6 2 1 370 7.40e-05 2.76e-05 1e-06 1
     7 2 1 370 7.44e-05 5.72e-05 1e-06 1
     8 2 1 370 1.38e-05 8.83e-05 1e-06 1
     9 2 1 370 1.22e-05 8.33e-05 1e-06 1

 Bacilli
     
     1 0 0 9.2e-23 0 0 0 2.2e-6 0 0 1e-6
     2 0 0 9.2e-23 0 0 0 2e-6 2.5e-6 0 1e-6
     3 0 0 9.2e-23 0 0 0 2.2e-6 1e-6 0 1e-6
     4 0 0 9.2e-23 0 0 0 0 2.5e-6 0 1e-6
     5 0 0 9.2e-23 0 0 0 2.8e-6 2e-6 0 1e-6
     6 0 0 9.2e-23 0 0 0 2.9e-6 2.5e-6 0 1e-6
     7 0 0 9.2e-23 0 0 0 2.45e-6 3.5e-6 0 1e-6
     8 0 0 9.2e-23 0 0 0 2.9e-6 2.5e-6 0 1e-6
     9 0 0 9.2e-23 0 0 0 2e-6 2.5e-6 0 1e-6

